
 Primary working directories    : /tmp/sb13343
 Secondary working directories  : /tmp/sb13343
 Wavefunction directory         : /panfs/panasas01/chem/sb13343/wfu/
 Main file repository           : /tmp/sb13343/

 SHA1      : b4a5b34a9e711420743f49e6833241d17c61fb3c
 NAME      : 2099.9.b4a5b34
 ARCHNAME  : linux/x86_64_openmp
 FC        : /cm/shared/languages/GCC-6.1/bin/gfortran
 BLASLIB   : -lblas
 id        : simonbennie

 Nodes     nprocs
 node32-013    1

 Using customized tuning parameters: mindgm=1; mindgv=20; mindgc=4; mindgr=1; noblas=0; minvec=7
 default implementation of scratch files=df  

 memory,500,m
 geomtyp=xyz
 nosym
 noorient
 geometry={
 O          0.00000        0.00000        0.00000
 C          0.00000        0.00000        1.40986
 C          1.30431        0.00000       -0.53525
 H         -1.04418        0.00000        1.73410
 H          1.20786        0.00000       -1.62434
 H          0.50101        0.89295        1.81977
 H          1.87373        0.89295       -0.22737
 H          0.50101       -0.89295        1.81977
 H          1.87373       -0.89295       -0.22737
 }
 basis={ default,svp }
 {ks,MM06-2X,direct;wf,26,1,0}
 {ibba,bonds=1}

 Variables initialized (895), CPU time= 0.00 sec
 Commands  initialized (725), CPU time= 0.02 sec, 591 directives.
 Default parameters read. Elapsed time= 1.71 sec

 Checking input...
 Passed
1


                                         ***  PROGRAM SYSTEM MOLPRO  ***
                                       Copyright, TTI GmbH Stuttgart, 2015
                                    Version 2099.9 linked May 26 2017 16:03:21


 **********************************************************************************************************************************
 LABEL *                                                                                 
  64 bit serial version                                                                  DATE: 07-Jun-17          TIME: 16:36:04  
 **********************************************************************************************************************************

 SHA1:             b4a5b34a9e711420743f49e6833241d17c61fb3c
 **********************************************************************************************************************************
 SETTING GEOMTYP        =    XYZ

 Variable memory set to  500000000 words,  buffer space 

 ZSYMEL=NOSYM

 SETTING BASIS          =    SVP


 Recomputing integrals since basis changed


 Using spherical harmonics

 Library entry O      S def2-SVP             selected for orbital group  1
 Library entry O      P def2-SVP             selected for orbital group  1
 Library entry O      D def2-SVP             selected for orbital group  1
 Library entry C      S def2-SVP             selected for orbital group  2
 Library entry C      P def2-SVP             selected for orbital group  2
 Library entry C      D def2-SVP             selected for orbital group  2
 Library entry H      S def2-SVP             selected for orbital group  3
 Library entry H      P def2-SVP             selected for orbital group  3


 PROGRAM * SEWARD (Integral evaluation for generally contracted gaussian basis sets)     Author: Roland Lindh, 1990

 Geometry written to block  1 of record 700


 Point group  C1  



 ATOMIC COORDINATES

 NR  ATOM    CHARGE       X              Y              Z

   1  O       8.00    0.000000000    0.000000000    0.000000000
   2  C       6.00    0.000000000    0.000000000    2.664249274
   3  C       6.00    2.464788682    0.000000000   -1.011475908
   4  H       1.00   -1.973214225    0.000000000    3.276974073
   5  H       1.00    2.282524597    0.000000000   -3.069557733
   6  H       1.00    0.946771686    1.687430943    3.438866910
   7  H       1.00    3.540836531    1.687430943   -0.429667029
   8  H       1.00    0.946771686   -1.687430943    3.438866910
   9  H       1.00    3.540836531   -1.687430943   -0.429667029

 Bond lengths in Bohr (Angstrom)

 1-2  2.664249274  1-3  2.664257262  2-4  2.066157316  2-6  2.084186243  2-8  2.084186243
     ( 1.409860000)     ( 1.409864227)     ( 1.093363366)     ( 1.102903863)     ( 1.102903863)

 3-5  2.066136732  3-7  2.084179391  3-9  2.084179391
     ( 1.093352473)     ( 1.102900237)     ( 1.102900237)

 Bond angles

  1-2-4  107.25067522   1-2-6  111.81829608   1-2-8  111.81829608   1-3-5  107.25086594

  1-3-7  111.81797398   1-3-9  111.81797398   2-1-3  112.31178693   4-2-6  108.88149892

  4-2-8  108.88149892   5-3-7  108.88146655   5-3-9  108.88146655   6-2-8  108.12064679

  7-3-9  108.12116643

 NUCLEAR CHARGE:                   26
 NUMBER OF PRIMITIVE AOS:         117
 NUMBER OF SYMMETRY AOS:          114
 NUMBER OF CONTRACTIONS:           72   (  72A   )
 NUMBER OF CORE ORBITALS:           3   (   3A   )
 NUMBER OF VALENCE ORBITALS:       18   (  18A   )


 NUCLEAR REPULSION ENERGY   83.80024479


 Eigenvalues of metric

         1 0.907E-02 0.130E-01 0.293E-01 0.353E-01 0.441E-01 0.490E-01 0.499E-01 0.601E-01


 Contracted 2-electron integrals neglected if value below      1.0D-11
 AO integral compression algorithm  1   Integral accuracy      1.0D-11

     14.156 MB (compressed) written to integral file ( 45.3%)


 NUMBER OF SORTED TWO-ELECTRON INTEGRALS:    3454506.     BUFFER LENGTH:  32768
 NUMBER OF SEGMENTS:   1  SEGMENT LENGTH:    3454506      RECORD LENGTH: 524288

 Memory used in sort:       4.01 MW

 SORT1 READ     3931143. AND WROTE     2907067. INTEGRALS IN      9 RECORDS. CPU TIME:     0.04 SEC, REAL TIME:     0.08 SEC
 SORT2 READ     2907067. AND WROTE     3454506. INTEGRALS IN     54 RECORDS. CPU TIME:     0.12 SEC, REAL TIME:     0.14 SEC

 FILE SIZES:   FILE 1:    44.4 MBYTE,  FILE 4:    37.8 MBYTE,   TOTAL:     82.2 MBYTE

 OPERATOR DM      FOR CENTER  0  COORDINATES:    0.000000    0.000000    0.000000


 **********************************************************************************************************************************
 DATASETS  * FILE   NREC   LENGTH (MB)   RECORD NAMES
              1      19       42.45       500      610      700      900      950      970     1000      129      960     1100   
                                          VAR    BASINP    GEOM    SYMINP    ZMAT    AOBASIS   BASIS     P2S    ABASIS      S 
                                         1400     1410     1200     1210     1080     1600     1650     1300     1700   
                                           T        V       H0       H01     AOSYM     SMH    MOLCAS    ERIS     OPER   

 PROGRAMS   *        TOTAL       INT
 CPU TIMES  *         0.88      0.75
 REAL TIME  *         2.96 SEC
 DISK USED  *        82.64 MB      
 **********************************************************************************************************************************

 Density functional group MM06-2X=M062XX+M062XC
 Functional: M062XX(Automatically generated (new) M062XX)                      Gradient terms: 2
 Functional: M062XC(Automatically generated (new) M062XC)                      Gradient terms: 2
 Use grid at  1800.2


 Exact exchange will be calculated, factor:  0.5400

 Functional: M062XX                    Factor:  0.4600
 Functional: M062XC                    Factor:  1.0000

 Generated new metagrid on record  1800.2 with target accuracy 1.0D-06 and 33732 points in CPU time    0.9
 Computed new grid on record 1800.1 in CPU time    1.0
  116061 words reserved for DFT integration

 PROGRAM * RKS-SCF (Restricted closed shell Kohn-Sham)     Authors: W. Meyer, H.-J. Werner, P.J. Knowles, 1993

 NUMBER OF ELECTRONS:      13+   13-    SPACE SYMMETRY=1    SPIN SYMMETRY: Singlet 
 CONVERGENCE THRESHOLDS:    1.00E-05 (Density)    1.00E-06 (Energy)
 MAX. NUMBER OF ITERATIONS:       60
 INTERPOLATION TYPE:            DIIS
 INTERPOLATION STEPS:              2 (START)      1 (STEP)
 LEVEL SHIFTS:                  0.00 (CLOSED)  0.00 (OPEN) 



 Use fine grid record 1800.2 for energy threshold  1.0D-06
 Orbital guess generated from atomic densities. Full valence occupancy:   13

 Molecular orbital dump at record        2100.2

 Initial occupancy:  13

 ITERATION    DDIFF          GRAD             ENERGY        2-EL.EN.            DIPOLE MOMENTS         DIIS   ORB.
    1      0.000D+00      0.000D+00      -149.72952712    291.025899    0.52554    0.00000    0.35242    0    start
    2      0.000D+00      0.375D-02      -149.73924282    289.948262    0.34346    0.00000    0.23060    1    diag
    3      0.419D-02      0.167D-02      -149.74077670    290.360375    0.35495    0.00000    0.23841    2    diag
    4      0.136D-02      0.633D-03      -149.74101267    290.373234    0.37483    0.00000    0.25181    3    diag
    5      0.489D-03      0.201D-03      -149.74103382    290.277573    0.36368    0.00000    0.24436    4    diag
    6      0.190D-03      0.615D-04      -149.74103647    290.320551    0.36566    0.00000    0.24570    5    diag
    7      0.572D-04      0.785D-05      -149.74103652    290.316476    0.36574    0.00000    0.24575    6    diag
    8      0.883D-05      0.958D-06      -149.74103652    290.316747    0.36566    0.00000    0.24570    0    orth

 Final occupancy:  13

 !RKS STATE 1.1 Energy               -149.741036517770
 Nuclear energy                        83.80024479
 One-electron energy                 -373.47905281
 Two-electron energy                  145.15837369
 SCF exchange energy                  -20.41263938     Factor= 0.5400
 Density functional                    -5.22060218     M062XX=-9.35294807 M062XC=-0.91824607
 Virial quotient                       -0.99070343
 !RKS STATE 1.1 Dipole moment           0.36565928     0.00000000     0.24569718
 Dipole moment /Debye                   0.92935231     0.00000000     0.62445904

 Orbital energies:

         1.1          2.1          3.1          4.1          5.1          6.1          7.1          8.1          9.1         10.1
    -19.142912   -10.197447   -10.197407    -1.060837    -0.730944    -0.637761    -0.477320    -0.474909    -0.473185    -0.384087

        11.1         12.1         13.1         14.1         15.1
     -0.363174    -0.306598    -0.245386     0.142469     0.193020

 HOMO     13.1    -0.245386 =      -6.6773eV
 LUMO     14.1     0.142469 =       3.8768eV
 LUMO-HOMO         0.387856 =      10.5541eV


 **********************************************************************************************************************************
 DATASETS  * FILE   NREC   LENGTH (MB)   RECORD NAMES
              1      20       43.53       500      610      700      900      950      970     1000      129      960     1100   
                                          VAR    BASINP    GEOM    SYMINP    ZMAT    AOBASIS   BASIS     P2S    ABASIS      S 
                                         1400     1410     1200     1210     1080     1600     1650     1300     1700     1800   
                                           T        V       H0       H01     AOSYM     SMH    MOLCAS    ERIS     OPER     GRID   

              2       5        3.00       700     1000      520     1800     2100   
                                         GEOM     BASIS   MCVARS    GRID      RKS  

 PROGRAMS   *        TOTAL        KS       INT
 CPU TIMES  *        12.35     11.47      0.75
 REAL TIME  *        14.72 SEC
 DISK USED  *        82.64 MB      
 **********************************************************************************************************************************


 PROGRAM * Intrinsic Basis Bonding Analysis (IBBA)          Author: G. Knizia

 Molecular orbitals read from record     2100.2  Type=RKS/CANONICAL (state 1.1)
 Fock matrix read from record            2100.2  Type=RKS/TOTAL (state 1.1)
 Orbital energies read from record       2100.2  Type=RKS/CANONICAL (state 1.1)
 Density matrix read from record         2100.2  Type=RKS/CHARGE (state 1.1)

 Number of core orbitals:           3 (   3 )
 Number of closed-shell orbitals:  10 (  10 )

 Basis set MINAO-AUTO-PP generated.      Number of basis functions:   21 

 Polarized AO type:                A = (O Ot + (1-O)(1-Ot)) P12
 Orthogonalization method:         Symmetric (Loewdin)
 Localization functional:          L = sum[A,i] <i|n_A|i>^4 -> max

 Localization group 1:  13 orbitals, occupancy  2.000
 Iterative localization: IB/PM,    7 iter; Final gradient 0.11E-08

 Bond order analysis:       [THRPRINT= 0.020]

   CEN ATOM   CEN ATOM     WIBERG.BO      RENORM.BO
     1   O  -   3   C       1.003552       1.024005
     1   O  -   2   C       1.003527       1.024003
     1   O  -   8   H       0.034708       0.020091
     1   O  -   6   H       0.034708       0.020091
     1   O  -   9   H       0.034706       0.020088
     1   O  -   7   H       0.034706       0.020088

     2   C  -   1   O       1.003527       1.024003
     2   C  -   4   H       0.963373       0.977282
     2   C  -   8   H       0.951935       0.933919
     2   C  -   6   H       0.951935       0.933919

     3   C  -   1   O       1.003552       1.024005
     3   C  -   5   H       0.963399       0.977271
     3   C  -   9   H       0.951942       0.933926
     3   C  -   7   H       0.951942       0.933926

     4   H  -   2   C       0.963373       0.977282

     5   H  -   3   C       0.963399       0.977271

     6   H  -   2   C       0.951935       0.933919
     6   H  -   1   O       0.034708       0.020091

     7   H  -   3   C       0.951942       0.933926
     7   H  -   1   O       0.034706       0.020088

     8   H  -   2   C       0.951935       0.933919
     8   H  -   1   O       0.034708       0.020091

     9   H  -   3   C       0.951942       0.933926
     9   H  -   1   O       0.034706       0.020088


 Valency analysis:

   CEN ATOM   TOT.VALENCE
     1   O       2.157914
     2   C       3.890380
     3   C       3.890442
     4   H       0.984599
     5   H       0.984627
     6   H       0.993005
     7   H       0.993010
     8   H       0.993005
     9   H       0.993010

 Total charge composition:

   CEN ATOM         s          p       ELECTRONS ->P.CHARGE
     1   O       3.55405    4.77483      8.32889   -0.32889
     2   C       2.97944    3.14747      6.12691   -0.12691
     3   C       2.97941    3.14738      6.12679   -0.12679
     4   H       0.87590                 0.87590    0.12410
     5   H       0.87601                 0.87601    0.12399
     6   H       0.91636                 0.91636    0.08364
     7   H       0.91639                 0.91639    0.08361
     8   H       0.91636                 0.91636    0.08364
     9   H       0.91639                 0.91639    0.08361

 Total charge composition, AO contributions:

   CEN ATOM SHL      SPHERICAL COMPONENTS
     1   O  1s       1.99736
     1   O  2s       1.55669
     1   O  2p       1.52038    1.89888    1.35557

     2   C  1s       1.99300
     2   C  2s       0.98645
     2   C  2p       1.17134    1.15039    0.82573

     3   C  1s       1.99299
     3   C  2s       0.98641
     3   C  2p       0.87422    1.15041    1.12274

     4   H  1s       0.87590

     5   H  1s       0.87601

     6   H  1s       0.91636

     7   H  1s       0.91639

     8   H  1s       0.91636

     9   H  1s       0.91639

 Summary of localized orbital composition:   [THRPRINT= 0.020]

   ORB  GRP  ORB.ENERGY      CENTERS/CHARGES
     1   1   -19.000578      O  1   2.000
     2   1   -10.093499      C  2   2.000
     3   1   -10.093472      C  3   2.000
     4   1    -0.782033      O  1   1.233   C  2   0.759
     5   1    -0.782024      O  1   1.233   C  3   0.759
     6   1    -0.540376      O  1   1.961   (other: 0.039)
     7   1    -0.515461      C  2   1.102   H  8   0.896
     8   1    -0.515461      C  2   1.102   H  6   0.896
     9   1    -0.515459      C  3   1.102   H  7   0.896
    10   1    -0.515459      C  3   1.102   H  9   0.896
    11   1    -0.514360      C  2   1.126   H  4   0.868
    12   1    -0.514320      C  3   1.126   H  5   0.868
    13   1    -0.309466      O  1   1.899   C  2   0.021   C  3   0.021   (other: 0.059)

 Localized orbitals saved to record      2100.2  (orbital set 2)


 **********************************************************************************************************************************
 DATASETS  * FILE   NREC   LENGTH (MB)   RECORD NAMES
              1      20       43.53       500      610      700      900      950      970     1000      129      960     1100   
                                          VAR    BASINP    GEOM    SYMINP    ZMAT    AOBASIS   BASIS     P2S    ABASIS      S 
                                         1400     1410     1200     1210     1080     1600     1650     1300     1700     1800   
                                           T        V       H0       H01     AOSYM     SMH    MOLCAS    ERIS     OPER     GRID   

              2       5        3.04       700     1000      520     1800     2100   
                                         GEOM     BASIS   MCVARS    GRID      RKS  

 PROGRAMS   *        TOTAL      IBBA        KS       INT
 CPU TIMES  *        12.38      0.02     11.47      0.75
 REAL TIME  *        14.80 SEC
 DISK USED  *        82.64 MB      
 **********************************************************************************************************************************
 Molecular orbitals read from record     2100.2  Type=RKS/LOCAL(IBO)  
 Occupation numbers read from record     2100.2  Type=RKS/LOCAL(IBO)  
 Orbital energies read from record       2100.2  Type=RKS/LOCAL(IBO)  
 Redundancy group numbers read from rec  2100.2  Type=RKS/LOCAL(IBO)  

 IBBA/SVP energy=      0.000000000000

        KS-SCF  
   -149.74103652
 **********************************************************************************************************************************
 Molpro calculation terminated
