
 Primary working directories    : /tmp/sb13343
 Secondary working directories  : /tmp/sb13343
 Wavefunction directory         : /panfs/panasas01/chem/sb13343/wfu/
 Main file repository           : /tmp/sb13343/

 SHA1      : b4a5b34a9e711420743f49e6833241d17c61fb3c
 NAME      : 2099.9.b4a5b34
 ARCHNAME  : linux/x86_64_openmp
 FC        : /cm/shared/languages/GCC-6.1/bin/gfortran
 BLASLIB   : -lblas
 id        : simonbennie

 Nodes     nprocs
 node32-014    1

 Using customized tuning parameters: mindgm=1; mindgv=20; mindgc=4; mindgr=1; noblas=0; minvec=7
 default implementation of scratch files=df  

 memory,500,m
 geomtyp=xyz
 nosym
 noorient
 geometry={
 O          0.00000        0.00000        0.00000
 C          0.00000        0.00000        1.40986
 C          1.30431        0.00000       -0.53525
 H         -1.04418        0.00000        1.73410
 H          1.20786        0.00000       -1.62434
 H          0.50101        0.89295        1.81977
 H          1.87373        0.89295       -0.22737
 H          0.50101       -0.89295        1.81977
 H          1.87373       -0.89295       -0.22737
 }
 basis={ default,svp }
 {ks,B,direct;wf,26,1,0}
 {ibba,bonds=1}

 Variables initialized (895), CPU time= 0.00 sec
 Commands  initialized (725), CPU time= 0.02 sec, 591 directives.
 Default parameters read. Elapsed time= 2.05 sec

 Checking input...
 Passed
1


                                         ***  PROGRAM SYSTEM MOLPRO  ***
                                       Copyright, TTI GmbH Stuttgart, 2015
                                    Version 2099.9 linked May 26 2017 16:03:21


 **********************************************************************************************************************************
 LABEL *                                                                                 
  64 bit serial version                                                                  DATE: 07-Jun-17          TIME: 16:23:47  
 **********************************************************************************************************************************

 SHA1:             b4a5b34a9e711420743f49e6833241d17c61fb3c
 **********************************************************************************************************************************
 SETTING GEOMTYP        =    XYZ

 Variable memory set to  500000000 words,  buffer space 

 ZSYMEL=NOSYM

 SETTING BASIS          =    SVP


 Recomputing integrals since basis changed


 Using spherical harmonics

 Library entry O      S def2-SVP             selected for orbital group  1
 Library entry O      P def2-SVP             selected for orbital group  1
 Library entry O      D def2-SVP             selected for orbital group  1
 Library entry C      S def2-SVP             selected for orbital group  2
 Library entry C      P def2-SVP             selected for orbital group  2
 Library entry C      D def2-SVP             selected for orbital group  2
 Library entry H      S def2-SVP             selected for orbital group  3
 Library entry H      P def2-SVP             selected for orbital group  3


 PROGRAM * SEWARD (Integral evaluation for generally contracted gaussian basis sets)     Author: Roland Lindh, 1990

 Geometry written to block  1 of record 700


 Point group  C1  



 ATOMIC COORDINATES

 NR  ATOM    CHARGE       X              Y              Z

   1  O       8.00    0.000000000    0.000000000    0.000000000
   2  C       6.00    0.000000000    0.000000000    2.664249274
   3  C       6.00    2.464788682    0.000000000   -1.011475908
   4  H       1.00   -1.973214225    0.000000000    3.276974073
   5  H       1.00    2.282524597    0.000000000   -3.069557733
   6  H       1.00    0.946771686    1.687430943    3.438866910
   7  H       1.00    3.540836531    1.687430943   -0.429667029
   8  H       1.00    0.946771686   -1.687430943    3.438866910
   9  H       1.00    3.540836531   -1.687430943   -0.429667029

 Bond lengths in Bohr (Angstrom)

 1-2  2.664249274  1-3  2.664257262  2-4  2.066157316  2-6  2.084186243  2-8  2.084186243
     ( 1.409860000)     ( 1.409864227)     ( 1.093363366)     ( 1.102903863)     ( 1.102903863)

 3-5  2.066136732  3-7  2.084179391  3-9  2.084179391
     ( 1.093352473)     ( 1.102900237)     ( 1.102900237)

 Bond angles

  1-2-4  107.25067522   1-2-6  111.81829608   1-2-8  111.81829608   1-3-5  107.25086594

  1-3-7  111.81797398   1-3-9  111.81797398   2-1-3  112.31178693   4-2-6  108.88149892

  4-2-8  108.88149892   5-3-7  108.88146655   5-3-9  108.88146655   6-2-8  108.12064679

  7-3-9  108.12116643

 NUCLEAR CHARGE:                   26
 NUMBER OF PRIMITIVE AOS:         117
 NUMBER OF SYMMETRY AOS:          114
 NUMBER OF CONTRACTIONS:           72   (  72A   )
 NUMBER OF CORE ORBITALS:           3   (   3A   )
 NUMBER OF VALENCE ORBITALS:       18   (  18A   )


 NUCLEAR REPULSION ENERGY   83.80024479


 Eigenvalues of metric

         1 0.907E-02 0.130E-01 0.293E-01 0.353E-01 0.441E-01 0.490E-01 0.499E-01 0.601E-01


 Contracted 2-electron integrals neglected if value below      1.0D-11
 AO integral compression algorithm  1   Integral accuracy      1.0D-11

     14.156 MB (compressed) written to integral file ( 45.3%)


 NUMBER OF SORTED TWO-ELECTRON INTEGRALS:    3454506.     BUFFER LENGTH:  32768
 NUMBER OF SEGMENTS:   1  SEGMENT LENGTH:    3454506      RECORD LENGTH: 524288

 Memory used in sort:       4.01 MW

 SORT1 READ     3931143. AND WROTE     2907067. INTEGRALS IN      9 RECORDS. CPU TIME:     0.04 SEC, REAL TIME:     0.09 SEC
 SORT2 READ     2907067. AND WROTE     3454506. INTEGRALS IN     54 RECORDS. CPU TIME:     0.12 SEC, REAL TIME:     0.14 SEC

 FILE SIZES:   FILE 1:    44.4 MBYTE,  FILE 4:    37.8 MBYTE,   TOTAL:     82.2 MBYTE

 OPERATOR DM      FOR CENTER  0  COORDINATES:    0.000000    0.000000    0.000000


 **********************************************************************************************************************************
 DATASETS  * FILE   NREC   LENGTH (MB)   RECORD NAMES
              1      19       42.45       500      610      700      900      950      970     1000      129      960     1100   
                                          VAR    BASINP    GEOM    SYMINP    ZMAT    AOBASIS   BASIS     P2S    ABASIS      S 
                                         1400     1410     1200     1210     1080     1600     1650     1300     1700   
                                           T        V       H0       H01     AOSYM     SMH    MOLCAS    ERIS     OPER   

 PROGRAMS   *        TOTAL       INT
 CPU TIMES  *         0.89      0.75
 REAL TIME  *         3.35 SEC
 DISK USED  *        82.64 MB      
 **********************************************************************************************************************************

 Density functional group B=B88
 Functional: B88(Automatically generated (new) B88)                            Gradient terms: 1
 Use grid at  1800.2

 Functional: B88                       Factor:  1.0000

 Generated new metagrid on record  1800.2 with target accuracy 1.0D-06 and 33732 points in CPU time    0.9
 Computed new grid on record 1800.1 in CPU time    1.0
   61197 words reserved for DFT integration

 PROGRAM * RKS-SCF (Restricted closed shell Kohn-Sham)     Authors: W. Meyer, H.-J. Werner, P.J. Knowles, 1993

 NUMBER OF ELECTRONS:      13+   13-    SPACE SYMMETRY=1    SPIN SYMMETRY: Singlet 
 CONVERGENCE THRESHOLDS:    1.00E-05 (Density)    1.00E-06 (Energy)
 MAX. NUMBER OF ITERATIONS:       60
 INTERPOLATION TYPE:            DIIS
 INTERPOLATION STEPS:              2 (START)      1 (STEP)
 LEVEL SHIFTS:                  0.00 (CLOSED)  0.00 (OPEN) 



 Use fine grid record 1800.2 for energy threshold  1.0D-06
 Orbital guess generated from atomic densities. Full valence occupancy:   13

 Molecular orbital dump at record        2100.2

 Initial occupancy:  13

 ITERATION    DDIFF          GRAD             ENERGY        2-EL.EN.            DIPOLE MOMENTS         DIIS   ORB.
    1      0.000D+00      0.000D+00      -153.87448908    324.689623    0.73655    0.00000    0.49392    0    start
    2      0.000D+00      0.112D-01      -153.72391813    302.401693   -0.56262    0.00000   -0.37726    1    diag
    3      0.345D-01      0.181D-01      -153.97751063    316.719524    0.47517    0.00000    0.31863    2    diag
    4      0.244D-01      0.300D-02      -153.98248878    316.239373    0.34038    0.00000    0.22826    3    diag
    5      0.245D-02      0.943D-03      -153.98302369    316.094427    0.35097    0.00000    0.23536    4    diag
    6      0.699D-03      0.128D-03      -153.98303471    316.129008    0.34829    0.00000    0.23356    5    diag
    7      0.946D-04      0.175D-04      -153.98303498    316.137681    0.35077    0.00000    0.23522    6    diag
    8      0.245D-04      0.364D-05      -153.98303499    316.138806    0.35040    0.00000    0.23498    7    diag
    9      0.370D-05      0.278D-06      -153.98303499    316.138846    0.35040    0.00000    0.23498    0    orth

 Final occupancy:  13

 !RKS STATE 1.1 Energy               -153.983034990021
 Nuclear energy                        83.80024479
 One-electron energy                 -375.13705212
 Two-electron energy                  158.06942293
 Density functional                   -20.71565059     B88=-20.71565059
 Virial quotient                       -1.00452460
 !RKS STATE 1.1 Dipole moment           0.35039826     0.00000000     0.23497509
 Dipole moment /Debye                   0.89056521     0.00000000     0.59720799

 Orbital energies:

         1.1          2.1          3.1          4.1          5.1          6.1          7.1          8.1          9.1         10.1
    -18.740573    -9.929207    -9.929184    -0.888232    -0.606380    -0.526318    -0.390020    -0.379065    -0.377105    -0.312661

        11.1         12.1         13.1         14.1         15.1
     -0.296306    -0.230246    -0.169668     0.065818     0.107088

 HOMO     13.1    -0.169668 =      -4.6169eV
 LUMO     14.1     0.065818 =       1.7910eV
 LUMO-HOMO         0.235486 =       6.4079eV


 **********************************************************************************************************************************
 DATASETS  * FILE   NREC   LENGTH (MB)   RECORD NAMES
              1      20       43.53       500      610      700      900      950      970     1000      129      960     1100   
                                          VAR    BASINP    GEOM    SYMINP    ZMAT    AOBASIS   BASIS     P2S    ABASIS      S 
                                         1400     1410     1200     1210     1080     1600     1650     1300     1700     1800   
                                           T        V       H0       H01     AOSYM     SMH    MOLCAS    ERIS     OPER     GRID   

              2       5        3.00       700     1000      520     1800     2100   
                                         GEOM     BASIS   MCVARS    GRID      RKS  

 PROGRAMS   *        TOTAL        KS       INT
 CPU TIMES  *         4.88      3.98      0.75
 REAL TIME  *         7.88 SEC
 DISK USED  *        82.64 MB      
 **********************************************************************************************************************************


 PROGRAM * Intrinsic Basis Bonding Analysis (IBBA)          Author: G. Knizia

 Molecular orbitals read from record     2100.2  Type=RKS/CANONICAL (state 1.1)
 Fock matrix read from record            2100.2  Type=RKS/TOTAL (state 1.1)
 Orbital energies read from record       2100.2  Type=RKS/CANONICAL (state 1.1)
 Density matrix read from record         2100.2  Type=RKS/CHARGE (state 1.1)

 Number of core orbitals:           3 (   3 )
 Number of closed-shell orbitals:  10 (  10 )

 Basis set MINAO-AUTO-PP generated.      Number of basis functions:   21 

 Polarized AO type:                A = (O Ot + (1-O)(1-Ot)) P12
 Orthogonalization method:         Symmetric (Loewdin)
 Localization functional:          L = sum[A,i] <i|n_A|i>^4 -> max

 Localization group 1:  13 orbitals, occupancy  2.000
 Iterative localization: IB/PM,    7 iter; Final gradient 0.94E-10

 Bond order analysis:       [THRPRINT= 0.020]

   CEN ATOM   CEN ATOM     WIBERG.BO      RENORM.BO
     1   O  -   2   C       1.000147       1.025023
     1   O  -   3   C       1.000147       1.025022
     1   O  -   8   H       0.037401       0.021978
     1   O  -   6   H       0.037401       0.021978
     1   O  -   9   H       0.037401       0.021978
     1   O  -   7   H       0.037401       0.021978

     2   C  -   1   O       1.000147       1.025023
     2   C  -   4   H       0.961790       0.976444
     2   C  -   8   H       0.948197       0.928858
     2   C  -   6   H       0.948197       0.928858

     3   C  -   1   O       1.000147       1.025022
     3   C  -   5   H       0.961792       0.976445
     3   C  -   9   H       0.948197       0.928858
     3   C  -   7   H       0.948197       0.928858

     4   H  -   2   C       0.961790       0.976444

     5   H  -   3   C       0.961792       0.976445

     6   H  -   2   C       0.948197       0.928858
     6   H  -   1   O       0.037401       0.021978

     7   H  -   3   C       0.948197       0.928858
     7   H  -   1   O       0.037401       0.021978

     8   H  -   2   C       0.948197       0.928858
     8   H  -   1   O       0.037401       0.021978

     9   H  -   3   C       0.948197       0.928858
     9   H  -   1   O       0.037401       0.021978


 Valency analysis:

   CEN ATOM   TOT.VALENCE
     1   O       2.161980
     2   C       3.878494
     3   C       3.878498
     4   H       0.982457
     5   H       0.982460
     6   H       0.991020
     7   H       0.991020
     8   H       0.991020
     9   H       0.991020

 Total charge composition:

   CEN ATOM         s          p       ELECTRONS ->P.CHARGE
     1   O       3.58850    4.75912      8.34763   -0.34763
     2   C       3.01187    3.13629      6.14816   -0.14816
     3   C       3.01186    3.13629      6.14815   -0.14815
     4   H       0.86755                 0.86755    0.13245
     5   H       0.86756                 0.86756    0.13244
     6   H       0.90524                 0.90524    0.09476
     7   H       0.90524                 0.90524    0.09476
     8   H       0.90524                 0.90524    0.09476
     9   H       0.90524                 0.90524    0.09476

 Total charge composition, AO contributions:

   CEN ATOM SHL      SPHERICAL COMPONENTS
     1   O  1s       1.99709
     1   O  2s       1.59141
     1   O  2p       1.51207    1.89105    1.35600

     2   C  1s       1.99194
     2   C  2s       1.01993
     2   C  2p       1.17071    1.15400    0.81158

     3   C  1s       1.99194
     3   C  2s       1.01993
     3   C  2p       0.86383    1.15400    1.11846

     4   H  1s       0.86755

     5   H  1s       0.86756

     6   H  1s       0.90524

     7   H  1s       0.90524

     8   H  1s       0.90524

     9   H  1s       0.90524

 Summary of localized orbital composition:   [THRPRINT= 0.020]

   ORB  GRP  ORB.ENERGY      CENTERS/CHARGES
     1   1   -18.596232      O  1   2.000
     2   1    -9.823823      C  3   2.000
     3   1    -9.823814      C  2   2.000
     4   1    -0.653145      O  1   1.247   C  2   0.744
     5   1    -0.653142      O  1   1.247   C  3   0.744
     6   1    -0.437155      O  1   1.959   (other: 0.041)
     7   1    -0.429520      C  3   1.115   H  7   0.883
     8   1    -0.429520      C  3   1.115   H  9   0.883
     9   1    -0.429513      C  2   1.115   H  8   0.883
    10   1    -0.429513      C  2   1.115   H  6   0.883
    11   1    -0.429496      C  3   1.133   H  5   0.860
    12   1    -0.429485      C  2   1.133   H  4   0.860
    13   1    -0.210607      O  1   1.891   C  2   0.023   C  3   0.023   (other: 0.064)

 Localized orbitals saved to record      2100.2  (orbital set 2)


 **********************************************************************************************************************************
 DATASETS  * FILE   NREC   LENGTH (MB)   RECORD NAMES
              1      20       43.53       500      610      700      900      950      970     1000      129      960     1100   
                                          VAR    BASINP    GEOM    SYMINP    ZMAT    AOBASIS   BASIS     P2S    ABASIS      S 
                                         1400     1410     1200     1210     1080     1600     1650     1300     1700     1800   
                                           T        V       H0       H01     AOSYM     SMH    MOLCAS    ERIS     OPER     GRID   

              2       5        3.04       700     1000      520     1800     2100   
                                         GEOM     BASIS   MCVARS    GRID      RKS  

 PROGRAMS   *        TOTAL      IBBA        KS       INT
 CPU TIMES  *         4.91      0.04      3.98      0.75
 REAL TIME  *         7.98 SEC
 DISK USED  *        82.64 MB      
 **********************************************************************************************************************************
 Molecular orbitals read from record     2100.2  Type=RKS/LOCAL(IBO)  
 Occupation numbers read from record     2100.2  Type=RKS/LOCAL(IBO)  
 Orbital energies read from record       2100.2  Type=RKS/LOCAL(IBO)  
 Redundancy group numbers read from rec  2100.2  Type=RKS/LOCAL(IBO)  

 IBBA/SVP energy=      0.000000000000

        KS-SCF  
   -153.98303499
 **********************************************************************************************************************************
 Molpro calculation terminated
