
 Primary working directories    : /tmp/sb13343
 Secondary working directories  : /tmp/sb13343
 Wavefunction directory         : /panfs/panasas01/chem/sb13343/wfu/
 Main file repository           : /tmp/sb13343/

 SHA1      : b4a5b34a9e711420743f49e6833241d17c61fb3c
 NAME      : 2099.9.b4a5b34
 ARCHNAME  : linux/x86_64_openmp
 FC        : /cm/shared/languages/GCC-6.1/bin/gfortran
 BLASLIB   : -lblas
 id        : simonbennie

 Nodes     nprocs
 node35-048    1

 Using customized tuning parameters: mindgm=1; mindgv=20; mindgc=4; mindgr=1; noblas=0; minvec=7
 default implementation of scratch files=df  

 memory,500,m
 geomtyp=xyz
 nosym
 noorient
 geometry={
 O          0.00000        0.00000        0.00000
 C          0.00000        0.00000        1.40986
 C          1.30431        0.00000       -0.53525
 H         -1.04418        0.00000        1.73410
 H          1.20786        0.00000       -1.62434
 H          0.50101        0.89295        1.81977
 H          1.87373        0.89295       -0.22737
 H          0.50101       -0.89295        1.81977
 H          1.87373       -0.89295       -0.22737
 }
 basis={ default,sto-3g }
 {uks,M08-HX,direct;wf,26,1,0}
 {ibba,bonds=1}

 Variables initialized (895), CPU time= 0.00 sec
 Commands  initialized (725), CPU time= 0.02 sec, 591 directives.
 Default parameters read. Elapsed time= 1.64 sec

 Checking input...
 Passed
1


                                         ***  PROGRAM SYSTEM MOLPRO  ***
                                       Copyright, TTI GmbH Stuttgart, 2015
                                    Version 2099.9 linked May 26 2017 16:03:21


 **********************************************************************************************************************************
 LABEL *                                                                                 
  64 bit serial version                                                                  DATE: 07-Jun-17          TIME: 16:31:49  
 **********************************************************************************************************************************

 SHA1:             b4a5b34a9e711420743f49e6833241d17c61fb3c
 **********************************************************************************************************************************
 SETTING GEOMTYP        =    XYZ

 Variable memory set to  500000000 words,  buffer space 

 ZSYMEL=NOSYM

 SETTING BASIS          =    STO-3G


 Recomputing integrals since basis changed


 Using spherical harmonics

 Library entry O      S STO-3G               selected for orbital group  1
 Library entry O      P STO-3G               selected for orbital group  1
 Library entry C      S STO-3G               selected for orbital group  2
 Library entry C      P STO-3G               selected for orbital group  2
 Library entry H      S STO-3G               selected for orbital group  3


 PROGRAM * SEWARD (Integral evaluation for generally contracted gaussian basis sets)     Author: Roland Lindh, 1990

 Geometry written to block  1 of record 700


 Point group  C1  



 ATOMIC COORDINATES

 NR  ATOM    CHARGE       X              Y              Z

   1  O       8.00    0.000000000    0.000000000    0.000000000
   2  C       6.00    0.000000000    0.000000000    2.664249274
   3  C       6.00    2.464788682    0.000000000   -1.011475908
   4  H       1.00   -1.973214225    0.000000000    3.276974073
   5  H       1.00    2.282524597    0.000000000   -3.069557733
   6  H       1.00    0.946771686    1.687430943    3.438866910
   7  H       1.00    3.540836531    1.687430943   -0.429667029
   8  H       1.00    0.946771686   -1.687430943    3.438866910
   9  H       1.00    3.540836531   -1.687430943   -0.429667029

 Bond lengths in Bohr (Angstrom)

 1-2  2.664249274  1-3  2.664257262  2-4  2.066157316  2-6  2.084186243  2-8  2.084186243
     ( 1.409860000)     ( 1.409864227)     ( 1.093363366)     ( 1.102903863)     ( 1.102903863)

 3-5  2.066136732  3-7  2.084179391  3-9  2.084179391
     ( 1.093352473)     ( 1.102900237)     ( 1.102900237)

 Bond angles

  1-2-4  107.25067522   1-2-6  111.81829608   1-2-8  111.81829608   1-3-5  107.25086594

  1-3-7  111.81797398   1-3-9  111.81797398   2-1-3  112.31178693   4-2-6  108.88149892

  4-2-8  108.88149892   5-3-7  108.88146655   5-3-9  108.88146655   6-2-8  108.12064679

  7-3-9  108.12116643

 NUCLEAR CHARGE:                   26
 NUMBER OF PRIMITIVE AOS:          63
 NUMBER OF SYMMETRY AOS:           63
 NUMBER OF CONTRACTIONS:           21   (  21A   )
 NUMBER OF CORE ORBITALS:           3   (   3A   )
 NUMBER OF VALENCE ORBITALS:       18   (  18A   )


 NUCLEAR REPULSION ENERGY   83.80024479


 Eigenvalues of metric

         1 0.234E+00 0.235E+00 0.359E+00 0.371E+00 0.377E+00 0.378E+00 0.398E+00 0.479E+00


 Contracted 2-electron integrals neglected if value below      1.0D-11
 AO integral compression algorithm  1   Integral accuracy      1.0D-11

     0.262 MB (compressed) written to integral file (100.0%)


 NUMBER OF SORTED TWO-ELECTRON INTEGRALS:      26796.     BUFFER LENGTH:  32768
 NUMBER OF SEGMENTS:   1  SEGMENT LENGTH:      26796      RECORD LENGTH: 524288

 Memory used in sort:       0.58 MW

 SORT1 READ       32133. AND WROTE       21402. INTEGRALS IN      1 RECORDS. CPU TIME:     0.00 SEC, REAL TIME:     0.01 SEC
 SORT2 READ       21402. AND WROTE       26796. INTEGRALS IN      1 RECORDS. CPU TIME:     0.01 SEC, REAL TIME:     0.01 SEC

 FILE SIZES:   FILE 1:    30.4 MBYTE,  FILE 4:     4.2 MBYTE,   TOTAL:     34.6 MBYTE

 OPERATOR DM      FOR CENTER  0  COORDINATES:    0.000000    0.000000    0.000000


 **********************************************************************************************************************************
 DATASETS  * FILE   NREC   LENGTH (MB)   RECORD NAMES
              1      19       30.21       500      610      700      900      950      970     1000      129      960     1100   
                                          VAR    BASINP    GEOM    SYMINP    ZMAT    AOBASIS   BASIS     P2S    ABASIS      S 
                                         1400     1410     1200     1210     1080     1600     1650     1300     1700   
                                           T        V       H0       H01     AOSYM     SMH    MOLCAS    ERIS     OPER   

 PROGRAMS   *        TOTAL       INT
 CPU TIMES  *         0.38      0.23
 REAL TIME  *         3.67 SEC
 DISK USED  *        34.99 MB      
 **********************************************************************************************************************************

 Density functional group M08-HX=XC-M08-HX
 Functional: XC-M08-HX(via MFM 1.6)                                            Gradient terms: 1
 Use grid at  1800.2


 Exact exchange will be calculated, factor:  0.5223

 Functional: XC-M08-HX                 Factor:  1.0000

 Generated new metagrid on record  1800.2 with target accuracy 1.0D-06 and 33732 points in CPU time    0.9
 Computed new grid on record 1800.1 in CPU time    1.0
   20895 words reserved for DFT integration

 PROGRAM * UKS-SCF (Unrestricted Kohn-Sham)     Authors: W. Meyer, H.-J. Werner, P.J. Knowles, 1993

 NUMBER OF ELECTRONS:      13+   13-    SPACE SYMMETRY=1    SPIN SYMMETRY: Singlet 
 CONVERGENCE THRESHOLDS:    1.00E-05 (Density)    1.00E-06 (Energy)
 MAX. NUMBER OF ITERATIONS:       60
 INTERPOLATION TYPE:            DIIS
 INTERPOLATION STEPS:              2 (START)      1 (STEP)
 LEVEL SHIFTS:                 -0.20 (ALPHA)  -0.20 (BETA) 



 Use fine grid record 1800.2 for energy threshold  1.0D-06
 Orbital guess generated from atomic densities. Full valence occupancy:   13

 Molecular orbital dump at record        2200.2

 Initial alpha occupation  13
 Initial beta  occupation  13

 ITERATION    DDIFF          GRAD             ENERGY        2-EL.EN.            DIPOLE MOMENTS         DIIS
    1      0.000D+00      0.000D+00      -152.87719258    301.695268    0.96615    0.00000    0.64740    0
    2      0.432D-01      0.170D-01      -152.97180312    296.041050    0.37779    0.00000    0.25077    1
    3      0.417D-02      0.189D-02      -152.97297126    295.904335    0.38655    0.00000    0.25648    2
    4      0.223D-02      0.643D-03      -152.97317144    295.885655    0.38068    0.00000    0.25250    3
    5      0.989D-03      0.222D-03      -152.97320100    295.882869    0.38111    0.00000    0.25279    4
    6      0.380D-03      0.647D-04      -152.97320447    295.883122    0.38094    0.00000    0.25269    5
    7      0.619D-04      0.102D-04      -152.97320455    295.883205    0.38090    0.00000    0.25267    5
    8      0.545D-05      0.132D-05      -152.97320455    295.883087    0.38089    0.00000    0.25266    6
    9      0.503D-06      0.165D-06      -152.97320455    295.883123    0.38089    0.00000    0.25267    5

 Final alpha occupancy:  13
 Final beta  occupancy:  13

 !UKS STATE 1.1 Energy               -152.973204554114
 Nuclear energy                        83.80024479
 One-electron energy                 -373.92086964
 Two-electron energy                  147.94156128
 Density functional                   -10.79414098     XC-M08-HX=-10.79414098
 Virial quotient                       -1.01552997
 !UKS STATE 1.1 Dipole moment           0.38088826     0.00000000     0.25266513
 Dipole moment /Debye                   0.96805799     0.00000000     0.64216865

 Orbital energies for positive spin:

         1.1          2.1          3.1          4.1          5.1          6.1          7.1          8.1          9.1         10.1
    -19.299027   -10.349398   -10.349056    -1.093617    -0.768996    -0.685894    -0.499263    -0.495650    -0.484210    -0.426926

        11.1         12.1         13.1         14.1         15.1
     -0.396794    -0.289761    -0.226624     0.388016     0.477844

 Orbital energies for negative spin:

         1.1          2.1          3.1          4.1          5.1          6.1          7.1          8.1          9.1         10.1
    -19.299027   -10.349398   -10.349056    -1.093617    -0.768996    -0.685894    -0.499263    -0.495650    -0.484210    -0.426926

        11.1         12.1         13.1         14.1         15.1
     -0.396794    -0.289761    -0.226624     0.388016     0.477844

 HOMO     13.1    -0.226624 =      -6.1667eV
 LUMO     14.1     0.388016 =      10.5585eV
 LUMO-HOMO         0.614640 =      16.7252eV

 EXPECTATION VALUE OF S**2:             0.00000000

 Natural orbitals saved to record    2200.2 (Orbital set 3)

 Orbital spaces for UNO-CAS (Min. occupation: 0.020  Max. occupation: 1.980):

 Closed:       13
 Active:        0


 **********************************************************************************************************************************
 DATASETS  * FILE   NREC   LENGTH (MB)   RECORD NAMES
              1      20       31.29       500      610      700      900      950      970     1000      129      960     1100   
                                          VAR    BASINP    GEOM    SYMINP    ZMAT    AOBASIS   BASIS     P2S    ABASIS      S 
                                         1400     1410     1200     1210     1080     1600     1650     1300     1700     1800   
                                           T        V       H0       H01     AOSYM     SMH    MOLCAS    ERIS     OPER     GRID   

              2       5        2.91       700     1000      520     1800     2200   
                                         GEOM     BASIS   MCVARS    GRID      UKS  

 PROGRAMS   *        TOTAL       UKS       INT
 CPU TIMES  *         4.93      4.55      0.23
 REAL TIME  *         8.93 SEC
 DISK USED  *        34.99 MB      
 **********************************************************************************************************************************


 PROGRAM * Intrinsic Basis Bonding Analysis (IBBA)          Author: G. Knizia

 Molecular orbitals read from record     2200.2  Type=UKS/ALPHA (state 1.1)
 Fock matrix read from record            2200.2  Type=UKS/TOTAL (state 1.1)
 Orbital energies read from record       2200.2  Type=UKS/ALPHA (state 1.1)
 Density matrix read from record         2200.2  Type=UKS/CHARGE (state 1.1)

 Number of core orbitals:           3 (   3 )
 Number of closed-shell orbitals:  10 (  10 )

 Basis set MINAO-AUTO-PP generated.      Number of basis functions:   21 

 Polarized AO type:                A = (O Ot + (1-O)(1-Ot)) P12
 Orthogonalization method:         Symmetric (Loewdin)
 Localization functional:          L = sum[A,i] <i|n_A|i>^4 -> max

 Localization group 1:  13 orbitals, occupancy  2.000
 Iterative localization: IB/PM,    7 iter; Final gradient 0.31E-09

 Bond order analysis:       [THRPRINT= 0.020]

   CEN ATOM   CEN ATOM     WIBERG.BO      RENORM.BO
     1   O  -   2   C       1.012399       1.013847
     1   O  -   3   C       1.012198       1.013832
     1   O  -   7   H       0.024708       0.014673
     1   O  -   9   H       0.024708       0.014673
     1   O  -   8   H       0.024650       0.014640
     1   O  -   6   H       0.024650       0.014640

     2   C  -   1   O       1.012399       1.013847
     2   C  -   8   H       0.958671       0.955878
     2   C  -   6   H       0.958671       0.955878
     2   C  -   4   H       0.958476       0.977348

     3   C  -   1   O       1.012198       1.013832
     3   C  -   9   H       0.958626       0.955783
     3   C  -   7   H       0.958626       0.955783
     3   C  -   5   H       0.958362       0.977495

     4   H  -   2   C       0.958476       0.977348

     5   H  -   3   C       0.958362       0.977495

     6   H  -   2   C       0.958671       0.955878
     6   H  -   1   O       0.024650       0.014640

     7   H  -   3   C       0.958626       0.955783
     7   H  -   1   O       0.024708       0.014673

     8   H  -   2   C       0.958671       0.955878
     8   H  -   1   O       0.024650       0.014640

     9   H  -   3   C       0.958626       0.955783
     9   H  -   1   O       0.024708       0.014673


 Valency analysis:

   CEN ATOM   TOT.VALENCE
     1   O       2.135242
     2   C       3.906105
     3   C       3.905753
     4   H       0.980527
     5   H       0.980361
     6   H       0.986822
     7   H       0.986846
     8   H       0.986822
     9   H       0.986846

 Total charge composition:

   CEN ATOM         s          p       ELECTRONS ->P.CHARGE
     1   O       3.64057    4.58045      8.22102   -0.22102
     2   C       3.00484    3.25401      6.25885   -0.25885
     3   C       3.00467    3.25411      6.25877   -0.25877
     4   H       0.86045                 0.86045    0.13955
     5   H       0.85986                 0.85986    0.14014
     6   H       0.88521                 0.88521    0.11479
     7   H       0.88531                 0.88531    0.11469
     8   H       0.88521                 0.88521    0.11479
     9   H       0.88531                 0.88531    0.11469

 Total charge composition, AO contributions:

   CEN ATOM SHL      SPHERICAL COMPONENTS
     1   O  1s       1.99721
     1   O  2s       1.64336
     1   O  2p       1.39878    1.92805    1.25362

     2   C  1s       1.99227
     2   C  2s       1.01257
     2   C  2p       1.18649    1.17230    0.89521

     3   C  1s       1.99227
     3   C  2s       1.01240
     3   C  2p       0.93676    1.17237    1.14499

     4   H  1s       0.86045

     5   H  1s       0.85986

     6   H  1s       0.88521

     7   H  1s       0.88531

     8   H  1s       0.88521

     9   H  1s       0.88531

 Summary of localized orbital composition:   [THRPRINT= 0.020]

   ORB  GRP  ORB.ENERGY      CENTERS/CHARGES
     1   1   -19.120942      O  1   2.000
     2   1   -10.239012      C  3   2.000
     3   1   -10.238847      C  2   2.000
     4   1    -0.750089      O  1   1.156   C  3   0.835
     5   1    -0.749833      O  1   1.156   C  2   0.836
     6   1    -0.626597      O  1   1.976   (other: 0.024)
     7   1    -0.561932      C  3   1.141   H  5   0.851
     8   1    -0.561306      C  2   1.141   H  4   0.852
     9   1    -0.560493      C  3   1.128   H  7   0.871
    10   1    -0.560493      C  3   1.128   H  9   0.871
    11   1    -0.560431      C  2   1.128   H  6   0.870
    12   1    -0.560431      C  2   1.128   H  8   0.870
    13   1    -0.274800      O  1   1.928   (other: 0.072)

 Localized orbitals saved to record      2200.2  (orbital set 4)


 **********************************************************************************************************************************
 DATASETS  * FILE   NREC   LENGTH (MB)   RECORD NAMES
              1      20       31.29       500      610      700      900      950      970     1000      129      960     1100   
                                          VAR    BASINP    GEOM    SYMINP    ZMAT    AOBASIS   BASIS     P2S    ABASIS      S 
                                         1400     1410     1200     1210     1080     1600     1650     1300     1700     1800   
                                           T        V       H0       H01     AOSYM     SMH    MOLCAS    ERIS     OPER     GRID   

              2       5        2.92       700     1000      520     1800     2200   
                                         GEOM     BASIS   MCVARS    GRID      UKS  

 PROGRAMS   *        TOTAL      IBBA       UKS       INT
 CPU TIMES  *         4.95      0.02      4.55      0.23
 REAL TIME  *         9.02 SEC
 DISK USED  *        34.99 MB      
 **********************************************************************************************************************************
 Molecular orbitals read from record     2200.2  Type=UKS/LOCAL(IBO)  
 Occupation numbers read from record     2200.2  Type=UKS/LOCAL(IBO)  
 Orbital energies read from record       2200.2  Type=UKS/LOCAL(IBO)  
 Redundancy group numbers read from rec  2200.2  Type=UKS/BETA (state 1.1)

 IBBA/STO-3G energy=      0.000000000000

        UKS-SCF 
   -152.97320455
 **********************************************************************************************************************************
 Molpro calculation terminated
