
 Primary working directories    : /tmp/sb13343
 Secondary working directories  : /tmp/sb13343
 Wavefunction directory         : /panfs/panasas01/chem/sb13343/wfu/
 Main file repository           : /tmp/sb13343/

 SHA1      : b4a5b34a9e711420743f49e6833241d17c61fb3c
 NAME      : 2099.9.b4a5b34
 ARCHNAME  : linux/x86_64_openmp
 FC        : /cm/shared/languages/GCC-6.1/bin/gfortran
 BLASLIB   : -lblas
 id        : simonbennie

 Nodes     nprocs
 node32-019    1

 Using customized tuning parameters: mindgm=1; mindgv=20; mindgc=4; mindgr=1; noblas=0; minvec=7
 default implementation of scratch files=df  

 memory,500,m
 geomtyp=xyz
 nosym
 noorient
 geometry={
 O          0.00000        0.00000        0.00000
 C          0.00000        0.00000        1.40986
 C          1.30431        0.00000       -0.53525
 H         -1.04418        0.00000        1.73410
 H          1.20786        0.00000       -1.62434
 H          0.50101        0.89295        1.81977
 H          1.87373        0.89295       -0.22737
 H          0.50101       -0.89295        1.81977
 H          1.87373       -0.89295       -0.22737
 }
 basis={ default,sto-3g }
 {uks,B97,direct;wf,26,1,0}
 {ibba,bonds=1}

 Variables initialized (895), CPU time= 0.00 sec
 Commands  initialized (725), CPU time= 0.02 sec, 591 directives.
 Default parameters read. Elapsed time= 1.28 sec

 Checking input...
 Passed
1


                                         ***  PROGRAM SYSTEM MOLPRO  ***
                                       Copyright, TTI GmbH Stuttgart, 2015
                                    Version 2099.9 linked May 26 2017 16:03:21


 **********************************************************************************************************************************
 LABEL *                                                                                 
  64 bit serial version                                                                  DATE: 07-Jun-17          TIME: 16:17:56  
 **********************************************************************************************************************************

 SHA1:             b4a5b34a9e711420743f49e6833241d17c61fb3c
 **********************************************************************************************************************************
 SETTING GEOMTYP        =    XYZ

 Variable memory set to  500000000 words,  buffer space 

 ZSYMEL=NOSYM

 SETTING BASIS          =    STO-3G


 Recomputing integrals since basis changed


 Using spherical harmonics

 Library entry O      S STO-3G               selected for orbital group  1
 Library entry O      P STO-3G               selected for orbital group  1
 Library entry C      S STO-3G               selected for orbital group  2
 Library entry C      P STO-3G               selected for orbital group  2
 Library entry H      S STO-3G               selected for orbital group  3


 PROGRAM * SEWARD (Integral evaluation for generally contracted gaussian basis sets)     Author: Roland Lindh, 1990

 Geometry written to block  1 of record 700


 Point group  C1  



 ATOMIC COORDINATES

 NR  ATOM    CHARGE       X              Y              Z

   1  O       8.00    0.000000000    0.000000000    0.000000000
   2  C       6.00    0.000000000    0.000000000    2.664249274
   3  C       6.00    2.464788682    0.000000000   -1.011475908
   4  H       1.00   -1.973214225    0.000000000    3.276974073
   5  H       1.00    2.282524597    0.000000000   -3.069557733
   6  H       1.00    0.946771686    1.687430943    3.438866910
   7  H       1.00    3.540836531    1.687430943   -0.429667029
   8  H       1.00    0.946771686   -1.687430943    3.438866910
   9  H       1.00    3.540836531   -1.687430943   -0.429667029

 Bond lengths in Bohr (Angstrom)

 1-2  2.664249274  1-3  2.664257262  2-4  2.066157316  2-6  2.084186243  2-8  2.084186243
     ( 1.409860000)     ( 1.409864227)     ( 1.093363366)     ( 1.102903863)     ( 1.102903863)

 3-5  2.066136732  3-7  2.084179391  3-9  2.084179391
     ( 1.093352473)     ( 1.102900237)     ( 1.102900237)

 Bond angles

  1-2-4  107.25067522   1-2-6  111.81829608   1-2-8  111.81829608   1-3-5  107.25086594

  1-3-7  111.81797398   1-3-9  111.81797398   2-1-3  112.31178693   4-2-6  108.88149892

  4-2-8  108.88149892   5-3-7  108.88146655   5-3-9  108.88146655   6-2-8  108.12064679

  7-3-9  108.12116643

 NUCLEAR CHARGE:                   26
 NUMBER OF PRIMITIVE AOS:          63
 NUMBER OF SYMMETRY AOS:           63
 NUMBER OF CONTRACTIONS:           21   (  21A   )
 NUMBER OF CORE ORBITALS:           3   (   3A   )
 NUMBER OF VALENCE ORBITALS:       18   (  18A   )


 NUCLEAR REPULSION ENERGY   83.80024479


 Eigenvalues of metric

         1 0.234E+00 0.235E+00 0.359E+00 0.371E+00 0.377E+00 0.378E+00 0.398E+00 0.479E+00


 Contracted 2-electron integrals neglected if value below      1.0D-11
 AO integral compression algorithm  1   Integral accuracy      1.0D-11

     0.262 MB (compressed) written to integral file (100.0%)


 NUMBER OF SORTED TWO-ELECTRON INTEGRALS:      26796.     BUFFER LENGTH:  32768
 NUMBER OF SEGMENTS:   1  SEGMENT LENGTH:      26796      RECORD LENGTH: 524288

 Memory used in sort:       0.58 MW

 SORT1 READ       32133. AND WROTE       21402. INTEGRALS IN      1 RECORDS. CPU TIME:     0.00 SEC, REAL TIME:     0.00 SEC
 SORT2 READ       21402. AND WROTE       26796. INTEGRALS IN      1 RECORDS. CPU TIME:     0.00 SEC, REAL TIME:     0.01 SEC

 FILE SIZES:   FILE 1:    30.4 MBYTE,  FILE 4:     4.2 MBYTE,   TOTAL:     34.6 MBYTE

 OPERATOR DM      FOR CENTER  0  COORDINATES:    0.000000    0.000000    0.000000


 **********************************************************************************************************************************
 DATASETS  * FILE   NREC   LENGTH (MB)   RECORD NAMES
              1      19       30.21       500      610      700      900      950      970     1000      129      960     1100   
                                          VAR    BASINP    GEOM    SYMINP    ZMAT    AOBASIS   BASIS     P2S    ABASIS      S 
                                         1400     1410     1200     1210     1080     1600     1650     1300     1700   
                                           T        V       H0       H01     AOSYM     SMH    MOLCAS    ERIS     OPER   

 PROGRAMS   *        TOTAL       INT
 CPU TIMES  *         0.39      0.25
 REAL TIME  *         1.94 SEC
 DISK USED  *        34.99 MB      
 **********************************************************************************************************************************

 Density functional group B97=B97DF
 Functional: B97DF(Automatically generated (new) B97DF)                        Gradient terms: 1
 Use grid at  1800.2


 Exact exchange will be calculated, factor:  0.1943

 Functional: B97DF                     Factor:  1.0000

 Generated new metagrid on record  1800.2 with target accuracy 1.0D-06 and 33732 points in CPU time    1.0
 Computed new grid on record 1800.1 in CPU time    1.0
   20895 words reserved for DFT integration

 PROGRAM * UKS-SCF (Unrestricted Kohn-Sham)     Authors: W. Meyer, H.-J. Werner, P.J. Knowles, 1993

 NUMBER OF ELECTRONS:      13+   13-    SPACE SYMMETRY=1    SPIN SYMMETRY: Singlet 
 CONVERGENCE THRESHOLDS:    1.00E-05 (Density)    1.00E-06 (Energy)
 MAX. NUMBER OF ITERATIONS:       60
 INTERPOLATION TYPE:            DIIS
 INTERPOLATION STEPS:              2 (START)      1 (STEP)
 LEVEL SHIFTS:                 -0.20 (ALPHA)  -0.20 (BETA) 



 Use fine grid record 1800.2 for energy threshold  1.0D-06
 Orbital guess generated from atomic densities. Full valence occupancy:   13

 Molecular orbital dump at record        2200.2

 Initial alpha occupation  13
 Initial beta  occupation  13

 ITERATION    DDIFF          GRAD             ENERGY        2-EL.EN.            DIPOLE MOMENTS         DIIS
    1      0.000D+00      0.000D+00      -152.88356875    316.354968    0.99265    0.00000    0.66554    0
    2      0.536D-01      0.186D-01      -152.99766736    309.046132    0.28384    0.00000    0.19037    1
    3      0.510D-02      0.252D-02      -152.99931745    309.519963    0.36443    0.00000    0.24435    2
    4      0.162D-02      0.497D-03      -152.99942002    309.510691    0.35693    0.00000    0.23931    3
    5      0.683D-03      0.182D-03      -152.99943571    309.505769    0.35819    0.00000    0.24016    4
    6      0.227D-03      0.395D-04      -152.99943699    309.505555    0.35800    0.00000    0.24003    5
    7      0.446D-04      0.698D-05      -152.99943703    309.505540    0.35799    0.00000    0.24002    5
    8      0.404D-05      0.748D-06      -152.99943703    309.505635    0.35799    0.00000    0.24002    5
    9      0.362D-06      0.103D-06      -152.99943703    309.505601    0.35799    0.00000    0.24002    5

 Final alpha occupancy:  13
 Final beta  occupancy:  13

 !UKS STATE 1.1 Energy               -152.999437032552
 Nuclear energy                        83.80024479
 One-electron energy                 -373.90247227
 Two-electron energy                  154.75280057
 Density functional                   -17.65001011     B97DF=-17.65001011
 Virial quotient                       -1.01569853
 !UKS STATE 1.1 Dipole moment           0.35799195     0.00000000     0.24002068
 Dipole moment /Debye                   0.90986518     0.00000000     0.61003176

 Orbital energies for positive spin:

         1.1          2.1          3.1          4.1          5.1          6.1          7.1          8.1          9.1         10.1
    -18.867786   -10.036951   -10.036652    -0.973337    -0.677772    -0.597470    -0.422303    -0.421187    -0.417955    -0.360499

        11.1         12.1         13.1         14.1         15.1
     -0.335085    -0.209720    -0.135961     0.315280     0.401064

 Orbital energies for negative spin:

         1.1          2.1          3.1          4.1          5.1          6.1          7.1          8.1          9.1         10.1
    -18.867786   -10.036951   -10.036652    -0.973337    -0.677772    -0.597470    -0.422303    -0.421187    -0.417955    -0.360499

        11.1         12.1         13.1         14.1         15.1
     -0.335085    -0.209720    -0.135961     0.315280     0.401064

 HOMO     13.1    -0.135961 =      -3.6997eV
 LUMO     14.1     0.315280 =       8.5792eV
 LUMO-HOMO         0.451240 =      12.2789eV

 EXPECTATION VALUE OF S**2:             0.00000000

 Natural orbitals saved to record    2200.2 (Orbital set 3)

 Orbital spaces for UNO-CAS (Min. occupation: 0.020  Max. occupation: 1.980):

 Closed:       13
 Active:        0


 **********************************************************************************************************************************
 DATASETS  * FILE   NREC   LENGTH (MB)   RECORD NAMES
              1      20       31.29       500      610      700      900      950      970     1000      129      960     1100   
                                          VAR    BASINP    GEOM    SYMINP    ZMAT    AOBASIS   BASIS     P2S    ABASIS      S 
                                         1400     1410     1200     1210     1080     1600     1650     1300     1700     1800   
                                           T        V       H0       H01     AOSYM     SMH    MOLCAS    ERIS     OPER     GRID   

              2       5        2.91       700     1000      520     1800     2200   
                                         GEOM     BASIS   MCVARS    GRID      UKS  

 PROGRAMS   *        TOTAL       UKS       INT
 CPU TIMES  *         3.02      2.63      0.25
 REAL TIME  *         4.89 SEC
 DISK USED  *        34.99 MB      
 **********************************************************************************************************************************


 PROGRAM * Intrinsic Basis Bonding Analysis (IBBA)          Author: G. Knizia

 Molecular orbitals read from record     2200.2  Type=UKS/ALPHA (state 1.1)
 Fock matrix read from record            2200.2  Type=UKS/TOTAL (state 1.1)
 Orbital energies read from record       2200.2  Type=UKS/ALPHA (state 1.1)
 Density matrix read from record         2200.2  Type=UKS/CHARGE (state 1.1)

 Number of core orbitals:           3 (   3 )
 Number of closed-shell orbitals:  10 (  10 )

 Basis set MINAO-AUTO-PP generated.      Number of basis functions:   21 

 Polarized AO type:                A = (O Ot + (1-O)(1-Ot)) P12
 Orthogonalization method:         Symmetric (Loewdin)
 Localization functional:          L = sum[A,i] <i|n_A|i>^4 -> max

 Localization group 1:  13 orbitals, occupancy  2.000
 Iterative localization: IB/PM,    7 iter; Final gradient 0.29E-08

 Bond order analysis:       [THRPRINT= 0.020]

   CEN ATOM   CEN ATOM     WIBERG.BO      RENORM.BO
     1   O  -   2   C       1.017165       1.017214
     1   O  -   3   C       1.017156       1.017212
     1   O  -   8   H       0.029312       0.017466
     1   O  -   6   H       0.029312       0.017466
     1   O  -   9   H       0.029309       0.017464
     1   O  -   7   H       0.029309       0.017464

     2   C  -   1   O       1.017165       1.017214
     2   C  -   4   H       0.956995       0.974946
     2   C  -   8   H       0.954149       0.947125
     2   C  -   6   H       0.954149       0.947125

     3   C  -   1   O       1.017156       1.017212
     3   C  -   5   H       0.956994       0.974945
     3   C  -   9   H       0.954151       0.947130
     3   C  -   7   H       0.954151       0.947130

     4   H  -   2   C       0.956995       0.974946

     5   H  -   3   C       0.956994       0.974945

     6   H  -   2   C       0.954149       0.947125
     6   H  -   1   O       0.029312       0.017466

     7   H  -   3   C       0.954151       0.947130
     7   H  -   1   O       0.029309       0.017464

     8   H  -   2   C       0.954149       0.947125
     8   H  -   1   O       0.029312       0.017466

     9   H  -   3   C       0.954151       0.947130
     9   H  -   1   O       0.029309       0.017464


 Valency analysis:

   CEN ATOM   TOT.VALENCE
     1   O       2.165455
     2   C       3.901508
     3   C       3.901500
     4   H       0.980548
     5   H       0.980546
     6   H       0.987235
     7   H       0.987233
     8   H       0.987235
     9   H       0.987233

 Total charge composition:

   CEN ATOM         s          p       ELECTRONS ->P.CHARGE
     1   O       3.64873    4.57175      8.22048   -0.22048
     2   C       3.00851    3.24669      6.25521   -0.25521
     3   C       3.00851    3.24670      6.25521   -0.25521
     4   H       0.86053                 0.86053    0.13947
     5   H       0.86052                 0.86052    0.13948
     6   H       0.88702                 0.88702    0.11298
     7   H       0.88701                 0.88701    0.11299
     8   H       0.88702                 0.88702    0.11298
     9   H       0.88701                 0.88701    0.11299

 Total charge composition, AO contributions:

   CEN ATOM SHL      SPHERICAL COMPONENTS
     1   O  1s       1.99721
     1   O  2s       1.65152
     1   O  2p       1.39891    1.91243    1.26041

     2   C  1s       1.99237
     2   C  2s       1.01614
     2   C  2p       1.18668    1.17456    0.88545

     3   C  1s       1.99237
     3   C  2s       1.01614
     3   C  2p       0.92861    1.17456    1.14353

     4   H  1s       0.86053

     5   H  1s       0.86052

     6   H  1s       0.88702

     7   H  1s       0.88701

     8   H  1s       0.88702

     9   H  1s       0.88701

 Summary of localized orbital composition:   [THRPRINT= 0.020]

   ORB  GRP  ORB.ENERGY      CENTERS/CHARGES
     1   1   -18.699762      O  1   2.000
     2   1    -9.929202      C  3   2.000
     3   1    -9.929201      C  2   2.000
     4   1    -0.664830      O  1   1.165   C  3   0.825
     5   1    -0.664816      O  1   1.165   C  2   0.825
     6   1    -0.508722      O  1   1.972   (other: 0.028)
     7   1    -0.488490      C  3   1.141   H  5   0.851
     8   1    -0.488486      C  2   1.141   H  4   0.851
     9   1    -0.486385      C  3   1.129   H  9   0.869
    10   1    -0.486385      C  3   1.129   H  7   0.869
    11   1    -0.486378      C  2   1.129   H  6   0.869
    12   1    -0.486378      C  2   1.129   H  8   0.869
    13   1    -0.173649      O  1   1.912   (other: 0.088)

 Localized orbitals saved to record      2200.2  (orbital set 4)


 **********************************************************************************************************************************
 DATASETS  * FILE   NREC   LENGTH (MB)   RECORD NAMES
              1      20       31.29       500      610      700      900      950      970     1000      129      960     1100   
                                          VAR    BASINP    GEOM    SYMINP    ZMAT    AOBASIS   BASIS     P2S    ABASIS      S 
                                         1400     1410     1200     1210     1080     1600     1650     1300     1700     1800   
                                           T        V       H0       H01     AOSYM     SMH    MOLCAS    ERIS     OPER     GRID   

              2       5        2.92       700     1000      520     1800     2200   
                                         GEOM     BASIS   MCVARS    GRID      UKS  

 PROGRAMS   *        TOTAL      IBBA       UKS       INT
 CPU TIMES  *         3.04      0.02      2.63      0.25
 REAL TIME  *         4.98 SEC
 DISK USED  *        34.99 MB      
 **********************************************************************************************************************************
 Molecular orbitals read from record     2200.2  Type=UKS/LOCAL(IBO)  
 Occupation numbers read from record     2200.2  Type=UKS/LOCAL(IBO)  
 Orbital energies read from record       2200.2  Type=UKS/LOCAL(IBO)  
 Redundancy group numbers read from rec  2200.2  Type=UKS/BETA (state 1.1)

 IBBA/STO-3G energy=      0.000000000000

        UKS-SCF 
   -152.99943703
 **********************************************************************************************************************************
 Molpro calculation terminated
