
 Primary working directories    : /tmp/sb13343
 Secondary working directories  : /tmp/sb13343
 Wavefunction directory         : /panfs/panasas01/chem/sb13343/wfu/
 Main file repository           : /tmp/sb13343/

 SHA1      : b4a5b34a9e711420743f49e6833241d17c61fb3c
 NAME      : 2099.9.b4a5b34
 ARCHNAME  : linux/x86_64_openmp
 FC        : /cm/shared/languages/GCC-6.1/bin/gfortran
 BLASLIB   : -lblas
 id        : simonbennie

 Nodes     nprocs
 node32-014    1

 Using customized tuning parameters: mindgm=1; mindgv=20; mindgc=4; mindgr=1; noblas=0; minvec=7
 default implementation of scratch files=df  

 memory,500,m
 geomtyp=xyz
 nosym
 noorient
 geometry={
 O          0.00000        0.00000        0.00000
 C          0.00000        0.00000        1.40986
 C          1.30431        0.00000       -0.53525
 H         -1.04418        0.00000        1.73410
 H          1.20786        0.00000       -1.62434
 H          0.50101        0.89295        1.81977
 H          1.87373        0.89295       -0.22737
 H          0.50101       -0.89295        1.81977
 H          1.87373       -0.89295       -0.22737
 }
 basis={ default,sto-3g }
 {uks,PW91,direct;wf,26,1,0}
 {ibba,bonds=1}

 Variables initialized (895), CPU time= 0.00 sec
 Commands  initialized (725), CPU time= 0.01 sec, 591 directives.
 Default parameters read. Elapsed time= 1.46 sec

 Checking input...
 Passed
1


                                         ***  PROGRAM SYSTEM MOLPRO  ***
                                       Copyright, TTI GmbH Stuttgart, 2015
                                    Version 2099.9 linked May 26 2017 16:03:21


 **********************************************************************************************************************************
 LABEL *                                                                                 
  64 bit serial version                                                                  DATE: 07-Jun-17          TIME: 16:27:33  
 **********************************************************************************************************************************

 SHA1:             b4a5b34a9e711420743f49e6833241d17c61fb3c
 **********************************************************************************************************************************
 SETTING GEOMTYP        =    XYZ

 Variable memory set to  500000000 words,  buffer space 

 ZSYMEL=NOSYM

 SETTING BASIS          =    STO-3G


 Recomputing integrals since basis changed


 Using spherical harmonics

 Library entry O      S STO-3G               selected for orbital group  1
 Library entry O      P STO-3G               selected for orbital group  1
 Library entry C      S STO-3G               selected for orbital group  2
 Library entry C      P STO-3G               selected for orbital group  2
 Library entry H      S STO-3G               selected for orbital group  3


 PROGRAM * SEWARD (Integral evaluation for generally contracted gaussian basis sets)     Author: Roland Lindh, 1990

 Geometry written to block  1 of record 700


 Point group  C1  



 ATOMIC COORDINATES

 NR  ATOM    CHARGE       X              Y              Z

   1  O       8.00    0.000000000    0.000000000    0.000000000
   2  C       6.00    0.000000000    0.000000000    2.664249274
   3  C       6.00    2.464788682    0.000000000   -1.011475908
   4  H       1.00   -1.973214225    0.000000000    3.276974073
   5  H       1.00    2.282524597    0.000000000   -3.069557733
   6  H       1.00    0.946771686    1.687430943    3.438866910
   7  H       1.00    3.540836531    1.687430943   -0.429667029
   8  H       1.00    0.946771686   -1.687430943    3.438866910
   9  H       1.00    3.540836531   -1.687430943   -0.429667029

 Bond lengths in Bohr (Angstrom)

 1-2  2.664249274  1-3  2.664257262  2-4  2.066157316  2-6  2.084186243  2-8  2.084186243
     ( 1.409860000)     ( 1.409864227)     ( 1.093363366)     ( 1.102903863)     ( 1.102903863)

 3-5  2.066136732  3-7  2.084179391  3-9  2.084179391
     ( 1.093352473)     ( 1.102900237)     ( 1.102900237)

 Bond angles

  1-2-4  107.25067522   1-2-6  111.81829608   1-2-8  111.81829608   1-3-5  107.25086594

  1-3-7  111.81797398   1-3-9  111.81797398   2-1-3  112.31178693   4-2-6  108.88149892

  4-2-8  108.88149892   5-3-7  108.88146655   5-3-9  108.88146655   6-2-8  108.12064679

  7-3-9  108.12116643

 NUCLEAR CHARGE:                   26
 NUMBER OF PRIMITIVE AOS:          63
 NUMBER OF SYMMETRY AOS:           63
 NUMBER OF CONTRACTIONS:           21   (  21A   )
 NUMBER OF CORE ORBITALS:           3   (   3A   )
 NUMBER OF VALENCE ORBITALS:       18   (  18A   )


 NUCLEAR REPULSION ENERGY   83.80024479


 Eigenvalues of metric

         1 0.234E+00 0.235E+00 0.359E+00 0.371E+00 0.377E+00 0.378E+00 0.398E+00 0.479E+00


 Contracted 2-electron integrals neglected if value below      1.0D-11
 AO integral compression algorithm  1   Integral accuracy      1.0D-11

     0.262 MB (compressed) written to integral file (100.0%)


 NUMBER OF SORTED TWO-ELECTRON INTEGRALS:      26796.     BUFFER LENGTH:  32768
 NUMBER OF SEGMENTS:   1  SEGMENT LENGTH:      26796      RECORD LENGTH: 524288

 Memory used in sort:       0.58 MW

 SORT1 READ       32133. AND WROTE       21402. INTEGRALS IN      1 RECORDS. CPU TIME:     0.01 SEC, REAL TIME:     0.00 SEC
 SORT2 READ       21402. AND WROTE       26796. INTEGRALS IN      1 RECORDS. CPU TIME:     0.00 SEC, REAL TIME:     0.01 SEC

 FILE SIZES:   FILE 1:    30.4 MBYTE,  FILE 4:     4.2 MBYTE,   TOTAL:     34.6 MBYTE

 OPERATOR DM      FOR CENTER  0  COORDINATES:    0.000000    0.000000    0.000000


 **********************************************************************************************************************************
 DATASETS  * FILE   NREC   LENGTH (MB)   RECORD NAMES
              1      19       30.21       500      610      700      900      950      970     1000      129      960     1100   
                                          VAR    BASINP    GEOM    SYMINP    ZMAT    AOBASIS   BASIS     P2S    ABASIS      S 
                                         1400     1410     1200     1210     1080     1600     1650     1300     1700   
                                           T        V       H0       H01     AOSYM     SMH    MOLCAS    ERIS     OPER   

 PROGRAMS   *        TOTAL       INT
 CPU TIMES  *         0.36      0.22
 REAL TIME  *         2.37 SEC
 DISK USED  *        34.99 MB      
 **********************************************************************************************************************************

 Density functional group PW91=PW91X+PW91C
 Functional: PW91X(Automatically generated (new) PW91X)                        Gradient terms: 1
 Functional: PW91C(Automatically generated (new) PW91C)                        Gradient terms: 1
 Use grid at  1800.2

 Functional: PW91X                     Factor:  1.0000
 Functional: PW91C                     Factor:  1.0000

 Generated new metagrid on record  1800.2 with target accuracy 1.0D-06 and 33732 points in CPU time    0.9
 Computed new grid on record 1800.1 in CPU time    1.0
   20895 words reserved for DFT integration

 PROGRAM * UKS-SCF (Unrestricted Kohn-Sham)     Authors: W. Meyer, H.-J. Werner, P.J. Knowles, 1993

 NUMBER OF ELECTRONS:      13+   13-    SPACE SYMMETRY=1    SPIN SYMMETRY: Singlet 
 CONVERGENCE THRESHOLDS:    1.00E-05 (Density)    1.00E-06 (Energy)
 MAX. NUMBER OF ITERATIONS:       60
 INTERPOLATION TYPE:            DIIS
 INTERPOLATION STEPS:              2 (START)      1 (STEP)
 LEVEL SHIFTS:                 -0.20 (ALPHA)  -0.20 (BETA) 



 Use fine grid record 1800.2 for energy threshold  1.0D-06
 Orbital guess generated from atomic densities. Full valence occupancy:   13

 Molecular orbital dump at record        2200.2

 Initial alpha occupation  13
 Initial beta  occupation  13

 ITERATION    DDIFF          GRAD             ENERGY        2-EL.EN.            DIPOLE MOMENTS         DIIS
    1      0.000D+00      0.000D+00      -152.82496176    325.161109    0.98861    0.00000    0.66288    0
    2      0.632D-01      0.199D-01      -152.95177602    316.386409    0.19441    0.00000    0.13031    1
    3      0.959D-02      0.425D-02      -152.95680447    317.655826    0.34782    0.00000    0.23322    2
    4      0.157D-02      0.534D-03      -152.95691203    317.649011    0.33699    0.00000    0.22596    3
    5      0.741D-03      0.206D-03      -152.95693288    317.641051    0.33782    0.00000    0.22653    4
    6      0.227D-03      0.428D-04      -152.95693430    317.640458    0.33749    0.00000    0.22630    5
    7      0.263D-04      0.497D-05      -152.95693431    317.640703    0.33751    0.00000    0.22632    5
    8      0.183D-05      0.377D-06      -152.95693431    317.640714    0.33751    0.00000    0.22631    5
    9      0.367D-06      0.754D-07      -152.95693431    317.640729    0.33751    0.00000    0.22632    4

 Final alpha occupancy:  13
 Final beta  occupancy:  13

 !UKS STATE 1.1 Energy               -152.956934313996
 Nuclear energy                        83.80024479
 One-electron energy                 -373.92878831
 Two-electron energy                  158.82036451
 Density functional                   -21.64875530     PW91X=-20.72462387 PW91C= -0.92413143
 Virial quotient                       -1.01564302
 !UKS STATE 1.1 Dipole moment           0.33751360     0.00000000     0.22631699
 Dipole moment /Debye                   0.85781782     0.00000000     0.57520273

 Orbital energies for positive spin:

         1.1          2.1          3.1          4.1          5.1          6.1          7.1          8.1          9.1         10.1
    -18.529778    -9.769534    -9.769216    -0.886854    -0.611638    -0.534153    -0.373325    -0.372912    -0.369731    -0.314586

        11.1         12.1         13.1         14.1         15.1
     -0.292299    -0.160118    -0.082060     0.258620     0.343801

 Orbital energies for negative spin:

         1.1          2.1          3.1          4.1          5.1          6.1          7.1          8.1          9.1         10.1
    -18.529778    -9.769534    -9.769216    -0.886854    -0.611638    -0.534153    -0.373325    -0.372912    -0.369731    -0.314586

        11.1         12.1         13.1         14.1         15.1
     -0.292299    -0.160118    -0.082060     0.258620     0.343801

 HOMO     13.1    -0.082060 =      -2.2330eV
 LUMO     14.1     0.258620 =       7.0374eV
 LUMO-HOMO         0.340680 =       9.2704eV

 EXPECTATION VALUE OF S**2:             0.00000000

 Natural orbitals saved to record    2200.2 (Orbital set 3)

 Orbital spaces for UNO-CAS (Min. occupation: 0.020  Max. occupation: 1.980):

 Closed:       13
 Active:        0


 **********************************************************************************************************************************
 DATASETS  * FILE   NREC   LENGTH (MB)   RECORD NAMES
              1      20       31.29       500      610      700      900      950      970     1000      129      960     1100   
                                          VAR    BASINP    GEOM    SYMINP    ZMAT    AOBASIS   BASIS     P2S    ABASIS      S 
                                         1400     1410     1200     1210     1080     1600     1650     1300     1700     1800   
                                           T        V       H0       H01     AOSYM     SMH    MOLCAS    ERIS     OPER     GRID   

              2       5        2.91       700     1000      520     1800     2200   
                                         GEOM     BASIS   MCVARS    GRID      UKS  

 PROGRAMS   *        TOTAL       UKS       INT
 CPU TIMES  *         2.86      2.50      0.22
 REAL TIME  *         4.99 SEC
 DISK USED  *        34.99 MB      
 **********************************************************************************************************************************


 PROGRAM * Intrinsic Basis Bonding Analysis (IBBA)          Author: G. Knizia

 Molecular orbitals read from record     2200.2  Type=UKS/ALPHA (state 1.1)
 Fock matrix read from record            2200.2  Type=UKS/TOTAL (state 1.1)
 Orbital energies read from record       2200.2  Type=UKS/ALPHA (state 1.1)
 Density matrix read from record         2200.2  Type=UKS/CHARGE (state 1.1)

 Number of core orbitals:           3 (   3 )
 Number of closed-shell orbitals:  10 (  10 )

 Basis set MINAO-AUTO-PP generated.      Number of basis functions:   21 

 Polarized AO type:                A = (O Ot + (1-O)(1-Ot)) P12
 Orthogonalization method:         Symmetric (Loewdin)
 Localization functional:          L = sum[A,i] <i|n_A|i>^4 -> max

 Localization group 1:  13 orbitals, occupancy  2.000
 Iterative localization: IB/PM,    7 iter; Final gradient 0.28E-09

 Bond order analysis:       [THRPRINT= 0.020]

   CEN ATOM   CEN ATOM     WIBERG.BO      RENORM.BO
     1   O  -   2   C       1.022987       1.019312
     1   O  -   3   C       1.022983       1.019309
     1   O  -   8   H       0.032964       0.019811
     1   O  -   6   H       0.032964       0.019811
     1   O  -   9   H       0.032964       0.019811
     1   O  -   7   H       0.032964       0.019811

     2   C  -   1   O       1.022987       1.019312
     2   C  -   4   H       0.954020       0.972909
     2   C  -   8   H       0.949218       0.940415
     2   C  -   6   H       0.949218       0.940415

     3   C  -   1   O       1.022983       1.019309
     3   C  -   5   H       0.954023       0.972911
     3   C  -   9   H       0.949217       0.940417
     3   C  -   7   H       0.949217       0.940417

     4   H  -   2   C       0.954020       0.972909

     5   H  -   3   C       0.954023       0.972911

     6   H  -   2   C       0.949218       0.940415
     6   H  -   1   O       0.032964       0.019811

     7   H  -   3   C       0.949217       0.940417
     7   H  -   1   O       0.032964       0.019811

     8   H  -   2   C       0.949218       0.940415
     8   H  -   1   O       0.032964       0.019811

     9   H  -   3   C       0.949217       0.940417
     9   H  -   1   O       0.032964       0.019811


 Valency analysis:

   CEN ATOM   TOT.VALENCE
     1   O       2.193415
     2   C       3.895785
     3   C       3.895781
     4   H       0.979332
     5   H       0.979335
     6   H       0.986497
     7   H       0.986495
     8   H       0.986497
     9   H       0.986495

 Total charge composition:

   CEN ATOM         s          p       ELECTRONS ->P.CHARGE
     1   O       3.65314    4.55175      8.20489   -0.20489
     2   C       3.01148    3.26224      6.27372   -0.27372
     3   C       3.01148    3.26225      6.27373   -0.27373
     4   H       0.85624                 0.85624    0.14376
     5   H       0.85625                 0.85625    0.14375
     6   H       0.88380                 0.88380    0.11620
     7   H       0.88379                 0.88379    0.11621
     8   H       0.88380                 0.88380    0.11620
     9   H       0.88379                 0.88379    0.11621

 Total charge composition, AO contributions:

   CEN ATOM SHL      SPHERICAL COMPONENTS
     1   O  1s       1.99728
     1   O  2s       1.65586
     1   O  2p       1.39327    1.89995    1.25853

     2   C  1s       1.99265
     2   C  2s       1.01883
     2   C  2p       1.19265    1.18297    0.88662

     3   C  1s       1.99265
     3   C  2s       1.01883
     3   C  2p       0.93088    1.18299    1.14838

     4   H  1s       0.85624

     5   H  1s       0.85625

     6   H  1s       0.88380

     7   H  1s       0.88379

     8   H  1s       0.88380

     9   H  1s       0.88379

 Summary of localized orbital composition:   [THRPRINT= 0.020]

   ORB  GRP  ORB.ENERGY      CENTERS/CHARGES
     1   1   -18.369967      O  1   2.000
     2   1    -9.664444      C  2   2.000
     3   1    -9.664439      C  3   2.000
     4   1    -0.605196      O  1   1.165   C  2   0.825
     5   1    -0.605186      O  1   1.165   C  3   0.825
     6   1    -0.436751      C  3   1.145   H  5   0.846
     7   1    -0.436742      C  2   1.145   H  4   0.846
     8   1    -0.433970      O  1   1.969   (other: 0.031)
     9   1    -0.433695      C  3   1.135   H  9   0.864
    10   1    -0.433695      C  3   1.135   H  7   0.864
    11   1    -0.433692      C  2   1.135   H  8   0.864
    12   1    -0.433692      C  2   1.135   H  6   0.864
    13   1    -0.114733      O  1   1.900   (other: 0.100)

 Localized orbitals saved to record      2200.2  (orbital set 4)


 **********************************************************************************************************************************
 DATASETS  * FILE   NREC   LENGTH (MB)   RECORD NAMES
              1      20       31.29       500      610      700      900      950      970     1000      129      960     1100   
                                          VAR    BASINP    GEOM    SYMINP    ZMAT    AOBASIS   BASIS     P2S    ABASIS      S 
                                         1400     1410     1200     1210     1080     1600     1650     1300     1700     1800   
                                           T        V       H0       H01     AOSYM     SMH    MOLCAS    ERIS     OPER     GRID   

              2       5        2.92       700     1000      520     1800     2200   
                                         GEOM     BASIS   MCVARS    GRID      UKS  

 PROGRAMS   *        TOTAL      IBBA       UKS       INT
 CPU TIMES  *         2.89      0.03      2.50      0.22
 REAL TIME  *         5.21 SEC
 DISK USED  *        34.99 MB      
 **********************************************************************************************************************************
 Molecular orbitals read from record     2200.2  Type=UKS/LOCAL(IBO)  
 Occupation numbers read from record     2200.2  Type=UKS/LOCAL(IBO)  
 Orbital energies read from record       2200.2  Type=UKS/LOCAL(IBO)  
 Redundancy group numbers read from rec  2200.2  Type=UKS/BETA (state 1.1)

 IBBA/STO-3G energy=      0.000000000000

        UKS-SCF 
   -152.95693431
 **********************************************************************************************************************************
 Molpro calculation terminated
