
 Primary working directories    : /tmp/sb13343
 Secondary working directories  : /tmp/sb13343
 Wavefunction directory         : /panfs/panasas01/chem/sb13343/wfu/
 Main file repository           : /tmp/sb13343/

 SHA1      : b4a5b34a9e711420743f49e6833241d17c61fb3c
 NAME      : 2099.9.b4a5b34
 ARCHNAME  : linux/x86_64_openmp
 FC        : /cm/shared/languages/GCC-6.1/bin/gfortran
 BLASLIB   : -lblas
 id        : simonbennie

 Nodes     nprocs
 node32-019    1

 Using customized tuning parameters: mindgm=1; mindgv=20; mindgc=4; mindgr=1; noblas=0; minvec=7
 default implementation of scratch files=df  

 memory,500,m
 geomtyp=xyz
 nosym
 noorient
 geometry={
 O          0.00000        0.00000        0.00000
 C          0.00000        0.00000        1.40986
 C          1.30431        0.00000       -0.53525
 H         -1.04418        0.00000        1.73410
 H          1.20786        0.00000       -1.62434
 H          0.50101        0.89295        1.81977
 H          1.87373        0.89295       -0.22737
 H          0.50101       -0.89295        1.81977
 H          1.87373       -0.89295       -0.22737
 }
 basis={ default,sto-3g }
 {ks,BECKE,direct;wf,26,1,0}
 {ibba,bonds=1}

 Variables initialized (895), CPU time= 0.00 sec
 Commands  initialized (725), CPU time= 0.02 sec, 591 directives.
 Default parameters read. Elapsed time= 1.64 sec

 Checking input...
 Passed
1


                                         ***  PROGRAM SYSTEM MOLPRO  ***
                                       Copyright, TTI GmbH Stuttgart, 2015
                                    Version 2099.9 linked May 26 2017 16:03:21


 **********************************************************************************************************************************
 LABEL *                                                                                 
  64 bit serial version                                                                  DATE: 07-Jun-17          TIME: 16:18:27  
 **********************************************************************************************************************************

 SHA1:             b4a5b34a9e711420743f49e6833241d17c61fb3c
 **********************************************************************************************************************************
 SETTING GEOMTYP        =    XYZ

 Variable memory set to  500000000 words,  buffer space 

 ZSYMEL=NOSYM

 SETTING BASIS          =    STO-3G


 Recomputing integrals since basis changed


 Using spherical harmonics

 Library entry O      S STO-3G               selected for orbital group  1
 Library entry O      P STO-3G               selected for orbital group  1
 Library entry C      S STO-3G               selected for orbital group  2
 Library entry C      P STO-3G               selected for orbital group  2
 Library entry H      S STO-3G               selected for orbital group  3


 PROGRAM * SEWARD (Integral evaluation for generally contracted gaussian basis sets)     Author: Roland Lindh, 1990

 Geometry written to block  1 of record 700


 Point group  C1  



 ATOMIC COORDINATES

 NR  ATOM    CHARGE       X              Y              Z

   1  O       8.00    0.000000000    0.000000000    0.000000000
   2  C       6.00    0.000000000    0.000000000    2.664249274
   3  C       6.00    2.464788682    0.000000000   -1.011475908
   4  H       1.00   -1.973214225    0.000000000    3.276974073
   5  H       1.00    2.282524597    0.000000000   -3.069557733
   6  H       1.00    0.946771686    1.687430943    3.438866910
   7  H       1.00    3.540836531    1.687430943   -0.429667029
   8  H       1.00    0.946771686   -1.687430943    3.438866910
   9  H       1.00    3.540836531   -1.687430943   -0.429667029

 Bond lengths in Bohr (Angstrom)

 1-2  2.664249274  1-3  2.664257262  2-4  2.066157316  2-6  2.084186243  2-8  2.084186243
     ( 1.409860000)     ( 1.409864227)     ( 1.093363366)     ( 1.102903863)     ( 1.102903863)

 3-5  2.066136732  3-7  2.084179391  3-9  2.084179391
     ( 1.093352473)     ( 1.102900237)     ( 1.102900237)

 Bond angles

  1-2-4  107.25067522   1-2-6  111.81829608   1-2-8  111.81829608   1-3-5  107.25086594

  1-3-7  111.81797398   1-3-9  111.81797398   2-1-3  112.31178693   4-2-6  108.88149892

  4-2-8  108.88149892   5-3-7  108.88146655   5-3-9  108.88146655   6-2-8  108.12064679

  7-3-9  108.12116643

 NUCLEAR CHARGE:                   26
 NUMBER OF PRIMITIVE AOS:          63
 NUMBER OF SYMMETRY AOS:           63
 NUMBER OF CONTRACTIONS:           21   (  21A   )
 NUMBER OF CORE ORBITALS:           3   (   3A   )
 NUMBER OF VALENCE ORBITALS:       18   (  18A   )


 NUCLEAR REPULSION ENERGY   83.80024479


 Eigenvalues of metric

         1 0.234E+00 0.235E+00 0.359E+00 0.371E+00 0.377E+00 0.378E+00 0.398E+00 0.479E+00


 Contracted 2-electron integrals neglected if value below      1.0D-11
 AO integral compression algorithm  1   Integral accuracy      1.0D-11

     0.262 MB (compressed) written to integral file (100.0%)


 NUMBER OF SORTED TWO-ELECTRON INTEGRALS:      26796.     BUFFER LENGTH:  32768
 NUMBER OF SEGMENTS:   1  SEGMENT LENGTH:      26796      RECORD LENGTH: 524288

 Memory used in sort:       0.58 MW

 SORT1 READ       32133. AND WROTE       21402. INTEGRALS IN      1 RECORDS. CPU TIME:     0.01 SEC, REAL TIME:     0.01 SEC
 SORT2 READ       21402. AND WROTE       26796. INTEGRALS IN      1 RECORDS. CPU TIME:     0.00 SEC, REAL TIME:     0.01 SEC

 FILE SIZES:   FILE 1:    30.4 MBYTE,  FILE 4:     4.2 MBYTE,   TOTAL:     34.6 MBYTE

 OPERATOR DM      FOR CENTER  0  COORDINATES:    0.000000    0.000000    0.000000


 **********************************************************************************************************************************
 DATASETS  * FILE   NREC   LENGTH (MB)   RECORD NAMES
              1      19       30.21       500      610      700      900      950      970     1000      129      960     1100   
                                          VAR    BASINP    GEOM    SYMINP    ZMAT    AOBASIS   BASIS     P2S    ABASIS      S 
                                         1400     1410     1200     1210     1080     1600     1650     1300     1700   
                                           T        V       H0       H01     AOSYM     SMH    MOLCAS    ERIS     OPER   

 PROGRAMS   *        TOTAL       INT
 CPU TIMES  *         0.54      0.38
 REAL TIME  *         2.93 SEC
 DISK USED  *        34.99 MB      
 **********************************************************************************************************************************

 Density functional group BECKE=B88
 Functional: B88(Automatically generated (new) B88)                            Gradient terms: 1
 Use grid at  1800.2

 Functional: B88                       Factor:  1.0000

 Generated new metagrid on record  1800.2 with target accuracy 1.0D-06 and 33732 points in CPU time    1.0
 Computed new grid on record 1800.1 in CPU time    1.0
   20895 words reserved for DFT integration

 PROGRAM * RKS-SCF (Restricted closed shell Kohn-Sham)     Authors: W. Meyer, H.-J. Werner, P.J. Knowles, 1993

 NUMBER OF ELECTRONS:      13+   13-    SPACE SYMMETRY=1    SPIN SYMMETRY: Singlet 
 CONVERGENCE THRESHOLDS:    1.00E-05 (Density)    1.00E-06 (Energy)
 MAX. NUMBER OF ITERATIONS:       60
 INTERPOLATION TYPE:            DIIS
 INTERPOLATION STEPS:              2 (START)      1 (STEP)
 LEVEL SHIFTS:                  0.00 (CLOSED)  0.00 (OPEN) 



 Use fine grid record 1800.2 for energy threshold  1.0D-06
 Orbital guess generated from atomic densities. Full valence occupancy:   13

 Molecular orbital dump at record        2100.2

 Initial occupancy:  13

 ITERATION    DDIFF          GRAD             ENERGY        2-EL.EN.            DIPOLE MOMENTS         DIIS   ORB.
    1      0.000D+00      0.000D+00      -151.96725642    324.194401    0.94067    0.00000    0.63078    0    start
    2      0.000D+00      0.281D-01      -151.92107046    309.771834   -0.64676    0.00000   -0.43370    1    diag
    3      0.111D+00      0.346D-01      -152.08246100    316.859297    0.38982    0.00000    0.26140    2    diag
    4      0.626D-01      0.548D-02      -152.08594463    317.162563    0.29860    0.00000    0.20023    3    diag
    5      0.101D-01      0.116D-02      -152.08610599    317.120857    0.30490    0.00000    0.20446    4    diag
    6      0.175D-02      0.652D-04      -152.08610684    317.123248    0.30821    0.00000    0.20668    5    diag
    7      0.165D-03      0.210D-05      -152.08610684    317.123561    0.30823    0.00000    0.20669    6    diag
    8      0.380D-05      0.219D-06      -152.08610684    317.123641    0.30825    0.00000    0.20670    0    orth

 Final occupancy:  13

 !RKS STATE 1.1 Energy               -152.086106842058
 Nuclear energy                        83.80024479
 One-electron energy                 -373.68182015
 Two-electron energy                  158.56182058
 Density functional                   -20.76635206     B88=-20.76635206
 Virial quotient                       -1.01041296
 !RKS STATE 1.1 Dipole moment           0.30824649     0.00000000     0.20670351
 Dipole moment /Debye                   0.78343312     0.00000000     0.52535351

 Orbital energies:

         1.1          2.1          3.1          4.1          5.1          6.1          7.1          8.1          9.1         10.1
    -18.501857    -9.752344    -9.752030    -0.840719    -0.569083    -0.493606    -0.333032    -0.330247    -0.330060    -0.276567

        11.1         12.1         13.1         14.1         15.1
     -0.253333    -0.117938    -0.042531     0.301451     0.384222

 HOMO     13.1    -0.042531 =      -1.1573eV
 LUMO     14.1     0.301451 =       8.2029eV
 LUMO-HOMO         0.343982 =       9.3602eV


 **********************************************************************************************************************************
 DATASETS  * FILE   NREC   LENGTH (MB)   RECORD NAMES
              1      20       31.29       500      610      700      900      950      970     1000      129      960     1100   
                                          VAR    BASINP    GEOM    SYMINP    ZMAT    AOBASIS   BASIS     P2S    ABASIS      S 
                                         1400     1410     1200     1210     1080     1600     1650     1300     1700     1800   
                                           T        V       H0       H01     AOSYM     SMH    MOLCAS    ERIS     OPER     GRID   

              2       5        2.90       700     1000      520     1800     2100   
                                         GEOM     BASIS   MCVARS    GRID      RKS  

 PROGRAMS   *        TOTAL        KS       INT
 CPU TIMES  *         2.39      1.85      0.38
 REAL TIME  *         5.18 SEC
 DISK USED  *        34.99 MB      
 **********************************************************************************************************************************


 PROGRAM * Intrinsic Basis Bonding Analysis (IBBA)          Author: G. Knizia

 Molecular orbitals read from record     2100.2  Type=RKS/CANONICAL (state 1.1)
 Fock matrix read from record            2100.2  Type=RKS/TOTAL (state 1.1)
 Orbital energies read from record       2100.2  Type=RKS/CANONICAL (state 1.1)
 Density matrix read from record         2100.2  Type=RKS/CHARGE (state 1.1)

 Number of core orbitals:           3 (   3 )
 Number of closed-shell orbitals:  10 (  10 )

 Basis set MINAO-AUTO-PP generated.      Number of basis functions:   21 

 Polarized AO type:                A = (O Ot + (1-O)(1-Ot)) P12
 Orthogonalization method:         Symmetric (Loewdin)
 Localization functional:          L = sum[A,i] <i|n_A|i>^4 -> max

 Localization group 1:  13 orbitals, occupancy  2.000
 Iterative localization: IB/PM,    7 iter; Final gradient 0.24E-08

 Bond order analysis:       [THRPRINT= 0.020]

   CEN ATOM   CEN ATOM     WIBERG.BO      RENORM.BO
     1   O  -   2   C       1.025027       1.021132
     1   O  -   3   C       1.025024       1.021130
     1   O  -   8   H       0.033342       0.019770
     1   O  -   6   H       0.033342       0.019770
     1   O  -   9   H       0.033340       0.019769
     1   O  -   7   H       0.033340       0.019769

     2   C  -   1   O       1.025027       1.021132
     2   C  -   4   H       0.957818       0.972355
     2   C  -   8   H       0.951825       0.939165
     2   C  -   6   H       0.951825       0.939165

     3   C  -   1   O       1.025024       1.021130
     3   C  -   5   H       0.957819       0.972356
     3   C  -   9   H       0.951826       0.939168
     3   C  -   7   H       0.951826       0.939168

     4   H  -   2   C       0.957818       0.972355

     5   H  -   3   C       0.957819       0.972356

     6   H  -   2   C       0.951825       0.939165
     6   H  -   1   O       0.033342       0.019770

     7   H  -   3   C       0.951826       0.939168
     7   H  -   1   O       0.033340       0.019769

     8   H  -   2   C       0.951825       0.939165
     8   H  -   1   O       0.033342       0.019770

     9   H  -   3   C       0.951826       0.939168
     9   H  -   1   O       0.033340       0.019769


 Valency analysis:

   CEN ATOM   TOT.VALENCE
     1   O       2.199258
     2   C       3.906847
     3   C       3.906850
     4   H       0.983026
     5   H       0.983026
     6   H       0.989383
     7   H       0.989383
     8   H       0.989383
     9   H       0.989383

 Total charge composition:

   CEN ATOM         s          p       ELECTRONS ->P.CHARGE
     1   O       3.65313    4.54863      8.20176   -0.20176
     2   C       3.00408    3.23141      6.23548   -0.23548
     3   C       3.00407    3.23141      6.23548   -0.23548
     4   H       0.86971                 0.86971    0.13029
     5   H       0.86972                 0.86972    0.13028
     6   H       0.89696                 0.89696    0.10304
     7   H       0.89696                 0.89696    0.10304
     8   H       0.89696                 0.89696    0.10304
     9   H       0.89696                 0.89696    0.10304

 Total charge composition, AO contributions:

   CEN ATOM SHL      SPHERICAL COMPONENTS
     1   O  1s       1.99727
     1   O  2s       1.65587
     1   O  2p       1.39338    1.89773    1.25751

     2   C  1s       1.99266
     2   C  2s       1.01141
     2   C  2p       1.17864    1.16960    0.88316

     3   C  1s       1.99266
     3   C  2s       1.01141
     3   C  2p       0.92552    1.16960    1.13628

     4   H  1s       0.86971

     5   H  1s       0.86972

     6   H  1s       0.89696

     7   H  1s       0.89696

     8   H  1s       0.89696

     9   H  1s       0.89696

 Summary of localized orbital composition:   [THRPRINT= 0.020]

   ORB  GRP  ORB.ENERGY      CENTERS/CHARGES
     1   1   -18.341844      O  1   2.000
     2   1    -9.647984      C  3   2.000
     3   1    -9.647982      C  2   2.000
     4   1    -0.558466      O  1   1.165   C  2   0.825
     5   1    -0.558460      O  1   1.165   C  3   0.825
     6   1    -0.397927      C  3   1.132   H  5   0.860
     7   1    -0.397919      C  2   1.132   H  4   0.860
     8   1    -0.394397      C  3   1.122   H  9   0.877
     9   1    -0.394397      C  3   1.122   H  7   0.877
    10   1    -0.394392      C  2   1.122   H  8   0.877
    11   1    -0.394392      C  2   1.122   H  6   0.877
    12   1    -0.391118      O  1   1.968   (other: 0.032)
    13   1    -0.074067      O  1   1.897   C  2   0.020   C  3   0.020   (other: 0.062)

 Localized orbitals saved to record      2100.2  (orbital set 2)


 **********************************************************************************************************************************
 DATASETS  * FILE   NREC   LENGTH (MB)   RECORD NAMES
              1      20       31.29       500      610      700      900      950      970     1000      129      960     1100   
                                          VAR    BASINP    GEOM    SYMINP    ZMAT    AOBASIS   BASIS     P2S    ABASIS      S 
                                         1400     1410     1200     1210     1080     1600     1650     1300     1700     1800   
                                           T        V       H0       H01     AOSYM     SMH    MOLCAS    ERIS     OPER     GRID   

              2       5        2.90       700     1000      520     1800     2100   
                                         GEOM     BASIS   MCVARS    GRID      RKS  

 PROGRAMS   *        TOTAL      IBBA        KS       INT
 CPU TIMES  *         2.42      0.03      1.85      0.38
 REAL TIME  *         5.27 SEC
 DISK USED  *        34.99 MB      
 **********************************************************************************************************************************
 Molecular orbitals read from record     2100.2  Type=RKS/LOCAL(IBO)  
 Occupation numbers read from record     2100.2  Type=RKS/LOCAL(IBO)  
 Orbital energies read from record       2100.2  Type=RKS/LOCAL(IBO)  
 Redundancy group numbers read from rec  2100.2  Type=RKS/LOCAL(IBO)  

 IBBA/STO-3G energy=      0.000000000000

        KS-SCF  
   -152.08610684
 **********************************************************************************************************************************
 Molpro calculation terminated
