
 Primary working directories    : /tmp/sb13343
 Secondary working directories  : /tmp/sb13343
 Wavefunction directory         : /panfs/panasas01/chem/sb13343/wfu/
 Main file repository           : /tmp/sb13343/

 SHA1      : b4a5b34a9e711420743f49e6833241d17c61fb3c
 NAME      : 2099.9.b4a5b34
 ARCHNAME  : linux/x86_64_openmp
 FC        : /cm/shared/languages/GCC-6.1/bin/gfortran
 BLASLIB   : -lblas
 id        : simonbennie

 Nodes     nprocs
 node32-010    1

 Using customized tuning parameters: mindgm=1; mindgv=20; mindgc=4; mindgr=1; noblas=0; minvec=7
 default implementation of scratch files=df  

 memory,500,m
 geomtyp=xyz
 nosym
 noorient
 geometry={
 O          0.00000        0.00000        0.00000
 C          0.00000        0.00000        1.40986
 C          1.30431        0.00000       -0.53525
 H         -1.04418        0.00000        1.73410
 H          1.20786        0.00000       -1.62434
 H          0.50101        0.89295        1.81977
 H          1.87373        0.89295       -0.22737
 H          0.50101       -0.89295        1.81977
 H          1.87373       -0.89295       -0.22737
 }
 basis={ default,svp }
 {uks,M06-HF,direct;wf,26,1,0}
 {ibba,bonds=1}

 Variables initialized (895), CPU time= 0.00 sec
 Commands  initialized (725), CPU time= 0.02 sec, 591 directives.
 Default parameters read. Elapsed time= 1.53 sec

 Checking input...
 Passed
1


                                         ***  PROGRAM SYSTEM MOLPRO  ***
                                       Copyright, TTI GmbH Stuttgart, 2015
                                    Version 2099.9 linked May 26 2017 16:03:21


 **********************************************************************************************************************************
 LABEL *                                                                                 
  64 bit serial version                                                                  DATE: 07-Jun-17          TIME: 16:46:44  
 **********************************************************************************************************************************

 SHA1:             b4a5b34a9e711420743f49e6833241d17c61fb3c
 **********************************************************************************************************************************
 SETTING GEOMTYP        =    XYZ

 Variable memory set to  500000000 words,  buffer space 

 ZSYMEL=NOSYM

 SETTING BASIS          =    SVP


 Recomputing integrals since basis changed


 Using spherical harmonics

 Library entry O      S def2-SVP             selected for orbital group  1
 Library entry O      P def2-SVP             selected for orbital group  1
 Library entry O      D def2-SVP             selected for orbital group  1
 Library entry C      S def2-SVP             selected for orbital group  2
 Library entry C      P def2-SVP             selected for orbital group  2
 Library entry C      D def2-SVP             selected for orbital group  2
 Library entry H      S def2-SVP             selected for orbital group  3
 Library entry H      P def2-SVP             selected for orbital group  3


 PROGRAM * SEWARD (Integral evaluation for generally contracted gaussian basis sets)     Author: Roland Lindh, 1990

 Geometry written to block  1 of record 700


 Point group  C1  



 ATOMIC COORDINATES

 NR  ATOM    CHARGE       X              Y              Z

   1  O       8.00    0.000000000    0.000000000    0.000000000
   2  C       6.00    0.000000000    0.000000000    2.664249274
   3  C       6.00    2.464788682    0.000000000   -1.011475908
   4  H       1.00   -1.973214225    0.000000000    3.276974073
   5  H       1.00    2.282524597    0.000000000   -3.069557733
   6  H       1.00    0.946771686    1.687430943    3.438866910
   7  H       1.00    3.540836531    1.687430943   -0.429667029
   8  H       1.00    0.946771686   -1.687430943    3.438866910
   9  H       1.00    3.540836531   -1.687430943   -0.429667029

 Bond lengths in Bohr (Angstrom)

 1-2  2.664249274  1-3  2.664257262  2-4  2.066157316  2-6  2.084186243  2-8  2.084186243
     ( 1.409860000)     ( 1.409864227)     ( 1.093363366)     ( 1.102903863)     ( 1.102903863)

 3-5  2.066136732  3-7  2.084179391  3-9  2.084179391
     ( 1.093352473)     ( 1.102900237)     ( 1.102900237)

 Bond angles

  1-2-4  107.25067522   1-2-6  111.81829608   1-2-8  111.81829608   1-3-5  107.25086594

  1-3-7  111.81797398   1-3-9  111.81797398   2-1-3  112.31178693   4-2-6  108.88149892

  4-2-8  108.88149892   5-3-7  108.88146655   5-3-9  108.88146655   6-2-8  108.12064679

  7-3-9  108.12116643

 NUCLEAR CHARGE:                   26
 NUMBER OF PRIMITIVE AOS:         117
 NUMBER OF SYMMETRY AOS:          114
 NUMBER OF CONTRACTIONS:           72   (  72A   )
 NUMBER OF CORE ORBITALS:           3   (   3A   )
 NUMBER OF VALENCE ORBITALS:       18   (  18A   )


 NUCLEAR REPULSION ENERGY   83.80024479


 Eigenvalues of metric

         1 0.907E-02 0.130E-01 0.293E-01 0.353E-01 0.441E-01 0.490E-01 0.499E-01 0.601E-01


 Contracted 2-electron integrals neglected if value below      1.0D-11
 AO integral compression algorithm  1   Integral accuracy      1.0D-11

     14.156 MB (compressed) written to integral file ( 45.3%)


 NUMBER OF SORTED TWO-ELECTRON INTEGRALS:    3454506.     BUFFER LENGTH:  32768
 NUMBER OF SEGMENTS:   1  SEGMENT LENGTH:    3454506      RECORD LENGTH: 524288

 Memory used in sort:       4.01 MW

 SORT1 READ     3931143. AND WROTE     2907067. INTEGRALS IN      9 RECORDS. CPU TIME:     0.04 SEC, REAL TIME:     0.09 SEC
 SORT2 READ     2907067. AND WROTE     3454506. INTEGRALS IN     54 RECORDS. CPU TIME:     0.12 SEC, REAL TIME:     0.14 SEC

 FILE SIZES:   FILE 1:    44.4 MBYTE,  FILE 4:    37.8 MBYTE,   TOTAL:     82.2 MBYTE

 OPERATOR DM      FOR CENTER  0  COORDINATES:    0.000000    0.000000    0.000000


 **********************************************************************************************************************************
 DATASETS  * FILE   NREC   LENGTH (MB)   RECORD NAMES
              1      19       42.45       500      610      700      900      950      970     1000      129      960     1100   
                                          VAR    BASINP    GEOM    SYMINP    ZMAT    AOBASIS   BASIS     P2S    ABASIS      S 
                                         1400     1410     1200     1210     1080     1600     1650     1300     1700   
                                           T        V       H0       H01     AOSYM     SMH    MOLCAS    ERIS     OPER   

 PROGRAMS   *        TOTAL       INT
 CPU TIMES  *         0.89      0.75
 REAL TIME  *         3.74 SEC
 DISK USED  *        82.64 MB      
 **********************************************************************************************************************************

 Density functional group M06-HF=XC-M06-HF
 Functional: XC-M06-HF(via MFM 1.6)                                            Gradient terms: 1
 Use grid at  1800.2


 Exact exchange will be calculated, factor:  1.0000

 Functional: XC-M06-HF                 Factor:  1.0000

 Generated new metagrid on record  1800.2 with target accuracy 1.0D-06 and 33732 points in CPU time    0.9
 Computed new grid on record 1800.1 in CPU time    1.0
   61197 words reserved for DFT integration

 PROGRAM * UKS-SCF (Unrestricted Kohn-Sham)     Authors: W. Meyer, H.-J. Werner, P.J. Knowles, 1993

 NUMBER OF ELECTRONS:      13+   13-    SPACE SYMMETRY=1    SPIN SYMMETRY: Singlet 
 CONVERGENCE THRESHOLDS:    1.00E-05 (Density)    1.00E-06 (Energy)
 MAX. NUMBER OF ITERATIONS:       60
 INTERPOLATION TYPE:            DIIS
 INTERPOLATION STEPS:              2 (START)      1 (STEP)
 LEVEL SHIFTS:                 -0.20 (ALPHA)  -0.20 (BETA) 



 Use fine grid record 1800.2 for energy threshold  1.0D-06
 Orbital guess generated from atomic densities. Full valence occupancy:   13

 Molecular orbital dump at record        2200.2

 Initial alpha occupation  13
 Initial beta  occupation  13

 ITERATION    DDIFF          GRAD             ENERGY        2-EL.EN.            DIPOLE MOMENTS         DIIS
    1      0.000D+00      0.000D+00      -154.80719354    276.385145    0.74812   -0.00000    0.50184    0
    2      0.432D-02      0.347D-02      -154.83658719    274.839536    0.51965   -0.00000    0.34921    1
    3      0.165D-02      0.132D-02      -154.84142482    275.341208    0.53726   -0.00000    0.36147    2
    4      0.110D-02      0.569D-03      -154.84283292    275.187257    0.51568   -0.00000    0.34731    3
    5      0.454D-03      0.143D-03      -154.84295729    275.202543    0.51509   -0.00000    0.34707    4
    6      0.211D-03      0.407D-04      -154.84296923    275.192144    0.51474   -0.00000    0.34682    5
    7      0.414D-04      0.773D-05      -154.84296972    275.193211    0.51454   -0.00000    0.34664    6
    8      0.943D-05      0.227D-05      -154.84296977    275.192084    0.51449   -0.00000    0.34659    6
    9      0.465D-05      0.892D-06      -154.84296977    275.192345    0.51447   -0.00000    0.34657    6

 Final alpha occupancy:  13
 Final beta  occupancy:  13

 !UKS STATE 1.1 Energy               -154.842969772828
 Nuclear energy                        83.80024479
 One-electron energy                 -375.33671478
 Two-electron energy                  137.59617255
 Density functional                    -0.90267234     XC-M06-HF=-0.90267234
 Virial quotient                       -1.01087093
 !UKS STATE 1.1 Dipole moment           0.51446552    -0.00000000     0.34656511
 Dipole moment /Debye                   1.30755528    -0.00000000     0.88082295

 Orbital energies for positive spin:

         1.1          2.1          3.1          4.1          5.1          6.1          7.1          8.1          9.1         10.1
    -20.201152   -11.022463   -11.022019    -1.249669    -0.920562    -0.820726    -0.647551    -0.642404    -0.633510    -0.548439

        11.1         12.1         13.1         14.1         15.1
     -0.524871    -0.475107    -0.417355     0.126877     0.173655

 Orbital energies for negative spin:

         1.1          2.1          3.1          4.1          5.1          6.1          7.1          8.1          9.1         10.1
    -20.201152   -11.022463   -11.022019    -1.249669    -0.920562    -0.820726    -0.647551    -0.642404    -0.633510    -0.548439

        11.1         12.1         13.1         14.1         15.1
     -0.524871    -0.475107    -0.417355     0.126877     0.173655

 HOMO     13.1    -0.417355 =     -11.3568eV
 LUMO     14.1     0.126877 =       3.4525eV
 LUMO-HOMO         0.544232 =      14.8093eV

 EXPECTATION VALUE OF S**2:            -0.00000000

 Natural orbitals saved to record    2200.2 (Orbital set 3)

 Orbital spaces for UNO-CAS (Min. occupation: 0.020  Max. occupation: 1.980):

 Closed:       13
 Active:        0


 **********************************************************************************************************************************
 DATASETS  * FILE   NREC   LENGTH (MB)   RECORD NAMES
              1      20       43.53       500      610      700      900      950      970     1000      129      960     1100   
                                          VAR    BASINP    GEOM    SYMINP    ZMAT    AOBASIS   BASIS     P2S    ABASIS      S 
                                         1400     1410     1200     1210     1080     1600     1650     1300     1700     1800   
                                           T        V       H0       H01     AOSYM     SMH    MOLCAS    ERIS     OPER     GRID   

              2       5        3.11       700     1000      520     1800     2200   
                                         GEOM     BASIS   MCVARS    GRID      UKS  

 PROGRAMS   *        TOTAL       UKS       INT
 CPU TIMES  *        16.78     15.89      0.75
 REAL TIME  *        19.83 SEC
 DISK USED  *        82.64 MB      
 **********************************************************************************************************************************


 PROGRAM * Intrinsic Basis Bonding Analysis (IBBA)          Author: G. Knizia

 Molecular orbitals read from record     2200.2  Type=UKS/ALPHA (state 1.1)
 Fock matrix read from record            2200.2  Type=UKS/TOTAL (state 1.1)
 Orbital energies read from record       2200.2  Type=UKS/ALPHA (state 1.1)
 Density matrix read from record         2200.2  Type=UKS/CHARGE (state 1.1)

 Number of core orbitals:           3 (   3 )
 Number of closed-shell orbitals:  10 (  10 )

 Basis set MINAO-AUTO-PP generated.      Number of basis functions:   21 

 Polarized AO type:                A = (O Ot + (1-O)(1-Ot)) P12
 Orthogonalization method:         Symmetric (Loewdin)
 Localization functional:          L = sum[A,i] <i|n_A|i>^4 -> max

 Localization group 1:  13 orbitals, occupancy  2.000
 Iterative localization: IB/PM,    7 iter; Final gradient 0.13E-08

 Bond order analysis:       [THRPRINT= 0.020]

   CEN ATOM   CEN ATOM     WIBERG.BO      RENORM.BO
     1   O  -   3   C       0.979411       1.015659
     1   O  -   2   C       0.979364       1.015544
     1   O  -   7   H       0.026302       0.015424
     1   O  -   9   H       0.026302       0.015424
     1   O  -   6   H       0.026134       0.015336
     1   O  -   8   H       0.026134       0.015336

     2   C  -   1   O       0.979364       1.015544
     2   C  -   4   H       0.962089       0.981915
     2   C  -   8   H       0.957962       0.952253
     2   C  -   6   H       0.957962       0.952253

     3   C  -   1   O       0.979411       1.015659
     3   C  -   5   H       0.961890       0.981882
     3   C  -   7   H       0.957911       0.951968
     3   C  -   9   H       0.957911       0.951968

     4   H  -   2   C       0.962089       0.981915

     5   H  -   3   C       0.961890       0.981882

     6   H  -   2   C       0.957962       0.952253
     6   H  -   1   O       0.026134       0.015336

     7   H  -   3   C       0.957911       0.951968
     7   H  -   1   O       0.026302       0.015424

     8   H  -   2   C       0.957962       0.952253
     8   H  -   1   O       0.026134       0.015336

     9   H  -   3   C       0.957911       0.951968
     9   H  -   1   O       0.026302       0.015424


 Valency analysis:

   CEN ATOM   TOT.VALENCE
     1   O       2.073375
     2   C       3.871946
     3   C       3.871699
     4   H       0.979642
     5   H       0.979476
     6   H       0.988314
     7   H       0.988444
     8   H       0.988314
     9   H       0.988444

 Total charge composition:

   CEN ATOM         s          p       ELECTRONS ->P.CHARGE
     1   O       3.54767    4.84842      8.39609   -0.39609
     2   C       2.99247    3.16841      6.16088   -0.16088
     3   C       2.99234    3.16783      6.16017   -0.16017
     4   H       0.85732                 0.85732    0.14268
     5   H       0.85674                 0.85674    0.14326
     6   H       0.89190                 0.89190    0.10810
     7   H       0.89250                 0.89250    0.10750
     8   H       0.89190                 0.89190    0.10810
     9   H       0.89250                 0.89250    0.10750

 Total charge composition, AO contributions:

   CEN ATOM SHL      SPHERICAL COMPONENTS
     1   O  1s       1.99685
     1   O  2s       1.55082
     1   O  2p       1.54212    1.92831    1.37799

     2   C  1s       1.99107
     2   C  2s       1.00139
     2   C  2p       1.18701    1.16450    0.81690

     3   C  1s       1.99107
     3   C  2s       1.00127
     3   C  2p       0.86922    1.16428    1.13433

     4   H  1s       0.85732

     5   H  1s       0.85674

     6   H  1s       0.89190

     7   H  1s       0.89250

     8   H  1s       0.89190

     9   H  1s       0.89250

 Summary of localized orbital composition:   [THRPRINT= 0.020]

   ORB  GRP  ORB.ENERGY      CENTERS/CHARGES
     1   1   -20.045021      O  1   2.000
     2   1   -10.907900      C  3   2.000
     3   1   -10.907444      C  2   2.000
     4   1    -0.959040      O  1   1.248   C  2   0.746
     5   1    -0.959033      O  1   1.248   C  3   0.746
     6   1    -0.722011      O  1   1.970   (other: 0.030)
     7   1    -0.690342      C  2   1.122   H  6   0.876
     8   1    -0.690342      C  2   1.122   H  8   0.876
     9   1    -0.690172      C  3   1.121   H  9   0.877
    10   1    -0.690172      C  3   1.121   H  7   0.877
    11   1    -0.688752      C  3   1.145   H  5   0.850
    12   1    -0.687911      C  2   1.144   H  4   0.851
    13   1    -0.487605      O  1   1.928   (other: 0.072)

 Localized orbitals saved to record      2200.2  (orbital set 4)


 **********************************************************************************************************************************
 DATASETS  * FILE   NREC   LENGTH (MB)   RECORD NAMES
              1      20       43.53       500      610      700      900      950      970     1000      129      960     1100   
                                          VAR    BASINP    GEOM    SYMINP    ZMAT    AOBASIS   BASIS     P2S    ABASIS      S 
                                         1400     1410     1200     1210     1080     1600     1650     1300     1700     1800   
                                           T        V       H0       H01     AOSYM     SMH    MOLCAS    ERIS     OPER     GRID   

              2       5        3.15       700     1000      520     1800     2200   
                                         GEOM     BASIS   MCVARS    GRID      UKS  

 PROGRAMS   *        TOTAL      IBBA       UKS       INT
 CPU TIMES  *        16.81      0.01     15.89      0.75
 REAL TIME  *        19.95 SEC
 DISK USED  *        82.64 MB      
 **********************************************************************************************************************************
 Molecular orbitals read from record     2200.2  Type=UKS/LOCAL(IBO)  
 Occupation numbers read from record     2200.2  Type=UKS/LOCAL(IBO)  
 Orbital energies read from record       2200.2  Type=UKS/LOCAL(IBO)  
 Redundancy group numbers read from rec  2200.2  Type=UKS/BETA (state 1.1)

 IBBA/SVP energy=      0.000000000000

        UKS-SCF 
   -154.84296977
 **********************************************************************************************************************************
 Molpro calculation terminated
