
 Primary working directories    : /tmp/sb13343
 Secondary working directories  : /tmp/sb13343
 Wavefunction directory         : /panfs/panasas01/chem/sb13343/wfu/
 Main file repository           : /tmp/sb13343/

 SHA1      : b4a5b34a9e711420743f49e6833241d17c61fb3c
 NAME      : 2099.9.b4a5b34
 ARCHNAME  : linux/x86_64_openmp
 FC        : /cm/shared/languages/GCC-6.1/bin/gfortran
 BLASLIB   : -lblas
 id        : simonbennie

 Nodes     nprocs
 node32-017    1

 Using customized tuning parameters: mindgm=1; mindgv=20; mindgc=4; mindgr=1; noblas=0; minvec=7
 default implementation of scratch files=df  

 memory,500,m
 geomtyp=xyz
 nosym
 noorient
 geometry={
 O          0.00000        0.00000        0.00000
 C          0.00000        0.00000        1.40986
 C          1.30431        0.00000       -0.53525
 H         -1.04418        0.00000        1.73410
 H          1.20786        0.00000       -1.62434
 H          0.50101        0.89295        1.81977
 H          1.87373        0.89295       -0.22737
 H          0.50101       -0.89295        1.81977
 H          1.87373       -0.89295       -0.22737
 }
 basis={ default,sto-3g }
 {ks,MM06,direct;wf,26,1,0}
 {ibba,bonds=1}

 Variables initialized (895), CPU time= 0.00 sec
 Commands  initialized (725), CPU time= 0.02 sec, 591 directives.
 Default parameters read. Elapsed time= 1.41 sec

 Checking input...
 Passed
1


                                         ***  PROGRAM SYSTEM MOLPRO  ***
                                       Copyright, TTI GmbH Stuttgart, 2015
                                    Version 2099.9 linked May 26 2017 16:03:21


 **********************************************************************************************************************************
 LABEL *                                                                                 
  64 bit serial version                                                                  DATE: 07-Jun-17          TIME: 16:23:16  
 **********************************************************************************************************************************

 SHA1:             b4a5b34a9e711420743f49e6833241d17c61fb3c
 **********************************************************************************************************************************
 SETTING GEOMTYP        =    XYZ

 Variable memory set to  500000000 words,  buffer space 

 ZSYMEL=NOSYM

 SETTING BASIS          =    STO-3G


 Recomputing integrals since basis changed


 Using spherical harmonics

 Library entry O      S STO-3G               selected for orbital group  1
 Library entry O      P STO-3G               selected for orbital group  1
 Library entry C      S STO-3G               selected for orbital group  2
 Library entry C      P STO-3G               selected for orbital group  2
 Library entry H      S STO-3G               selected for orbital group  3


 PROGRAM * SEWARD (Integral evaluation for generally contracted gaussian basis sets)     Author: Roland Lindh, 1990

 Geometry written to block  1 of record 700


 Point group  C1  



 ATOMIC COORDINATES

 NR  ATOM    CHARGE       X              Y              Z

   1  O       8.00    0.000000000    0.000000000    0.000000000
   2  C       6.00    0.000000000    0.000000000    2.664249274
   3  C       6.00    2.464788682    0.000000000   -1.011475908
   4  H       1.00   -1.973214225    0.000000000    3.276974073
   5  H       1.00    2.282524597    0.000000000   -3.069557733
   6  H       1.00    0.946771686    1.687430943    3.438866910
   7  H       1.00    3.540836531    1.687430943   -0.429667029
   8  H       1.00    0.946771686   -1.687430943    3.438866910
   9  H       1.00    3.540836531   -1.687430943   -0.429667029

 Bond lengths in Bohr (Angstrom)

 1-2  2.664249274  1-3  2.664257262  2-4  2.066157316  2-6  2.084186243  2-8  2.084186243
     ( 1.409860000)     ( 1.409864227)     ( 1.093363366)     ( 1.102903863)     ( 1.102903863)

 3-5  2.066136732  3-7  2.084179391  3-9  2.084179391
     ( 1.093352473)     ( 1.102900237)     ( 1.102900237)

 Bond angles

  1-2-4  107.25067522   1-2-6  111.81829608   1-2-8  111.81829608   1-3-5  107.25086594

  1-3-7  111.81797398   1-3-9  111.81797398   2-1-3  112.31178693   4-2-6  108.88149892

  4-2-8  108.88149892   5-3-7  108.88146655   5-3-9  108.88146655   6-2-8  108.12064679

  7-3-9  108.12116643

 NUCLEAR CHARGE:                   26
 NUMBER OF PRIMITIVE AOS:          63
 NUMBER OF SYMMETRY AOS:           63
 NUMBER OF CONTRACTIONS:           21   (  21A   )
 NUMBER OF CORE ORBITALS:           3   (   3A   )
 NUMBER OF VALENCE ORBITALS:       18   (  18A   )


 NUCLEAR REPULSION ENERGY   83.80024479


 Eigenvalues of metric

         1 0.234E+00 0.235E+00 0.359E+00 0.371E+00 0.377E+00 0.378E+00 0.398E+00 0.479E+00


 Contracted 2-electron integrals neglected if value below      1.0D-11
 AO integral compression algorithm  1   Integral accuracy      1.0D-11

     0.262 MB (compressed) written to integral file (100.0%)


 NUMBER OF SORTED TWO-ELECTRON INTEGRALS:      26796.     BUFFER LENGTH:  32768
 NUMBER OF SEGMENTS:   1  SEGMENT LENGTH:      26796      RECORD LENGTH: 524288

 Memory used in sort:       0.58 MW

 SORT1 READ       32133. AND WROTE       21402. INTEGRALS IN      1 RECORDS. CPU TIME:     0.00 SEC, REAL TIME:     0.00 SEC
 SORT2 READ       21402. AND WROTE       26796. INTEGRALS IN      1 RECORDS. CPU TIME:     0.00 SEC, REAL TIME:     0.01 SEC

 FILE SIZES:   FILE 1:    30.4 MBYTE,  FILE 4:     4.2 MBYTE,   TOTAL:     34.6 MBYTE

 OPERATOR DM      FOR CENTER  0  COORDINATES:    0.000000    0.000000    0.000000


 **********************************************************************************************************************************
 DATASETS  * FILE   NREC   LENGTH (MB)   RECORD NAMES
              1      19       30.21       500      610      700      900      950      970     1000      129      960     1100   
                                          VAR    BASINP    GEOM    SYMINP    ZMAT    AOBASIS   BASIS     P2S    ABASIS      S 
                                         1400     1410     1200     1210     1080     1600     1650     1300     1700   
                                           T        V       H0       H01     AOSYM     SMH    MOLCAS    ERIS     OPER   

 PROGRAMS   *        TOTAL       INT
 CPU TIMES  *         0.37      0.23
 REAL TIME  *         2.05 SEC
 DISK USED  *        34.99 MB      
 **********************************************************************************************************************************

 Density functional group MM06=M06X+M06C
 Functional: M06X(Automatically generated (new) M06X)                          Gradient terms: 2
 Functional: M06C(Automatically generated (new) M06C)                          Gradient terms: 2
 Use grid at  1800.2


 Exact exchange will be calculated, factor:  0.2700

 Functional: M06X                      Factor:  0.7300
 Functional: M06C                      Factor:  1.0000

 Generated new metagrid on record  1800.2 with target accuracy 1.0D-06 and 33732 points in CPU time    0.9
 Computed new grid on record 1800.1 in CPU time    0.9
   36897 words reserved for DFT integration

 PROGRAM * RKS-SCF (Restricted closed shell Kohn-Sham)     Authors: W. Meyer, H.-J. Werner, P.J. Knowles, 1993

 NUMBER OF ELECTRONS:      13+   13-    SPACE SYMMETRY=1    SPIN SYMMETRY: Singlet 
 CONVERGENCE THRESHOLDS:    1.00E-05 (Density)    1.00E-06 (Energy)
 MAX. NUMBER OF ITERATIONS:       60
 INTERPOLATION TYPE:            DIIS
 INTERPOLATION STEPS:              2 (START)      1 (STEP)
 LEVEL SHIFTS:                  0.00 (CLOSED)  0.00 (OPEN) 



 Use fine grid record 1800.2 for energy threshold  1.0D-06
 Orbital guess generated from atomic densities. Full valence occupancy:   13

 Molecular orbital dump at record        2100.2

 Initial occupancy:  13

 ITERATION    DDIFF          GRAD             ENERGY        2-EL.EN.            DIPOLE MOMENTS         DIIS   ORB.
    1      0.000D+00      0.000D+00      -148.77084886    311.502090    0.84781    0.00000    0.56869    0    start
    2      0.000D+00      0.257D-01      -148.79935027    300.625144   -0.30787    0.00000   -0.20401    1    diag
    3      0.845D-01      0.225D-01      -148.86803201    305.243970    0.32171    0.00000    0.21575    2    diag
    4      0.390D-01      0.250D-02      -148.86873947    305.370954    0.28262    0.00000    0.18962    3    diag
    5      0.445D-02      0.543D-03      -148.86877419    305.359760    0.28808    0.00000    0.19320    4    diag
    6      0.767D-03      0.168D-04      -148.86877425    305.358203    0.28860    0.00000    0.19356    5    diag
    7      0.446D-04      0.283D-05      -148.86877425    305.357770    0.28847    0.00000    0.19348    6    diag
    8      0.684D-05      0.188D-06      -148.86877425    305.357809    0.28849    0.00000    0.19348    0    orth

 Final occupancy:  13

 !RKS STATE 1.1 Energy               -148.868774248261
 Nuclear energy                        83.80024479
 One-electron energy                 -373.43477170
 Two-electron energy                  152.67890427
 SCF exchange energy                  -20.77070123     Factor= 0.2700
 Density functional                   -11.91315161     M06X=-14.87864158 M06C= -1.05174325
 Virial quotient                       -0.99141396
 !RKS STATE 1.1 Dipole moment           0.28848665     0.00000000     0.19348331
 Dipole moment /Debye                   0.73321190     0.00000000     0.49175330

 Orbital energies:

         1.1          2.1          3.1          4.1          5.1          6.1          7.1          8.1          9.1         10.1
    -18.456724    -9.719657    -9.719180    -0.882213    -0.594524    -0.511803    -0.345738    -0.345440    -0.338337    -0.282246

        11.1         12.1         13.1         14.1         15.1
     -0.254327    -0.112954    -0.036368     0.427092     0.509007

 HOMO     13.1    -0.036368 =      -0.9896eV
 LUMO     14.1     0.427092 =      11.6218eV
 LUMO-HOMO         0.463459 =      12.6114eV


 **********************************************************************************************************************************
 DATASETS  * FILE   NREC   LENGTH (MB)   RECORD NAMES
              1      20       31.29       500      610      700      900      950      970     1000      129      960     1100   
                                          VAR    BASINP    GEOM    SYMINP    ZMAT    AOBASIS   BASIS     P2S    ABASIS      S 
                                         1400     1410     1200     1210     1080     1600     1650     1300     1700     1800   
                                           T        V       H0       H01     AOSYM     SMH    MOLCAS    ERIS     OPER     GRID   

              2       5        2.90       700     1000      520     1800     2100   
                                         GEOM     BASIS   MCVARS    GRID      RKS  

 PROGRAMS   *        TOTAL        KS       INT
 CPU TIMES  *         3.57      3.20      0.23
 REAL TIME  *         5.65 SEC
 DISK USED  *        34.99 MB      
 **********************************************************************************************************************************


 PROGRAM * Intrinsic Basis Bonding Analysis (IBBA)          Author: G. Knizia

 Molecular orbitals read from record     2100.2  Type=RKS/CANONICAL (state 1.1)
 Fock matrix read from record            2100.2  Type=RKS/TOTAL (state 1.1)
 Orbital energies read from record       2100.2  Type=RKS/CANONICAL (state 1.1)
 Density matrix read from record         2100.2  Type=RKS/CHARGE (state 1.1)

 Number of core orbitals:           3 (   3 )
 Number of closed-shell orbitals:  10 (  10 )

 Basis set MINAO-AUTO-PP generated.      Number of basis functions:   21 

 Polarized AO type:                A = (O Ot + (1-O)(1-Ot)) P12
 Orthogonalization method:         Symmetric (Loewdin)
 Localization functional:          L = sum[A,i] <i|n_A|i>^4 -> max

 Localization group 1:  13 orbitals, occupancy  2.000
 Iterative localization: IB/PM,    7 iter; Final gradient 0.28E-08

 Bond order analysis:       [THRPRINT= 0.020]

   CEN ATOM   CEN ATOM     WIBERG.BO      RENORM.BO
     1   O  -   3   C       1.029895       1.021334
     1   O  -   2   C       1.029843       1.021313
     1   O  -   9   H       0.032494       0.019117
     1   O  -   7   H       0.032494       0.019117
     1   O  -   6   H       0.032437       0.019086
     1   O  -   8   H       0.032437       0.019086

     2   C  -   1   O       1.029843       1.021313
     2   C  -   4   H       0.958909       0.972424
     2   C  -   8   H       0.953329       0.941246
     2   C  -   6   H       0.953329       0.941246

     3   C  -   1   O       1.029895       1.021334
     3   C  -   5   H       0.958916       0.972529
     3   C  -   9   H       0.953293       0.941138
     3   C  -   7   H       0.953293       0.941138

     4   H  -   2   C       0.958909       0.972424

     5   H  -   3   C       0.958916       0.972529

     6   H  -   2   C       0.953329       0.941246
     6   H  -   1   O       0.032437       0.019086

     7   H  -   3   C       0.953293       0.941138
     7   H  -   1   O       0.032494       0.019117

     8   H  -   2   C       0.953329       0.941246
     8   H  -   1   O       0.032437       0.019086

     9   H  -   3   C       0.953293       0.941138
     9   H  -   1   O       0.032494       0.019117


 Valency analysis:

   CEN ATOM   TOT.VALENCE
     1   O       2.206617
     2   C       3.914592
     3   C       3.914611
     4   H       0.985021
     5   H       0.984975
     6   H       0.990695
     7   H       0.990710
     8   H       0.990695
     9   H       0.990710

 Total charge composition:

   CEN ATOM         s          p       ELECTRONS ->P.CHARGE
     1   O       3.62810    4.53999      8.16809   -0.16809
     2   C       2.98357    3.24763      6.23120   -0.23120
     3   C       2.98366    3.24771      6.23137   -0.23137
     4   H       0.87761                 0.87761    0.12239
     5   H       0.87742                 0.87742    0.12258
     6   H       0.90354                 0.90354    0.09646
     7   H       0.90361                 0.90361    0.09639
     8   H       0.90354                 0.90354    0.09646
     9   H       0.90361                 0.90361    0.09639

 Total charge composition, AO contributions:

   CEN ATOM SHL      SPHERICAL COMPONENTS
     1   O  1s       1.99755
     1   O  2s       1.63055
     1   O  2p       1.39131    1.89973    1.24894

     2   C  1s       1.99371
     2   C  2s       0.98987
     2   C  2p       1.17817    1.16940    0.90006

     3   C  1s       1.99371
     3   C  2s       0.98995
     3   C  2p       0.93924    1.16929    1.13918

     4   H  1s       0.87761

     5   H  1s       0.87742

     6   H  1s       0.90354

     7   H  1s       0.90361

     8   H  1s       0.90354

     9   H  1s       0.90361

 Summary of localized orbital composition:   [THRPRINT= 0.020]

   ORB  GRP  ORB.ENERGY      CENTERS/CHARGES
     1   1   -18.303864      O  1   2.000
     2   1    -9.617323      C  2   2.000
     3   1    -9.617194      C  3   2.000
     4   1    -0.583391      O  1   1.147   C  2   0.843
     5   1    -0.583325      O  1   1.147   C  3   0.843
     6   1    -0.407387      C  2   1.125   H  4   0.867
     7   1    -0.407380      C  3   1.125   H  5   0.867
     8   1    -0.405595      C  2   1.114   H  8   0.884
     9   1    -0.405595      C  2   1.114   H  6   0.884
    10   1    -0.405413      C  3   1.114   H  7   0.884
    11   1    -0.405413      C  3   1.114   H  9   0.884
    12   1    -0.383177      O  1   1.969   (other: 0.031)
    13   1    -0.074453      O  1   1.900   C  3   0.020   C  2   0.020   (other: 0.060)

 Localized orbitals saved to record      2100.2  (orbital set 2)


 **********************************************************************************************************************************
 DATASETS  * FILE   NREC   LENGTH (MB)   RECORD NAMES
              1      20       31.29       500      610      700      900      950      970     1000      129      960     1100   
                                          VAR    BASINP    GEOM    SYMINP    ZMAT    AOBASIS   BASIS     P2S    ABASIS      S 
                                         1400     1410     1200     1210     1080     1600     1650     1300     1700     1800   
                                           T        V       H0       H01     AOSYM     SMH    MOLCAS    ERIS     OPER     GRID   

              2       5        2.90       700     1000      520     1800     2100   
                                         GEOM     BASIS   MCVARS    GRID      RKS  

 PROGRAMS   *        TOTAL      IBBA        KS       INT
 CPU TIMES  *         3.60      0.03      3.20      0.23
 REAL TIME  *         5.74 SEC
 DISK USED  *        34.99 MB      
 **********************************************************************************************************************************
 Molecular orbitals read from record     2100.2  Type=RKS/LOCAL(IBO)  
 Occupation numbers read from record     2100.2  Type=RKS/LOCAL(IBO)  
 Orbital energies read from record       2100.2  Type=RKS/LOCAL(IBO)  
 Redundancy group numbers read from rec  2100.2  Type=RKS/LOCAL(IBO)  

 IBBA/STO-3G energy=      0.000000000000

        KS-SCF  
   -148.86877425
 **********************************************************************************************************************************
 Molpro calculation terminated
