
 Primary working directories    : /tmp/sb13343
 Secondary working directories  : /tmp/sb13343
 Wavefunction directory         : /panfs/panasas01/chem/sb13343/wfu/
 Main file repository           : /tmp/sb13343/

 SHA1      : b4a5b34a9e711420743f49e6833241d17c61fb3c
 NAME      : 2099.9.b4a5b34
 ARCHNAME  : linux/x86_64_openmp
 FC        : /cm/shared/languages/GCC-6.1/bin/gfortran
 BLASLIB   : -lblas
 id        : simonbennie

 Nodes     nprocs
 node32-010    1

 Using customized tuning parameters: mindgm=1; mindgv=20; mindgc=4; mindgr=1; noblas=0; minvec=7
 default implementation of scratch files=df  

 memory,500,m
 geomtyp=xyz
 nosym
 noorient
 geometry={
 O          0.00000        0.00000        0.00000
 C          0.00000        0.00000        1.40986
 C          1.30431        0.00000       -0.53525
 H         -1.04418        0.00000        1.73410
 H          1.20786        0.00000       -1.62434
 H          0.50101        0.89295        1.81977
 H          1.87373        0.89295       -0.22737
 H          0.50101       -0.89295        1.81977
 H          1.87373       -0.89295       -0.22737
 }
 basis={ default,svp }
 {ks,LDA,direct;wf,26,1,0}
 {ibba,bonds=1}

 Variables initialized (895), CPU time= 0.00 sec
 Commands  initialized (725), CPU time= 0.02 sec, 591 directives.
 Default parameters read. Elapsed time= 1.36 sec

 Checking input...
 Passed
1


                                         ***  PROGRAM SYSTEM MOLPRO  ***
                                       Copyright, TTI GmbH Stuttgart, 2015
                                    Version 2099.9 linked May 26 2017 16:03:21


 **********************************************************************************************************************************
 LABEL *                                                                                 
  64 bit serial version                                                                  DATE: 07-Jun-17          TIME: 16:39:47  
 **********************************************************************************************************************************

 SHA1:             b4a5b34a9e711420743f49e6833241d17c61fb3c
 **********************************************************************************************************************************
 SETTING GEOMTYP        =    XYZ

 Variable memory set to  500000000 words,  buffer space 

 ZSYMEL=NOSYM

 SETTING BASIS          =    SVP


 Recomputing integrals since basis changed


 Using spherical harmonics

 Library entry O      S def2-SVP             selected for orbital group  1
 Library entry O      P def2-SVP             selected for orbital group  1
 Library entry O      D def2-SVP             selected for orbital group  1
 Library entry C      S def2-SVP             selected for orbital group  2
 Library entry C      P def2-SVP             selected for orbital group  2
 Library entry C      D def2-SVP             selected for orbital group  2
 Library entry H      S def2-SVP             selected for orbital group  3
 Library entry H      P def2-SVP             selected for orbital group  3


 PROGRAM * SEWARD (Integral evaluation for generally contracted gaussian basis sets)     Author: Roland Lindh, 1990

 Geometry written to block  1 of record 700


 Point group  C1  



 ATOMIC COORDINATES

 NR  ATOM    CHARGE       X              Y              Z

   1  O       8.00    0.000000000    0.000000000    0.000000000
   2  C       6.00    0.000000000    0.000000000    2.664249274
   3  C       6.00    2.464788682    0.000000000   -1.011475908
   4  H       1.00   -1.973214225    0.000000000    3.276974073
   5  H       1.00    2.282524597    0.000000000   -3.069557733
   6  H       1.00    0.946771686    1.687430943    3.438866910
   7  H       1.00    3.540836531    1.687430943   -0.429667029
   8  H       1.00    0.946771686   -1.687430943    3.438866910
   9  H       1.00    3.540836531   -1.687430943   -0.429667029

 Bond lengths in Bohr (Angstrom)

 1-2  2.664249274  1-3  2.664257262  2-4  2.066157316  2-6  2.084186243  2-8  2.084186243
     ( 1.409860000)     ( 1.409864227)     ( 1.093363366)     ( 1.102903863)     ( 1.102903863)

 3-5  2.066136732  3-7  2.084179391  3-9  2.084179391
     ( 1.093352473)     ( 1.102900237)     ( 1.102900237)

 Bond angles

  1-2-4  107.25067522   1-2-6  111.81829608   1-2-8  111.81829608   1-3-5  107.25086594

  1-3-7  111.81797398   1-3-9  111.81797398   2-1-3  112.31178693   4-2-6  108.88149892

  4-2-8  108.88149892   5-3-7  108.88146655   5-3-9  108.88146655   6-2-8  108.12064679

  7-3-9  108.12116643

 NUCLEAR CHARGE:                   26
 NUMBER OF PRIMITIVE AOS:         117
 NUMBER OF SYMMETRY AOS:          114
 NUMBER OF CONTRACTIONS:           72   (  72A   )
 NUMBER OF CORE ORBITALS:           3   (   3A   )
 NUMBER OF VALENCE ORBITALS:       18   (  18A   )


 NUCLEAR REPULSION ENERGY   83.80024479


 Eigenvalues of metric

         1 0.907E-02 0.130E-01 0.293E-01 0.353E-01 0.441E-01 0.490E-01 0.499E-01 0.601E-01


 Contracted 2-electron integrals neglected if value below      1.0D-11
 AO integral compression algorithm  1   Integral accuracy      1.0D-11

     14.156 MB (compressed) written to integral file ( 45.3%)


 NUMBER OF SORTED TWO-ELECTRON INTEGRALS:    3454506.     BUFFER LENGTH:  32768
 NUMBER OF SEGMENTS:   1  SEGMENT LENGTH:    3454506      RECORD LENGTH: 524288

 Memory used in sort:       4.01 MW

 SORT1 READ     3931143. AND WROTE     2907067. INTEGRALS IN      9 RECORDS. CPU TIME:     0.04 SEC, REAL TIME:     0.09 SEC
 SORT2 READ     2907067. AND WROTE     3454506. INTEGRALS IN     54 RECORDS. CPU TIME:     0.12 SEC, REAL TIME:     0.15 SEC

 FILE SIZES:   FILE 1:    44.4 MBYTE,  FILE 4:    37.8 MBYTE,   TOTAL:     82.2 MBYTE

 OPERATOR DM      FOR CENTER  0  COORDINATES:    0.000000    0.000000    0.000000


 **********************************************************************************************************************************
 DATASETS  * FILE   NREC   LENGTH (MB)   RECORD NAMES
              1      19       42.45       500      610      700      900      950      970     1000      129      960     1100   
                                          VAR    BASINP    GEOM    SYMINP    ZMAT    AOBASIS   BASIS     P2S    ABASIS      S 
                                         1400     1410     1200     1210     1080     1600     1650     1300     1700   
                                           T        V       H0       H01     AOSYM     SMH    MOLCAS    ERIS     OPER   

 PROGRAMS   *        TOTAL       INT
 CPU TIMES  *         1.03      0.88
 REAL TIME  *         2.84 SEC
 DISK USED  *        82.64 MB      
 **********************************************************************************************************************************

 Density functional group LDA=DIRAC+VWN5
 Functional: DIRAC(Automatically generated (new) DIRAC)                        Gradient terms: 0
 Functional: VWN5(Automatically generated (new) VWN5)                          Gradient terms: 0
 Use grid at  1800.2

 Functional: DIRAC                     Factor:  1.0000
 Functional: VWN5                      Factor:  1.0000

 Generated new metagrid on record  1800.2 with target accuracy 1.0D-06 and 33732 points in CPU time    0.9
 Computed new grid on record 1800.1 in CPU time    1.0
   33765 words reserved for DFT integration

 PROGRAM * RKS-SCF (Restricted closed shell Kohn-Sham)     Authors: W. Meyer, H.-J. Werner, P.J. Knowles, 1993

 NUMBER OF ELECTRONS:      13+   13-    SPACE SYMMETRY=1    SPIN SYMMETRY: Singlet 
 CONVERGENCE THRESHOLDS:    1.00E-05 (Density)    1.00E-06 (Energy)
 MAX. NUMBER OF ITERATIONS:       60
 INTERPOLATION TYPE:            DIIS
 INTERPOLATION STEPS:              2 (START)      1 (STEP)
 LEVEL SHIFTS:                  0.00 (CLOSED)  0.00 (OPEN) 



 Use fine grid record 1800.2 for energy threshold  1.0D-06
 Orbital guess generated from atomic densities. Full valence occupancy:   13

 Molecular orbital dump at record        2100.2

 Initial occupancy:  13

 ITERATION    DDIFF          GRAD             ENERGY        2-EL.EN.            DIPOLE MOMENTS         DIIS   ORB.
    1      0.000D+00      0.000D+00      -153.46994990    325.651002    0.80775    0.00000    0.54166    0    start
    2      0.000D+00      0.122D-01      -153.30510210    301.972111   -0.48377    0.00000   -0.32439    1    diag
    3      0.338D-01      0.191D-01      -153.59336976    317.145869    0.51986    0.00000    0.34860    2    diag
    4      0.236D-01      0.297D-02      -153.59801574    316.455132    0.38192    0.00000    0.25611    3    diag
    5      0.247D-02      0.101D-02      -153.59860287    316.386953    0.40030    0.00000    0.26844    4    diag
    6      0.690D-03      0.125D-03      -153.59861327    316.411446    0.39681    0.00000    0.26610    5    diag
    7      0.967D-04      0.186D-04      -153.59861357    316.420444    0.39934    0.00000    0.26779    6    diag
    8      0.237D-04      0.399D-05      -153.59861358    316.421540    0.39890    0.00000    0.26750    7    diag
    9      0.405D-05      0.298D-06      -153.59861358    316.421784    0.39893    0.00000    0.26752    0    orth

 Final occupancy:  13

 !RKS STATE 1.1 Energy               -153.598613581215
 Nuclear energy                        83.80024479
 One-electron energy                 -375.32142063
 Two-electron energy                  158.21089183
 Density functional                   -20.28832957     DIRAC=-18.63282560 VWN5= -1.65550397
 Virial quotient                       -1.00535675
 !RKS STATE 1.1 Dipole moment           0.39892947     0.00000000     0.26751850
 Dipole moment /Debye                   1.01391117     0.00000000     0.67991968

 Orbital energies:

         1.1          2.1          3.1          4.1          5.1          6.1          7.1          8.1          9.1         10.1
    -18.604206    -9.820768    -9.820733    -0.926963    -0.644560    -0.559980    -0.434101    -0.419805    -0.417123    -0.347132

        11.1         12.1         13.1         14.1         15.1
     -0.330435    -0.268362    -0.206737     0.033431     0.083114

 HOMO     13.1    -0.206737 =      -5.6256eV
 LUMO     14.1     0.033431 =       0.9097eV
 LUMO-HOMO         0.240168 =       6.5353eV


 **********************************************************************************************************************************
 DATASETS  * FILE   NREC   LENGTH (MB)   RECORD NAMES
              1      20       43.53       500      610      700      900      950      970     1000      129      960     1100   
                                          VAR    BASINP    GEOM    SYMINP    ZMAT    AOBASIS   BASIS     P2S    ABASIS      S 
                                         1400     1410     1200     1210     1080     1600     1650     1300     1700     1800   
                                           T        V       H0       H01     AOSYM     SMH    MOLCAS    ERIS     OPER     GRID   

              2       5        3.00       700     1000      520     1800     2100   
                                         GEOM     BASIS   MCVARS    GRID      RKS  

 PROGRAMS   *        TOTAL        KS       INT
 CPU TIMES  *         3.99      2.96      0.88
 REAL TIME  *         6.33 SEC
 DISK USED  *        82.64 MB      
 **********************************************************************************************************************************


 PROGRAM * Intrinsic Basis Bonding Analysis (IBBA)          Author: G. Knizia

 Molecular orbitals read from record     2100.2  Type=RKS/CANONICAL (state 1.1)
 Fock matrix read from record            2100.2  Type=RKS/TOTAL (state 1.1)
 Orbital energies read from record       2100.2  Type=RKS/CANONICAL (state 1.1)
 Density matrix read from record         2100.2  Type=RKS/CHARGE (state 1.1)

 Number of core orbitals:           3 (   3 )
 Number of closed-shell orbitals:  10 (  10 )

 Basis set MINAO-AUTO-PP generated.      Number of basis functions:   21 

 Polarized AO type:                A = (O Ot + (1-O)(1-Ot)) P12
 Orthogonalization method:         Symmetric (Loewdin)
 Localization functional:          L = sum[A,i] <i|n_A|i>^4 -> max

 Localization group 1:  13 orbitals, occupancy  2.000
 Iterative localization: IB/PM,    7 iter; Final gradient 0.19E-09

 Bond order analysis:       [THRPRINT= 0.020]

   CEN ATOM   CEN ATOM     WIBERG.BO      RENORM.BO
     1   O  -   2   C       0.998982       1.021263
     1   O  -   3   C       0.998978       1.021261
     1   O  -   8   H       0.037009       0.022384
     1   O  -   6   H       0.037009       0.022384
     1   O  -   9   H       0.037007       0.022384
     1   O  -   7   H       0.037007       0.022384

     2   C  -   1   O       0.998982       1.021263
     2   C  -   4   H       0.951528       0.976369
     2   C  -   8   H       0.941697       0.931053
     2   C  -   6   H       0.941697       0.931053

     3   C  -   1   O       0.998978       1.021261
     3   C  -   5   H       0.951532       0.976369
     3   C  -   9   H       0.941697       0.931056
     3   C  -   7   H       0.941697       0.931056

     4   H  -   2   C       0.951528       0.976369

     5   H  -   3   C       0.951532       0.976369

     6   H  -   2   C       0.941697       0.931053
     6   H  -   1   O       0.037009       0.022384

     7   H  -   3   C       0.941697       0.931056
     7   H  -   1   O       0.037007       0.022384

     8   H  -   2   C       0.941697       0.931053
     8   H  -   1   O       0.037009       0.022384

     9   H  -   3   C       0.941697       0.931056
     9   H  -   1   O       0.037007       0.022384


 Valency analysis:

   CEN ATOM   TOT.VALENCE
     1   O       2.158955
     2   C       3.854791
     3   C       3.854790
     4   H       0.973750
     5   H       0.973753
     6   H       0.984977
     7   H       0.984976
     8   H       0.984977
     9   H       0.984976

 Total charge composition:

   CEN ATOM         s          p       ELECTRONS ->P.CHARGE
     1   O       3.57566    4.76524      8.34090   -0.34090
     2   C       3.01408    3.22262      6.23671   -0.23671
     3   C       3.01408    3.22262      6.23670   -0.23670
     4   H       0.83798                 0.83798    0.16202
     5   H       0.83799                 0.83799    0.16201
     6   H       0.87743                 0.87743    0.12257
     7   H       0.87743                 0.87743    0.12257
     8   H       0.87743                 0.87743    0.12257
     9   H       0.87743                 0.87743    0.12257

 Total charge composition, AO contributions:

   CEN ATOM SHL      SPHERICAL COMPONENTS
     1   O  1s       1.99733
     1   O  2s       1.57832
     1   O  2p       1.51409    1.89422    1.35693

     2   C  1s       1.99271
     2   C  2s       1.02137
     2   C  2p       1.20675    1.18848    0.82740

     3   C  1s       1.99271
     3   C  2s       1.02137
     3   C  2p       0.88194    1.18848    1.15220

     4   H  1s       0.83798

     5   H  1s       0.83799

     6   H  1s       0.87743

     7   H  1s       0.87743

     8   H  1s       0.87743

     9   H  1s       0.87743

 Summary of localized orbital composition:   [THRPRINT= 0.020]

   ORB  GRP  ORB.ENERGY      CENTERS/CHARGES
     1   1   -18.467210      O  1   2.000
     2   1    -9.717099      C  2   2.000
     3   1    -9.717098      C  3   2.000
     4   1    -0.700866      O  1   1.241   C  2   0.751
     5   1    -0.700861      O  1   1.241   C  3   0.751
     6   1    -0.465010      O  1   1.961   (other: 0.039)
     7   1    -0.463843      C  3   1.143   H  7   0.855
     8   1    -0.463843      C  3   1.143   H  9   0.855
     9   1    -0.463841      C  2   1.143   H  8   0.855
    10   1    -0.463841      C  2   1.143   H  6   0.855
    11   1    -0.462671      C  3   1.163   H  5   0.829
    12   1    -0.462665      C  2   1.163   H  4   0.829
    13   1    -0.252058      O  1   1.894   C  2   0.021   C  3   0.021   (other: 0.065)

 Localized orbitals saved to record      2100.2  (orbital set 2)


 **********************************************************************************************************************************
 DATASETS  * FILE   NREC   LENGTH (MB)   RECORD NAMES
              1      20       43.53       500      610      700      900      950      970     1000      129      960     1100   
                                          VAR    BASINP    GEOM    SYMINP    ZMAT    AOBASIS   BASIS     P2S    ABASIS      S 
                                         1400     1410     1200     1210     1080     1600     1650     1300     1700     1800   
                                           T        V       H0       H01     AOSYM     SMH    MOLCAS    ERIS     OPER     GRID   

              2       5        3.04       700     1000      520     1800     2100   
                                         GEOM     BASIS   MCVARS    GRID      RKS  

 PROGRAMS   *        TOTAL      IBBA        KS       INT
 CPU TIMES  *         4.02      0.02      2.96      0.88
 REAL TIME  *         6.44 SEC
 DISK USED  *        82.64 MB      
 **********************************************************************************************************************************
 Molecular orbitals read from record     2100.2  Type=RKS/LOCAL(IBO)  
 Occupation numbers read from record     2100.2  Type=RKS/LOCAL(IBO)  
 Orbital energies read from record       2100.2  Type=RKS/LOCAL(IBO)  
 Redundancy group numbers read from rec  2100.2  Type=RKS/LOCAL(IBO)  

 IBBA/SVP energy=      0.000000000000

        KS-SCF  
   -153.59861358
 **********************************************************************************************************************************
 Molpro calculation terminated
