
 Primary working directories    : /tmp/sb13343
 Secondary working directories  : /tmp/sb13343
 Wavefunction directory         : /panfs/panasas01/chem/sb13343/wfu/
 Main file repository           : /tmp/sb13343/

 SHA1      : b4a5b34a9e711420743f49e6833241d17c61fb3c
 NAME      : 2099.9.b4a5b34
 ARCHNAME  : linux/x86_64_openmp
 FC        : /cm/shared/languages/GCC-6.1/bin/gfortran
 BLASLIB   : -lblas
 id        : simonbennie

 Nodes     nprocs
 node35-048    1

 Using customized tuning parameters: mindgm=1; mindgv=20; mindgc=4; mindgr=1; noblas=0; minvec=7
 default implementation of scratch files=df  

 memory,500,m
 geomtyp=xyz
 nosym
 noorient
 geometry={
 O          0.00000        0.00000        0.00000
 C          0.00000        0.00000        1.40986
 C          1.30431        0.00000       -0.53525
 H         -1.04418        0.00000        1.73410
 H          1.20786        0.00000       -1.62434
 H          0.50101        0.89295        1.81977
 H          1.87373        0.89295       -0.22737
 H          0.50101       -0.89295        1.81977
 H          1.87373       -0.89295       -0.22737
 }
 basis={ default,svp }
 {uks,B97R,direct;wf,26,1,0}
 {ibba,bonds=1}

 Variables initialized (895), CPU time= 0.00 sec
 Commands  initialized (725), CPU time= 0.01 sec, 591 directives.
 Default parameters read. Elapsed time= 3.85 sec

 Checking input...
 Passed
1


                                         ***  PROGRAM SYSTEM MOLPRO  ***
                                       Copyright, TTI GmbH Stuttgart, 2015
                                    Version 2099.9 linked May 26 2017 16:03:21


 **********************************************************************************************************************************
 LABEL *                                                                                 
  64 bit serial version                                                                  DATE: 07-Jun-17          TIME: 16:37:11  
 **********************************************************************************************************************************

 SHA1:             b4a5b34a9e711420743f49e6833241d17c61fb3c
 **********************************************************************************************************************************
 SETTING GEOMTYP        =    XYZ

 Variable memory set to  500000000 words,  buffer space 

 ZSYMEL=NOSYM

 SETTING BASIS          =    SVP


 Recomputing integrals since basis changed


 Using spherical harmonics

 Library entry O      S def2-SVP             selected for orbital group  1
 Library entry O      P def2-SVP             selected for orbital group  1
 Library entry O      D def2-SVP             selected for orbital group  1
 Library entry C      S def2-SVP             selected for orbital group  2
 Library entry C      P def2-SVP             selected for orbital group  2
 Library entry C      D def2-SVP             selected for orbital group  2
 Library entry H      S def2-SVP             selected for orbital group  3
 Library entry H      P def2-SVP             selected for orbital group  3


 PROGRAM * SEWARD (Integral evaluation for generally contracted gaussian basis sets)     Author: Roland Lindh, 1990

 Geometry written to block  1 of record 700


 Point group  C1  



 ATOMIC COORDINATES

 NR  ATOM    CHARGE       X              Y              Z

   1  O       8.00    0.000000000    0.000000000    0.000000000
   2  C       6.00    0.000000000    0.000000000    2.664249274
   3  C       6.00    2.464788682    0.000000000   -1.011475908
   4  H       1.00   -1.973214225    0.000000000    3.276974073
   5  H       1.00    2.282524597    0.000000000   -3.069557733
   6  H       1.00    0.946771686    1.687430943    3.438866910
   7  H       1.00    3.540836531    1.687430943   -0.429667029
   8  H       1.00    0.946771686   -1.687430943    3.438866910
   9  H       1.00    3.540836531   -1.687430943   -0.429667029

 Bond lengths in Bohr (Angstrom)

 1-2  2.664249274  1-3  2.664257262  2-4  2.066157316  2-6  2.084186243  2-8  2.084186243
     ( 1.409860000)     ( 1.409864227)     ( 1.093363366)     ( 1.102903863)     ( 1.102903863)

 3-5  2.066136732  3-7  2.084179391  3-9  2.084179391
     ( 1.093352473)     ( 1.102900237)     ( 1.102900237)

 Bond angles

  1-2-4  107.25067522   1-2-6  111.81829608   1-2-8  111.81829608   1-3-5  107.25086594

  1-3-7  111.81797398   1-3-9  111.81797398   2-1-3  112.31178693   4-2-6  108.88149892

  4-2-8  108.88149892   5-3-7  108.88146655   5-3-9  108.88146655   6-2-8  108.12064679

  7-3-9  108.12116643

 NUCLEAR CHARGE:                   26
 NUMBER OF PRIMITIVE AOS:         117
 NUMBER OF SYMMETRY AOS:          114
 NUMBER OF CONTRACTIONS:           72   (  72A   )
 NUMBER OF CORE ORBITALS:           3   (   3A   )
 NUMBER OF VALENCE ORBITALS:       18   (  18A   )


 NUCLEAR REPULSION ENERGY   83.80024479


 Eigenvalues of metric

         1 0.907E-02 0.130E-01 0.293E-01 0.353E-01 0.441E-01 0.490E-01 0.499E-01 0.601E-01


 Contracted 2-electron integrals neglected if value below      1.0D-11
 AO integral compression algorithm  1   Integral accuracy      1.0D-11

     14.156 MB (compressed) written to integral file ( 45.3%)


 NUMBER OF SORTED TWO-ELECTRON INTEGRALS:    3454506.     BUFFER LENGTH:  32768
 NUMBER OF SEGMENTS:   1  SEGMENT LENGTH:    3454506      RECORD LENGTH: 524288

 Memory used in sort:       4.01 MW

 SORT1 READ     3931143. AND WROTE     2907067. INTEGRALS IN      9 RECORDS. CPU TIME:     0.05 SEC, REAL TIME:     0.10 SEC
 SORT2 READ     2907067. AND WROTE     3454506. INTEGRALS IN     54 RECORDS. CPU TIME:     0.12 SEC, REAL TIME:     0.15 SEC

 FILE SIZES:   FILE 1:    44.4 MBYTE,  FILE 4:    37.8 MBYTE,   TOTAL:     82.2 MBYTE

 OPERATOR DM      FOR CENTER  0  COORDINATES:    0.000000    0.000000    0.000000


 **********************************************************************************************************************************
 DATASETS  * FILE   NREC   LENGTH (MB)   RECORD NAMES
              1      19       42.45       500      610      700      900      950      970     1000      129      960     1100   
                                          VAR    BASINP    GEOM    SYMINP    ZMAT    AOBASIS   BASIS     P2S    ABASIS      S 
                                         1400     1410     1200     1210     1080     1600     1650     1300     1700   
                                           T        V       H0       H01     AOSYM     SMH    MOLCAS    ERIS     OPER   

 PROGRAMS   *        TOTAL       INT
 CPU TIMES  *         0.93      0.79
 REAL TIME  *         6.18 SEC
 DISK USED  *        82.64 MB      
 **********************************************************************************************************************************

 Density functional group B97R=B97RDF
 Functional: B97RDF(Automatically generated (new) B97RDF)                      Gradient terms: 1
 Use grid at  1800.2


 Exact exchange will be calculated, factor:  0.2100

 Functional: B97RDF                    Factor:  1.0000

 Generated new metagrid on record  1800.2 with target accuracy 1.0D-06 and 33732 points in CPU time    0.9
 Computed new grid on record 1800.1 in CPU time    1.0
   61197 words reserved for DFT integration

 PROGRAM * UKS-SCF (Unrestricted Kohn-Sham)     Authors: W. Meyer, H.-J. Werner, P.J. Knowles, 1993

 NUMBER OF ELECTRONS:      13+   13-    SPACE SYMMETRY=1    SPIN SYMMETRY: Singlet 
 CONVERGENCE THRESHOLDS:    1.00E-05 (Density)    1.00E-06 (Energy)
 MAX. NUMBER OF ITERATIONS:       60
 INTERPOLATION TYPE:            DIIS
 INTERPOLATION STEPS:              2 (START)      1 (STEP)
 LEVEL SHIFTS:                 -0.20 (ALPHA)  -0.20 (BETA) 



 Use fine grid record 1800.2 for energy threshold  1.0D-06
 Orbital guess generated from atomic densities. Full valence occupancy:   13

 Molecular orbital dump at record        2200.2

 Initial alpha occupation  13
 Initial beta  occupation  13

 ITERATION    DDIFF          GRAD             ENERGY        2-EL.EN.            DIPOLE MOMENTS         DIIS
    1      0.000D+00      0.000D+00      -154.79198840    314.374216    0.77675    0.00000    0.52081    0
    2      0.960D-02      0.476D-02      -154.84682067    306.200414    0.40427    0.00000    0.27118    1
    3      0.305D-02      0.212D-02      -154.85521643    308.261782    0.47626    0.00000    0.31944    2
    4      0.996D-03      0.439D-03      -154.85576967    308.063365    0.44574    0.00000    0.29898    3
    5      0.829D-03      0.178D-03      -154.85596179    308.004051    0.43484    0.00000    0.29166    4
    6      0.476D-03      0.618D-04      -154.85599521    307.985489    0.42674    0.00000    0.28622    5
    7      0.982D-04      0.134D-04      -154.85599676    307.979846    0.42623    0.00000    0.28588    6
    8      0.208D-04      0.272D-05      -154.85599684    307.979780    0.42589    0.00000    0.28566    6
    9      0.430D-05      0.668D-06      -154.85599684    307.980266    0.42592    0.00000    0.28567    6
   10      0.571D-06      0.301D-06      -154.85599684    307.979936    0.42589    0.00000    0.28566    6

 Final alpha occupancy:  13
 Final beta  occupancy:  13

 !UKS STATE 1.1 Energy               -154.855996841747
 Nuclear energy                        83.80024479
 One-electron energy                 -375.38273955
 Two-electron energy                  153.98996794
 Density functional                   -17.26347002     B97RDF=-17.26347002
 Virial quotient                       -1.00982400
 !UKS STATE 1.1 Dipole moment           0.42589306     0.00000000     0.28565951
 Dipole moment /Debye                   1.08244129     0.00000000     0.72602649

 Orbital energies for positive spin:

         1.1          2.1          3.1          4.1          5.1          6.1          7.1          8.1          9.1         10.1
    -19.144596   -10.236335   -10.236322    -1.025071    -0.716674    -0.631107    -0.477890    -0.469439    -0.468600    -0.394260

        11.1         12.1         13.1         14.1         15.1
     -0.376119    -0.316040    -0.254994     0.068462     0.114286

 Orbital energies for negative spin:

         1.1          2.1          3.1          4.1          5.1          6.1          7.1          8.1          9.1         10.1
    -19.144595   -10.236335   -10.236322    -1.025070    -0.716673    -0.631107    -0.477889    -0.469438    -0.468600    -0.394260

        11.1         12.1         13.1         14.1         15.1
     -0.376119    -0.316040    -0.254993     0.068462     0.114286

 HOMO    -13.1    -0.254993 =      -6.9387eV
 LUMO     14.1     0.068462 =       1.8629eV
 LUMO-HOMO         0.323455 =       8.8017eV

 EXPECTATION VALUE OF S**2:             0.00000000

 Occupation number threshold for canonical orbitals:  1.999000 (occupied),  0.001000 (virtual)

 Number of pseudo-canonical orbitals per symmetry:   13
 Number of active natural orbitals per symmetry:      0

 Natural orbitals saved to record    2200.2 (Orbital set 3)

 Orbital spaces for UNO-CAS (Min. occupation: 0.020  Max. occupation: 1.980):

 Closed:       13
 Active:        0


 **********************************************************************************************************************************
 DATASETS  * FILE   NREC   LENGTH (MB)   RECORD NAMES
              1      20       43.53       500      610      700      900      950      970     1000      129      960     1100   
                                          VAR    BASINP    GEOM    SYMINP    ZMAT    AOBASIS   BASIS     P2S    ABASIS      S 
                                         1400     1410     1200     1210     1080     1600     1650     1300     1700     1800   
                                           T        V       H0       H01     AOSYM     SMH    MOLCAS    ERIS     OPER     GRID   

              2       5        3.11       700     1000      520     1800     2200   
                                         GEOM     BASIS   MCVARS    GRID      UKS  

 PROGRAMS   *        TOTAL       UKS       INT
 CPU TIMES  *         8.43      7.50      0.79
 REAL TIME  *        17.01 SEC
 DISK USED  *        82.64 MB      
 **********************************************************************************************************************************


 PROGRAM * Intrinsic Basis Bonding Analysis (IBBA)          Author: G. Knizia

 Molecular orbitals read from record     2200.2  Type=UKS/ALPHA (state 1.1)
 Fock matrix read from record            2200.2  Type=UKS/TOTAL (state 1.1)
 Orbital energies read from record       2200.2  Type=UKS/ALPHA (state 1.1)
 Density matrix read from record         2200.2  Type=UKS/CHARGE (state 1.1)

 Number of core orbitals:           3 (   3 )
 Number of closed-shell orbitals:  10 (  10 )

 Basis set MINAO-AUTO-PP generated.      Number of basis functions:   21 

 Polarized AO type:                A = (O Ot + (1-O)(1-Ot)) P12
 Orthogonalization method:         Symmetric (Loewdin)
 Localization functional:          L = sum[A,i] <i|n_A|i>^4 -> max

 Localization group 1:  13 orbitals, occupancy  2.000
 Iterative localization: IB/PM,    7 iter; Final gradient 0.23E-09

 Bond order analysis:       [THRPRINT= 0.020]

   CEN ATOM   CEN ATOM     WIBERG.BO      RENORM.BO
     1   O  -   2   C       0.988953       1.020562
     1   O  -   3   C       0.988939       1.020563
     1   O  -   8   H       0.033271       0.019734
     1   O  -   6   H       0.033271       0.019734
     1   O  -   9   H       0.033268       0.019733
     1   O  -   7   H       0.033268       0.019733

     2   C  -   1   O       0.988953       1.020562
     2   C  -   4   H       0.959181       0.978007
     2   C  -   8   H       0.950437       0.937824
     2   C  -   6   H       0.950437       0.937824

     3   C  -   1   O       0.988939       1.020563
     3   C  -   5   H       0.959179       0.978006
     3   C  -   9   H       0.950439       0.937829
     3   C  -   7   H       0.950439       0.937829

     4   H  -   2   C       0.959181       0.978007

     5   H  -   3   C       0.959179       0.978006

     6   H  -   2   C       0.950437       0.937824
     6   H  -   1   O       0.033271       0.019734

     7   H  -   3   C       0.950439       0.937829
     7   H  -   1   O       0.033268       0.019733

     8   H  -   2   C       0.950437       0.937824
     8   H  -   1   O       0.033271       0.019734

     9   H  -   3   C       0.950439       0.937829
     9   H  -   1   O       0.033268       0.019733


 Valency analysis:

   CEN ATOM   TOT.VALENCE
     1   O       2.122267
     2   C       3.867557
     3   C       3.867544
     4   H       0.978708
     5   H       0.978708
     6   H       0.988225
     7   H       0.988224
     8   H       0.988225
     9   H       0.988224

 Total charge composition:

   CEN ATOM         s          p       ELECTRONS ->P.CHARGE
     1   O       3.58975    4.78625      8.37600   -0.37600
     2   C       3.01788    3.15707      6.17495   -0.17495
     3   C       3.01787    3.15706      6.17493   -0.17493
     4   H       0.85408                 0.85408    0.14592
     5   H       0.85408                 0.85408    0.14592
     6   H       0.89149                 0.89149    0.10851
     7   H       0.89148                 0.89148    0.10852
     8   H       0.89149                 0.89149    0.10851
     9   H       0.89148                 0.89148    0.10852

 Total charge composition, AO contributions:

   CEN ATOM SHL      SPHERICAL COMPONENTS
     1   O  1s       1.99701
     1   O  2s       1.59274
     1   O  2p       1.51856    1.90533    1.36236

     2   C  1s       1.99162
     2   C  2s       1.02627
     2   C  2p       1.18310    1.16314    0.81083

     3   C  1s       1.99162
     3   C  2s       1.02626
     3   C  2p       0.86463    1.16315    1.12928

     4   H  1s       0.85408

     5   H  1s       0.85408

     6   H  1s       0.89149

     7   H  1s       0.89148

     8   H  1s       0.89149

     9   H  1s       0.89148

 Summary of localized orbital composition:   [THRPRINT= 0.020]

   ORB  GRP  ORB.ENERGY      CENTERS/CHARGES
     1   1   -18.992897      O  1   2.000
     2   1   -10.126920      C  3   2.000
     3   1   -10.126918      C  2   2.000
     4   1    -0.762706      O  1   1.252   C  3   0.740
     5   1    -0.762695      O  1   1.252   C  2   0.740
     6   1    -0.549424      O  1   1.964   (other: 0.036)
     7   1    -0.520414      C  3   1.127   H  9   0.872
     8   1    -0.520414      C  3   1.127   H  7   0.872
     9   1    -0.520410      C  2   1.127   H  8   0.872
    10   1    -0.520410      C  2   1.127   H  6   0.872
    11   1    -0.519871      C  2   1.147   H  4   0.847
    12   1    -0.519868      C  3   1.147   H  5   0.847
    13   1    -0.304549      O  1   1.905   (other: 0.095)

 Localized orbitals saved to record      2200.2  (orbital set 4)


 **********************************************************************************************************************************
 DATASETS  * FILE   NREC   LENGTH (MB)   RECORD NAMES
              1      20       43.53       500      610      700      900      950      970     1000      129      960     1100   
                                          VAR    BASINP    GEOM    SYMINP    ZMAT    AOBASIS   BASIS     P2S    ABASIS      S 
                                         1400     1410     1200     1210     1080     1600     1650     1300     1700     1800   
                                           T        V       H0       H01     AOSYM     SMH    MOLCAS    ERIS     OPER     GRID   

              2       5        3.15       700     1000      520     1800     2200   
                                         GEOM     BASIS   MCVARS    GRID      UKS  

 PROGRAMS   *        TOTAL      IBBA       UKS       INT
 CPU TIMES  *         8.45      0.01      7.50      0.79
 REAL TIME  *        18.19 SEC
 DISK USED  *        82.64 MB      
 **********************************************************************************************************************************
 Molecular orbitals read from record     2200.2  Type=UKS/LOCAL(IBO)  
 Occupation numbers read from record     2200.2  Type=UKS/LOCAL(IBO)  
 Orbital energies read from record       2200.2  Type=UKS/LOCAL(IBO)  
 Redundancy group numbers read from rec  2200.2  Type=UKS/BETA (state 1.1)

 IBBA/SVP energy=      0.000000000000

        UKS-SCF 
   -154.85599684
 **********************************************************************************************************************************
 Molpro calculation terminated
