
 Primary working directories    : /tmp/sb13343
 Secondary working directories  : /tmp/sb13343
 Wavefunction directory         : /panfs/panasas01/chem/sb13343/wfu/
 Main file repository           : /tmp/sb13343/

 SHA1      : b4a5b34a9e711420743f49e6833241d17c61fb3c
 NAME      : 2099.9.b4a5b34
 ARCHNAME  : linux/x86_64_openmp
 FC        : /cm/shared/languages/GCC-6.1/bin/gfortran
 BLASLIB   : -lblas
 id        : simonbennie

 Nodes     nprocs
 node33-016    1

 Using customized tuning parameters: mindgm=1; mindgv=20; mindgc=4; mindgr=1; noblas=0; minvec=7
 default implementation of scratch files=df  

 memory,500,m
 geomtyp=xyz
 nosym
 noorient
 geometry={
 O          0.00000        0.00000        0.00000
 C          0.00000        0.00000        1.40986
 C          1.30431        0.00000       -0.53525
 H         -1.04418        0.00000        1.73410
 H          1.20786        0.00000       -1.62434
 H          0.50101        0.89295        1.81977
 H          1.87373        0.89295       -0.22737
 H          0.50101       -0.89295        1.81977
 H          1.87373       -0.89295       -0.22737
 }
 basis={ default,svp }
 {uks,D,direct;wf,26,1,0}
 {ibba,bonds=1}

 Variables initialized (895), CPU time= 0.01 sec
 Commands  initialized (725), CPU time= 0.01 sec, 591 directives.
 Default parameters read. Elapsed time= 2.50 sec

 Checking input...
 Passed
1


                                         ***  PROGRAM SYSTEM MOLPRO  ***
                                       Copyright, TTI GmbH Stuttgart, 2015
                                    Version 2099.9 linked May 26 2017 16:03:21


 **********************************************************************************************************************************
 LABEL *                                                                                 
  64 bit serial version                                                                  DATE: 07-Jun-17          TIME: 16:38:45  
 **********************************************************************************************************************************

 SHA1:             b4a5b34a9e711420743f49e6833241d17c61fb3c
 **********************************************************************************************************************************
 SETTING GEOMTYP        =    XYZ

 Variable memory set to  500000000 words,  buffer space 

 ZSYMEL=NOSYM

 SETTING BASIS          =    SVP


 Recomputing integrals since basis changed


 Using spherical harmonics

 Library entry O      S def2-SVP             selected for orbital group  1
 Library entry O      P def2-SVP             selected for orbital group  1
 Library entry O      D def2-SVP             selected for orbital group  1
 Library entry C      S def2-SVP             selected for orbital group  2
 Library entry C      P def2-SVP             selected for orbital group  2
 Library entry C      D def2-SVP             selected for orbital group  2
 Library entry H      S def2-SVP             selected for orbital group  3
 Library entry H      P def2-SVP             selected for orbital group  3


 PROGRAM * SEWARD (Integral evaluation for generally contracted gaussian basis sets)     Author: Roland Lindh, 1990

 Geometry written to block  1 of record 700


 Point group  C1  



 ATOMIC COORDINATES

 NR  ATOM    CHARGE       X              Y              Z

   1  O       8.00    0.000000000    0.000000000    0.000000000
   2  C       6.00    0.000000000    0.000000000    2.664249274
   3  C       6.00    2.464788682    0.000000000   -1.011475908
   4  H       1.00   -1.973214225    0.000000000    3.276974073
   5  H       1.00    2.282524597    0.000000000   -3.069557733
   6  H       1.00    0.946771686    1.687430943    3.438866910
   7  H       1.00    3.540836531    1.687430943   -0.429667029
   8  H       1.00    0.946771686   -1.687430943    3.438866910
   9  H       1.00    3.540836531   -1.687430943   -0.429667029

 Bond lengths in Bohr (Angstrom)

 1-2  2.664249274  1-3  2.664257262  2-4  2.066157316  2-6  2.084186243  2-8  2.084186243
     ( 1.409860000)     ( 1.409864227)     ( 1.093363366)     ( 1.102903863)     ( 1.102903863)

 3-5  2.066136732  3-7  2.084179391  3-9  2.084179391
     ( 1.093352473)     ( 1.102900237)     ( 1.102900237)

 Bond angles

  1-2-4  107.25067522   1-2-6  111.81829608   1-2-8  111.81829608   1-3-5  107.25086594

  1-3-7  111.81797398   1-3-9  111.81797398   2-1-3  112.31178693   4-2-6  108.88149892

  4-2-8  108.88149892   5-3-7  108.88146655   5-3-9  108.88146655   6-2-8  108.12064679

  7-3-9  108.12116643

 NUCLEAR CHARGE:                   26
 NUMBER OF PRIMITIVE AOS:         117
 NUMBER OF SYMMETRY AOS:          114
 NUMBER OF CONTRACTIONS:           72   (  72A   )
 NUMBER OF CORE ORBITALS:           3   (   3A   )
 NUMBER OF VALENCE ORBITALS:       18   (  18A   )


 NUCLEAR REPULSION ENERGY   83.80024479


 Eigenvalues of metric

         1 0.907E-02 0.130E-01 0.293E-01 0.353E-01 0.441E-01 0.490E-01 0.499E-01 0.601E-01


 Contracted 2-electron integrals neglected if value below      1.0D-11
 AO integral compression algorithm  1   Integral accuracy      1.0D-11

     14.156 MB (compressed) written to integral file ( 45.3%)


 NUMBER OF SORTED TWO-ELECTRON INTEGRALS:    3454506.     BUFFER LENGTH:  32768
 NUMBER OF SEGMENTS:   1  SEGMENT LENGTH:    3454506      RECORD LENGTH: 524288

 Memory used in sort:       4.01 MW

 SORT1 READ     3931143. AND WROTE     2907067. INTEGRALS IN      9 RECORDS. CPU TIME:     0.04 SEC, REAL TIME:     0.09 SEC
 SORT2 READ     2907067. AND WROTE     3454506. INTEGRALS IN     54 RECORDS. CPU TIME:     0.12 SEC, REAL TIME:     0.15 SEC

 FILE SIZES:   FILE 1:    44.4 MBYTE,  FILE 4:    37.8 MBYTE,   TOTAL:     82.2 MBYTE

 OPERATOR DM      FOR CENTER  0  COORDINATES:    0.000000    0.000000    0.000000


 **********************************************************************************************************************************
 DATASETS  * FILE   NREC   LENGTH (MB)   RECORD NAMES
              1      19       42.45       500      610      700      900      950      970     1000      129      960     1100   
                                          VAR    BASINP    GEOM    SYMINP    ZMAT    AOBASIS   BASIS     P2S    ABASIS      S 
                                         1400     1410     1200     1210     1080     1600     1650     1300     1700   
                                           T        V       H0       H01     AOSYM     SMH    MOLCAS    ERIS     OPER   

 PROGRAMS   *        TOTAL       INT
 CPU TIMES  *         0.93      0.78
 REAL TIME  *         4.01 SEC
 DISK USED  *        82.64 MB      
 **********************************************************************************************************************************

 Density functional group D=DIRAC
 Functional: DIRAC(Automatically generated (new) DIRAC)                        Gradient terms: 0
 Use grid at  1800.2

 Functional: DIRAC                     Factor:  1.0000

 Generated new metagrid on record  1800.2 with target accuracy 1.0D-06 and 33732 points in CPU time    1.0
 Computed new grid on record 1800.1 in CPU time    1.0
   33765 words reserved for DFT integration

 PROGRAM * UKS-SCF (Unrestricted Kohn-Sham)     Authors: W. Meyer, H.-J. Werner, P.J. Knowles, 1993

 NUMBER OF ELECTRONS:      13+   13-    SPACE SYMMETRY=1    SPIN SYMMETRY: Singlet 
 CONVERGENCE THRESHOLDS:    1.00E-05 (Density)    1.00E-06 (Energy)
 MAX. NUMBER OF ITERATIONS:       60
 INTERPOLATION TYPE:            DIIS
 INTERPOLATION STEPS:              2 (START)      1 (STEP)
 LEVEL SHIFTS:                 -0.20 (ALPHA)  -0.20 (BETA) 



 Use fine grid record 1800.2 for energy threshold  1.0D-06
 Orbital guess generated from atomic densities. Full valence occupancy:   13

 Molecular orbital dump at record        2200.2

 Initial alpha occupation  13
 Initial beta  occupation  13

 ITERATION    DDIFF          GRAD             ENERGY        2-EL.EN.            DIPOLE MOMENTS         DIIS
    1      0.000D+00      0.000D+00      -151.83180993    323.996061    0.74856    0.00000    0.50197    0
    2      0.137D-01      0.610D-02      -151.92260785    312.380416    0.33664    0.00000    0.22574    1
    3      0.468D-02      0.315D-02      -151.94344236    315.914299    0.42633    0.00000    0.28588    2
    4      0.126D-02      0.504D-03      -151.94414960    315.567968    0.38714    0.00000    0.25961    3
    5      0.990D-03      0.267D-03      -151.94446287    315.538217    0.37834    0.00000    0.25370    4
    6      0.792D-03      0.868D-04      -151.94454157    315.492915    0.36309    0.00000    0.24348    5
    7      0.186D-03      0.262D-04      -151.94454648    315.492692    0.36284    0.00000    0.24331    6
    8      0.435D-04      0.429D-05      -151.94454668    315.491346    0.36179    0.00000    0.24261    7
    9      0.547D-05      0.105D-05      -151.94454669    315.491577    0.36192    0.00000    0.24270    6
   10      0.166D-05      0.217D-06      -151.94454669    315.491676    0.36189    0.00000    0.24267    7

 Final alpha occupancy:  13
 Final beta  occupancy:  13

 !UKS STATE 1.1 Energy               -151.944546687016
 Nuclear energy                        83.80024479
 One-electron energy                 -374.90716870
 Two-electron energy                  157.74583782
 Density functional                   -18.58346060     DIRAC=-18.58346060
 Virial quotient                       -0.99655756
 !UKS STATE 1.1 Dipole moment           0.36188501     0.00000000     0.24267154
 Dipole moment /Debye                   0.91975971     0.00000000     0.61676914

 Orbital energies for positive spin:

         1.1          2.1          3.1          4.1          5.1          6.1          7.1          8.1          9.1         10.1
    -18.534489    -9.748221    -9.748185    -0.877271    -0.595246    -0.510554    -0.385026    -0.371723    -0.369215    -0.298294

        11.1         12.1         13.1         14.1         15.1
     -0.281571    -0.219152    -0.157811     0.067840     0.115561

 Orbital energies for negative spin:

         1.1          2.1          3.1          4.1          5.1          6.1          7.1          8.1          9.1         10.1
    -18.534489    -9.748221    -9.748185    -0.877271    -0.595246    -0.510554    -0.385026    -0.371723    -0.369215    -0.298294

        11.1         12.1         13.1         14.1         15.1
     -0.281571    -0.219152    -0.157811     0.067840     0.115561

 HOMO     13.1    -0.157811 =      -4.2943eV
 LUMO     14.1     0.067840 =       1.8460eV
 LUMO-HOMO         0.225651 =       6.1403eV

 EXPECTATION VALUE OF S**2:            -0.00000000

 Natural orbitals saved to record    2200.2 (Orbital set 3)

 Orbital spaces for UNO-CAS (Min. occupation: 0.020  Max. occupation: 1.980):

 Closed:       13
 Active:        0


 **********************************************************************************************************************************
 DATASETS  * FILE   NREC   LENGTH (MB)   RECORD NAMES
              1      20       43.53       500      610      700      900      950      970     1000      129      960     1100   
                                          VAR    BASINP    GEOM    SYMINP    ZMAT    AOBASIS   BASIS     P2S    ABASIS      S 
                                         1400     1410     1200     1210     1080     1600     1650     1300     1700     1800   
                                           T        V       H0       H01     AOSYM     SMH    MOLCAS    ERIS     OPER     GRID   

              2       5        3.11       700     1000      520     1800     2200   
                                         GEOM     BASIS   MCVARS    GRID      UKS  

 PROGRAMS   *        TOTAL       UKS       INT
 CPU TIMES  *         5.29      4.36      0.78
 REAL TIME  *         8.74 SEC
 DISK USED  *        82.64 MB      
 **********************************************************************************************************************************


 PROGRAM * Intrinsic Basis Bonding Analysis (IBBA)          Author: G. Knizia

 Molecular orbitals read from record     2200.2  Type=UKS/ALPHA (state 1.1)
 Fock matrix read from record            2200.2  Type=UKS/TOTAL (state 1.1)
 Orbital energies read from record       2200.2  Type=UKS/ALPHA (state 1.1)
 Density matrix read from record         2200.2  Type=UKS/CHARGE (state 1.1)

 Number of core orbitals:           3 (   3 )
 Number of closed-shell orbitals:  10 (  10 )

 Basis set MINAO-AUTO-PP generated.      Number of basis functions:   21 

 Polarized AO type:                A = (O Ot + (1-O)(1-Ot)) P12
 Orthogonalization method:         Symmetric (Loewdin)
 Localization functional:          L = sum[A,i] <i|n_A|i>^4 -> max

 Localization group 1:  13 orbitals, occupancy  2.000
 Iterative localization: IB/PM,    7 iter; Final gradient 0.20E-09

 Bond order analysis:       [THRPRINT= 0.020]

   CEN ATOM   CEN ATOM     WIBERG.BO      RENORM.BO
     1   O  -   2   C       1.004378       1.023316
     1   O  -   3   C       1.004374       1.023314
     1   O  -   8   H       0.038611       0.023196
     1   O  -   6   H       0.038611       0.023196
     1   O  -   9   H       0.038609       0.023195
     1   O  -   7   H       0.038609       0.023195

     2   C  -   1   O       1.004378       1.023316
     2   C  -   4   H       0.953494       0.975745
     2   C  -   8   H       0.941399       0.927297
     2   C  -   6   H       0.941399       0.927297

     3   C  -   1   O       1.004374       1.023314
     3   C  -   5   H       0.953497       0.975746
     3   C  -   9   H       0.941399       0.927300
     3   C  -   7   H       0.941399       0.927300

     4   H  -   2   C       0.953494       0.975745

     5   H  -   3   C       0.953497       0.975746

     6   H  -   2   C       0.941399       0.927297
     6   H  -   1   O       0.038611       0.023196

     7   H  -   3   C       0.941399       0.927300
     7   H  -   1   O       0.038609       0.023195

     8   H  -   2   C       0.941399       0.927297
     8   H  -   1   O       0.038611       0.023196

     9   H  -   3   C       0.941399       0.927300
     9   H  -   1   O       0.038609       0.023195


 Valency analysis:

   CEN ATOM   TOT.VALENCE
     1   O       2.176248
     2   C       3.862518
     3   C       3.862517
     4   H       0.976236
     5   H       0.976238
     6   H       0.986938
     7   H       0.986937
     8   H       0.986938
     9   H       0.986937

 Total charge composition:

   CEN ATOM         s          p       ELECTRONS ->P.CHARGE
     1   O       3.57220    4.75429      8.32649   -0.32649
     2   C       3.00865    3.21083      6.21949   -0.21949
     3   C       3.00865    3.21083      6.21949   -0.21949
     4   H       0.84584                 0.84584    0.15416
     5   H       0.84585                 0.84585    0.15415
     6   H       0.88571                 0.88571    0.11429
     7   H       0.88571                 0.88571    0.11429
     8   H       0.88571                 0.88571    0.11429
     9   H       0.88571                 0.88571    0.11429

 Total charge composition, AO contributions:

   CEN ATOM SHL      SPHERICAL COMPONENTS
     1   O  1s       1.99735
     1   O  2s       1.57485
     1   O  2p       1.51183    1.88860    1.35386

     2   C  1s       1.99283
     2   C  2s       1.01583
     2   C  2p       1.19996    1.18266    0.82822

     3   C  1s       1.99283
     3   C  2s       1.01583
     3   C  2p       0.88168    1.18266    1.14649

     4   H  1s       0.84584

     5   H  1s       0.84585

     6   H  1s       0.88571

     7   H  1s       0.88571

     8   H  1s       0.88571

     9   H  1s       0.88571

 Summary of localized orbital composition:   [THRPRINT= 0.020]

   ORB  GRP  ORB.ENERGY      CENTERS/CHARGES
     1   1   -18.398909      O  1   2.000
     2   1    -9.645590      C  3   2.000
     3   1    -9.645590      C  2   2.000
     4   1    -0.651702      O  1   1.238   C  2   0.754
     5   1    -0.651697      O  1   1.238   C  3   0.754
     6   1    -0.414603      C  3   1.135   H  7   0.862
     7   1    -0.414603      C  3   1.135   H  9   0.862
     8   1    -0.414601      C  2   1.135   H  8   0.862
     9   1    -0.414601      C  2   1.135   H  6   0.862
    10   1    -0.414125      O  1   1.958   (other: 0.042)
    11   1    -0.413580      C  3   1.155   H  5   0.837
    12   1    -0.413574      C  2   1.155   H  4   0.837
    13   1    -0.203546      O  1   1.888   C  2   0.022   C  3   0.022   (other: 0.068)

 Localized orbitals saved to record      2200.2  (orbital set 4)


 **********************************************************************************************************************************
 DATASETS  * FILE   NREC   LENGTH (MB)   RECORD NAMES
              1      20       43.53       500      610      700      900      950      970     1000      129      960     1100   
                                          VAR    BASINP    GEOM    SYMINP    ZMAT    AOBASIS   BASIS     P2S    ABASIS      S 
                                         1400     1410     1200     1210     1080     1600     1650     1300     1700     1800   
                                           T        V       H0       H01     AOSYM     SMH    MOLCAS    ERIS     OPER     GRID   

              2       5        3.15       700     1000      520     1800     2200   
                                         GEOM     BASIS   MCVARS    GRID      UKS  

 PROGRAMS   *        TOTAL      IBBA       UKS       INT
 CPU TIMES  *         5.32      0.03      4.36      0.78
 REAL TIME  *         8.82 SEC
 DISK USED  *        82.64 MB      
 **********************************************************************************************************************************
 Molecular orbitals read from record     2200.2  Type=UKS/LOCAL(IBO)  
 Occupation numbers read from record     2200.2  Type=UKS/LOCAL(IBO)  
 Orbital energies read from record       2200.2  Type=UKS/LOCAL(IBO)  
 Redundancy group numbers read from rec  2200.2  Type=UKS/BETA (state 1.1)

 IBBA/SVP energy=      0.000000000000

        UKS-SCF 
   -151.94454669
 **********************************************************************************************************************************
 Molpro calculation terminated
