
 Primary working directories    : /tmp/sb13343
 Secondary working directories  : /tmp/sb13343
 Wavefunction directory         : /panfs/panasas01/chem/sb13343/wfu/
 Main file repository           : /tmp/sb13343/

 SHA1      : b4a5b34a9e711420743f49e6833241d17c61fb3c
 NAME      : 2099.9.b4a5b34
 ARCHNAME  : linux/x86_64_openmp
 FC        : /cm/shared/languages/GCC-6.1/bin/gfortran
 BLASLIB   : -lblas
 id        : simonbennie

 Nodes     nprocs
 node32-014    1

 Using customized tuning parameters: mindgm=1; mindgv=20; mindgc=4; mindgr=1; noblas=0; minvec=7
 default implementation of scratch files=df  

 memory,500,m
 geomtyp=xyz
 nosym
 noorient
 geometry={
 O          0.00000        0.00000        0.00000
 C          0.00000        0.00000        1.40986
 C          1.30431        0.00000       -0.53525
 H         -1.04418        0.00000        1.73410
 H          1.20786        0.00000       -1.62434
 H          0.50101        0.89295        1.81977
 H          1.87373        0.89295       -0.22737
 H          0.50101       -0.89295        1.81977
 H          1.87373       -0.89295       -0.22737
 }
 basis={ default,sto-3g }
 {ks,M06,direct;wf,26,1,0}
 {ibba,bonds=1}

 Variables initialized (895), CPU time= 0.01 sec
 Commands  initialized (725), CPU time= 0.01 sec, 591 directives.
 Default parameters read. Elapsed time= 1.63 sec

 Checking input...
 Passed
1


                                         ***  PROGRAM SYSTEM MOLPRO  ***
                                       Copyright, TTI GmbH Stuttgart, 2015
                                    Version 2099.9 linked May 26 2017 16:03:21


 **********************************************************************************************************************************
 LABEL *                                                                                 
  64 bit serial version                                                                  DATE: 07-Jun-17          TIME: 16:30:11  
 **********************************************************************************************************************************

 SHA1:             b4a5b34a9e711420743f49e6833241d17c61fb3c
 **********************************************************************************************************************************
 SETTING GEOMTYP        =    XYZ

 Variable memory set to  500000000 words,  buffer space 

 ZSYMEL=NOSYM

 SETTING BASIS          =    STO-3G


 Recomputing integrals since basis changed


 Using spherical harmonics

 Library entry O      S STO-3G               selected for orbital group  1
 Library entry O      P STO-3G               selected for orbital group  1
 Library entry C      S STO-3G               selected for orbital group  2
 Library entry C      P STO-3G               selected for orbital group  2
 Library entry H      S STO-3G               selected for orbital group  3


 PROGRAM * SEWARD (Integral evaluation for generally contracted gaussian basis sets)     Author: Roland Lindh, 1990

 Geometry written to block  1 of record 700


 Point group  C1  



 ATOMIC COORDINATES

 NR  ATOM    CHARGE       X              Y              Z

   1  O       8.00    0.000000000    0.000000000    0.000000000
   2  C       6.00    0.000000000    0.000000000    2.664249274
   3  C       6.00    2.464788682    0.000000000   -1.011475908
   4  H       1.00   -1.973214225    0.000000000    3.276974073
   5  H       1.00    2.282524597    0.000000000   -3.069557733
   6  H       1.00    0.946771686    1.687430943    3.438866910
   7  H       1.00    3.540836531    1.687430943   -0.429667029
   8  H       1.00    0.946771686   -1.687430943    3.438866910
   9  H       1.00    3.540836531   -1.687430943   -0.429667029

 Bond lengths in Bohr (Angstrom)

 1-2  2.664249274  1-3  2.664257262  2-4  2.066157316  2-6  2.084186243  2-8  2.084186243
     ( 1.409860000)     ( 1.409864227)     ( 1.093363366)     ( 1.102903863)     ( 1.102903863)

 3-5  2.066136732  3-7  2.084179391  3-9  2.084179391
     ( 1.093352473)     ( 1.102900237)     ( 1.102900237)

 Bond angles

  1-2-4  107.25067522   1-2-6  111.81829608   1-2-8  111.81829608   1-3-5  107.25086594

  1-3-7  111.81797398   1-3-9  111.81797398   2-1-3  112.31178693   4-2-6  108.88149892

  4-2-8  108.88149892   5-3-7  108.88146655   5-3-9  108.88146655   6-2-8  108.12064679

  7-3-9  108.12116643

 NUCLEAR CHARGE:                   26
 NUMBER OF PRIMITIVE AOS:          63
 NUMBER OF SYMMETRY AOS:           63
 NUMBER OF CONTRACTIONS:           21   (  21A   )
 NUMBER OF CORE ORBITALS:           3   (   3A   )
 NUMBER OF VALENCE ORBITALS:       18   (  18A   )


 NUCLEAR REPULSION ENERGY   83.80024479


 Eigenvalues of metric

         1 0.234E+00 0.235E+00 0.359E+00 0.371E+00 0.377E+00 0.378E+00 0.398E+00 0.479E+00


 Contracted 2-electron integrals neglected if value below      1.0D-11
 AO integral compression algorithm  1   Integral accuracy      1.0D-11

     0.262 MB (compressed) written to integral file (100.0%)


 NUMBER OF SORTED TWO-ELECTRON INTEGRALS:      26796.     BUFFER LENGTH:  32768
 NUMBER OF SEGMENTS:   1  SEGMENT LENGTH:      26796      RECORD LENGTH: 524288

 Memory used in sort:       0.58 MW

 SORT1 READ       32133. AND WROTE       21402. INTEGRALS IN      1 RECORDS. CPU TIME:     0.00 SEC, REAL TIME:     0.00 SEC
 SORT2 READ       21402. AND WROTE       26796. INTEGRALS IN      1 RECORDS. CPU TIME:     0.00 SEC, REAL TIME:     0.00 SEC

 FILE SIZES:   FILE 1:    30.4 MBYTE,  FILE 4:     4.2 MBYTE,   TOTAL:     34.6 MBYTE

 OPERATOR DM      FOR CENTER  0  COORDINATES:    0.000000    0.000000    0.000000


 **********************************************************************************************************************************
 DATASETS  * FILE   NREC   LENGTH (MB)   RECORD NAMES
              1      19       30.21       500      610      700      900      950      970     1000      129      960     1100   
                                          VAR    BASINP    GEOM    SYMINP    ZMAT    AOBASIS   BASIS     P2S    ABASIS      S 
                                         1400     1410     1200     1210     1080     1600     1650     1300     1700   
                                           T        V       H0       H01     AOSYM     SMH    MOLCAS    ERIS     OPER   

 PROGRAMS   *        TOTAL       INT
 CPU TIMES  *         0.37      0.22
 REAL TIME  *         2.38 SEC
 DISK USED  *        34.99 MB      
 **********************************************************************************************************************************

 Density functional group M06=XC-M06
 Functional: XC-M06(via MFM 1.6)                                               Gradient terms: 1
 Use grid at  1800.2


 Exact exchange will be calculated, factor:  0.2700

 Functional: XC-M06                    Factor:  1.0000

 Generated new metagrid on record  1800.2 with target accuracy 1.0D-06 and 33732 points in CPU time    0.9
 Computed new grid on record 1800.1 in CPU time    1.0
   20895 words reserved for DFT integration

 PROGRAM * RKS-SCF (Restricted closed shell Kohn-Sham)     Authors: W. Meyer, H.-J. Werner, P.J. Knowles, 1993

 NUMBER OF ELECTRONS:      13+   13-    SPACE SYMMETRY=1    SPIN SYMMETRY: Singlet 
 CONVERGENCE THRESHOLDS:    1.00E-05 (Density)    1.00E-06 (Energy)
 MAX. NUMBER OF ITERATIONS:       60
 INTERPOLATION TYPE:            DIIS
 INTERPOLATION STEPS:              2 (START)      1 (STEP)
 LEVEL SHIFTS:                  0.00 (CLOSED)  0.00 (OPEN) 



 Use fine grid record 1800.2 for energy threshold  1.0D-06
 Orbital guess generated from atomic densities. Full valence occupancy:   13

 Molecular orbital dump at record        2100.2

 Initial occupancy:  13

 ITERATION    DDIFF          GRAD             ENERGY        2-EL.EN.            DIPOLE MOMENTS         DIIS   ORB.
    1      0.000D+00      0.000D+00      -152.76478243    313.553292    1.03491    0.00000    0.69418    0    start
    2      0.000D+00      0.285D-01      -152.80117013    301.143395   -0.31922    0.00000   -0.20903    1    diag
    3      0.959D-01      0.252D-01      -152.88856475    306.291437    0.41451    0.00000    0.27809    2    diag
    4      0.443D-01      0.282D-02      -152.88950486    306.473964    0.37286    0.00000    0.25032    3    diag
    5      0.534D-02      0.649D-03      -152.88955670    306.458774    0.38047    0.00000    0.25530    4    diag
    6      0.957D-03      0.162D-04      -152.88955675    306.456259    0.38066    0.00000    0.25546    5    diag
    7      0.384D-04      0.228D-05      -152.88955675    306.455915    0.38055    0.00000    0.25539    6    diag
    8      0.598D-05      0.249D-06      -152.88955675    306.455954    0.38057    0.00000    0.25540    0    orth

 Final occupancy:  13

 !RKS STATE 1.1 Energy               -152.889556753038
 Nuclear energy                        83.80024479
 One-electron energy                 -373.95293931
 Two-electron energy                  153.22797682
 SCF exchange energy                  -20.82202577     Factor= 0.2700
 Density functional                   -15.96483906     XC-M06=-15.96483906
 Virial quotient                       -1.01519506
 !RKS STATE 1.1 Dipole moment           0.38056672     0.00000000     0.25539813
 Dipole moment /Debye                   0.96724077     0.00000000     0.64911479

 Orbital energies:

         1.1          2.1          3.1          4.1          5.1          6.1          7.1          8.1          9.1         10.1
    -18.980359   -10.127197   -10.126832    -0.989010    -0.691548    -0.609186    -0.434557    -0.433868    -0.433451    -0.373170

        11.1         12.1         13.1         14.1         15.1
     -0.347724    -0.219541    -0.142812     0.319896     0.399859

 HOMO     13.1    -0.142812 =      -3.8861eV
 LUMO     14.1     0.319896 =       8.7048eV
 LUMO-HOMO         0.462708 =      12.5909eV


 **********************************************************************************************************************************
 DATASETS  * FILE   NREC   LENGTH (MB)   RECORD NAMES
              1      20       31.29       500      610      700      900      950      970     1000      129      960     1100   
                                          VAR    BASINP    GEOM    SYMINP    ZMAT    AOBASIS   BASIS     P2S    ABASIS      S 
                                         1400     1410     1200     1210     1080     1600     1650     1300     1700     1800   
                                           T        V       H0       H01     AOSYM     SMH    MOLCAS    ERIS     OPER     GRID   

              2       5        2.90       700     1000      520     1800     2100   
                                         GEOM     BASIS   MCVARS    GRID      RKS  

 PROGRAMS   *        TOTAL        KS       INT
 CPU TIMES  *         4.29      3.92      0.22
 REAL TIME  *         6.63 SEC
 DISK USED  *        34.99 MB      
 **********************************************************************************************************************************


 PROGRAM * Intrinsic Basis Bonding Analysis (IBBA)          Author: G. Knizia

 Molecular orbitals read from record     2100.2  Type=RKS/CANONICAL (state 1.1)
 Fock matrix read from record            2100.2  Type=RKS/TOTAL (state 1.1)
 Orbital energies read from record       2100.2  Type=RKS/CANONICAL (state 1.1)
 Density matrix read from record         2100.2  Type=RKS/CHARGE (state 1.1)

 Number of core orbitals:           3 (   3 )
 Number of closed-shell orbitals:  10 (  10 )

 Basis set MINAO-AUTO-PP generated.      Number of basis functions:   21 

 Polarized AO type:                A = (O Ot + (1-O)(1-Ot)) P12
 Orthogonalization method:         Symmetric (Loewdin)
 Localization functional:          L = sum[A,i] <i|n_A|i>^4 -> max

 Localization group 1:  13 orbitals, occupancy  2.000
 Iterative localization: IB/PM,    7 iter; Final gradient 0.27E-08

 Bond order analysis:       [THRPRINT= 0.020]

   CEN ATOM   CEN ATOM     WIBERG.BO      RENORM.BO
     1   O  -   3   C       1.015540       1.017968
     1   O  -   2   C       1.015428       1.017924
     1   O  -   9   H       0.030547       0.018244
     1   O  -   7   H       0.030547       0.018244
     1   O  -   6   H       0.030448       0.018190
     1   O  -   8   H       0.030448       0.018190

     2   C  -   1   O       1.015428       1.017924
     2   C  -   4   H       0.956107       0.974148
     2   C  -   8   H       0.952445       0.945266
     2   C  -   6   H       0.952445       0.945266

     3   C  -   1   O       1.015540       1.017968
     3   C  -   5   H       0.956109       0.974286
     3   C  -   9   H       0.952386       0.945086
     3   C  -   7   H       0.952386       0.945086

     4   H  -   2   C       0.956107       0.974148

     5   H  -   3   C       0.956109       0.974286

     6   H  -   2   C       0.952445       0.945266
     6   H  -   1   O       0.030448       0.018190

     7   H  -   3   C       0.952386       0.945086
     7   H  -   1   O       0.030547       0.018244

     8   H  -   2   C       0.952445       0.945266
     8   H  -   1   O       0.030448       0.018190

     9   H  -   3   C       0.952386       0.945086
     9   H  -   1   O       0.030547       0.018244


 Valency analysis:

   CEN ATOM   TOT.VALENCE
     1   O       2.168110
     2   C       3.895114
     3   C       3.895153
     4   H       0.980333
     5   H       0.980265
     6   H       0.986899
     7   H       0.986929
     8   H       0.986899
     9   H       0.986929

 Total charge composition:

   CEN ATOM         s          p       ELECTRONS ->P.CHARGE
     1   O       3.64364    4.59234      8.23598   -0.23598
     2   C       3.00366    3.24738      6.25105   -0.25105
     3   C       3.00379    3.24748      6.25127   -0.25127
     4   H       0.85976                 0.85976    0.14024
     5   H       0.85952                 0.85952    0.14048
     6   H       0.88554                 0.88554    0.11446
     7   H       0.88567                 0.88567    0.11433
     8   H       0.88554                 0.88554    0.11446
     9   H       0.88567                 0.88567    0.11433

 Total charge composition, AO contributions:

   CEN ATOM SHL      SPHERICAL COMPONENTS
     1   O  1s       1.99726
     1   O  2s       1.64638
     1   O  2p       1.41113    1.90814    1.27307

     2   C  1s       1.99260
     2   C  2s       1.01106
     2   C  2p       1.18985    1.17919    0.87834

     3   C  1s       1.99260
     3   C  2s       1.01119
     3   C  2p       0.92298    1.17902    1.14548

     4   H  1s       0.85976

     5   H  1s       0.85952

     6   H  1s       0.88554

     7   H  1s       0.88567

     8   H  1s       0.88554

     9   H  1s       0.88567

 Summary of localized orbital composition:   [THRPRINT= 0.020]

   ORB  GRP  ORB.ENERGY      CENTERS/CHARGES
     1   1   -18.815655      O  1   2.000
     2   1   -10.019173      C  2   2.000
     3   1   -10.018990      C  3   2.000
     4   1    -0.685895      O  1   1.176   C  2   0.815
     5   1    -0.685798      O  1   1.176   C  3   0.815
     6   1    -0.506566      O  1   1.971   (other: 0.029)
     7   1    -0.499674      C  2   1.142   H  4   0.850
     8   1    -0.499649      C  3   1.142   H  5   0.850
     9   1    -0.499310      C  2   1.131   H  8   0.867
    10   1    -0.499310      C  2   1.131   H  6   0.867
    11   1    -0.499060      C  3   1.131   H  7   0.867
    12   1    -0.499060      C  3   1.131   H  9   0.867
    13   1    -0.181114      O  1   1.908   (other: 0.092)

 Localized orbitals saved to record      2100.2  (orbital set 2)


 **********************************************************************************************************************************
 DATASETS  * FILE   NREC   LENGTH (MB)   RECORD NAMES
              1      20       31.29       500      610      700      900      950      970     1000      129      960     1100   
                                          VAR    BASINP    GEOM    SYMINP    ZMAT    AOBASIS   BASIS     P2S    ABASIS      S 
                                         1400     1410     1200     1210     1080     1600     1650     1300     1700     1800   
                                           T        V       H0       H01     AOSYM     SMH    MOLCAS    ERIS     OPER     GRID   

              2       5        2.90       700     1000      520     1800     2100   
                                         GEOM     BASIS   MCVARS    GRID      RKS  

 PROGRAMS   *        TOTAL      IBBA        KS       INT
 CPU TIMES  *         4.32      0.03      3.92      0.22
 REAL TIME  *         6.72 SEC
 DISK USED  *        34.99 MB      
 **********************************************************************************************************************************
 Molecular orbitals read from record     2100.2  Type=RKS/LOCAL(IBO)  
 Occupation numbers read from record     2100.2  Type=RKS/LOCAL(IBO)  
 Orbital energies read from record       2100.2  Type=RKS/LOCAL(IBO)  
 Redundancy group numbers read from rec  2100.2  Type=RKS/LOCAL(IBO)  

 IBBA/STO-3G energy=      0.000000000000

        KS-SCF  
   -152.88955675
 **********************************************************************************************************************************
 Molpro calculation terminated
