
 Primary working directories    : /tmp/sb13343
 Secondary working directories  : /tmp/sb13343
 Wavefunction directory         : /panfs/panasas01/chem/sb13343/wfu/
 Main file repository           : /tmp/sb13343/

 SHA1      : b4a5b34a9e711420743f49e6833241d17c61fb3c
 NAME      : 2099.9.b4a5b34
 ARCHNAME  : linux/x86_64_openmp
 FC        : /cm/shared/languages/GCC-6.1/bin/gfortran
 BLASLIB   : -lblas
 id        : simonbennie

 Nodes     nprocs
 node35-048    1

 Using customized tuning parameters: mindgm=1; mindgv=20; mindgc=4; mindgr=1; noblas=0; minvec=7
 default implementation of scratch files=df  

 memory,500,m
 geomtyp=xyz
 nosym
 noorient
 geometry={
 O          0.00000        0.00000        0.00000
 C          0.00000        0.00000        1.40986
 C          1.30431        0.00000       -0.53525
 H         -1.04418        0.00000        1.73410
 H          1.20786        0.00000       -1.62434
 H          0.50101        0.89295        1.81977
 H          1.87373        0.89295       -0.22737
 H          0.50101       -0.89295        1.81977
 H          1.87373       -0.89295       -0.22737
 }
 basis={ default,svp }
 {uks,MM06,direct;wf,26,1,0}
 {ibba,bonds=1}

 Variables initialized (895), CPU time= 0.01 sec
 Commands  initialized (725), CPU time= 0.01 sec, 591 directives.
 Default parameters read. Elapsed time= 2.14 sec

 Checking input...
 Passed
1


                                         ***  PROGRAM SYSTEM MOLPRO  ***
                                       Copyright, TTI GmbH Stuttgart, 2015
                                    Version 2099.9 linked May 26 2017 16:03:21


 **********************************************************************************************************************************
 LABEL *                                                                                 
  64 bit serial version                                                                  DATE: 07-Jun-17          TIME: 16:41:56  
 **********************************************************************************************************************************

 SHA1:             b4a5b34a9e711420743f49e6833241d17c61fb3c
 **********************************************************************************************************************************
 SETTING GEOMTYP        =    XYZ

 Variable memory set to  500000000 words,  buffer space 

 ZSYMEL=NOSYM

 SETTING BASIS          =    SVP


 Recomputing integrals since basis changed


 Using spherical harmonics

 Library entry O      S def2-SVP             selected for orbital group  1
 Library entry O      P def2-SVP             selected for orbital group  1
 Library entry O      D def2-SVP             selected for orbital group  1
 Library entry C      S def2-SVP             selected for orbital group  2
 Library entry C      P def2-SVP             selected for orbital group  2
 Library entry C      D def2-SVP             selected for orbital group  2
 Library entry H      S def2-SVP             selected for orbital group  3
 Library entry H      P def2-SVP             selected for orbital group  3


 PROGRAM * SEWARD (Integral evaluation for generally contracted gaussian basis sets)     Author: Roland Lindh, 1990

 Geometry written to block  1 of record 700


 Point group  C1  



 ATOMIC COORDINATES

 NR  ATOM    CHARGE       X              Y              Z

   1  O       8.00    0.000000000    0.000000000    0.000000000
   2  C       6.00    0.000000000    0.000000000    2.664249274
   3  C       6.00    2.464788682    0.000000000   -1.011475908
   4  H       1.00   -1.973214225    0.000000000    3.276974073
   5  H       1.00    2.282524597    0.000000000   -3.069557733
   6  H       1.00    0.946771686    1.687430943    3.438866910
   7  H       1.00    3.540836531    1.687430943   -0.429667029
   8  H       1.00    0.946771686   -1.687430943    3.438866910
   9  H       1.00    3.540836531   -1.687430943   -0.429667029

 Bond lengths in Bohr (Angstrom)

 1-2  2.664249274  1-3  2.664257262  2-4  2.066157316  2-6  2.084186243  2-8  2.084186243
     ( 1.409860000)     ( 1.409864227)     ( 1.093363366)     ( 1.102903863)     ( 1.102903863)

 3-5  2.066136732  3-7  2.084179391  3-9  2.084179391
     ( 1.093352473)     ( 1.102900237)     ( 1.102900237)

 Bond angles

  1-2-4  107.25067522   1-2-6  111.81829608   1-2-8  111.81829608   1-3-5  107.25086594

  1-3-7  111.81797398   1-3-9  111.81797398   2-1-3  112.31178693   4-2-6  108.88149892

  4-2-8  108.88149892   5-3-7  108.88146655   5-3-9  108.88146655   6-2-8  108.12064679

  7-3-9  108.12116643

 NUCLEAR CHARGE:                   26
 NUMBER OF PRIMITIVE AOS:         117
 NUMBER OF SYMMETRY AOS:          114
 NUMBER OF CONTRACTIONS:           72   (  72A   )
 NUMBER OF CORE ORBITALS:           3   (   3A   )
 NUMBER OF VALENCE ORBITALS:       18   (  18A   )


 NUCLEAR REPULSION ENERGY   83.80024479


 Eigenvalues of metric

         1 0.907E-02 0.130E-01 0.293E-01 0.353E-01 0.441E-01 0.490E-01 0.499E-01 0.601E-01


 Contracted 2-electron integrals neglected if value below      1.0D-11
 AO integral compression algorithm  1   Integral accuracy      1.0D-11

     14.156 MB (compressed) written to integral file ( 45.3%)


 NUMBER OF SORTED TWO-ELECTRON INTEGRALS:    3454506.     BUFFER LENGTH:  32768
 NUMBER OF SEGMENTS:   1  SEGMENT LENGTH:    3454506      RECORD LENGTH: 524288

 Memory used in sort:       4.01 MW

 SORT1 READ     3931143. AND WROTE     2907067. INTEGRALS IN      9 RECORDS. CPU TIME:     0.05 SEC, REAL TIME:     0.10 SEC
 SORT2 READ     2907067. AND WROTE     3454506. INTEGRALS IN     54 RECORDS. CPU TIME:     0.12 SEC, REAL TIME:     0.16 SEC

 FILE SIZES:   FILE 1:    44.4 MBYTE,  FILE 4:    37.8 MBYTE,   TOTAL:     82.2 MBYTE

 OPERATOR DM      FOR CENTER  0  COORDINATES:    0.000000    0.000000    0.000000


 **********************************************************************************************************************************
 DATASETS  * FILE   NREC   LENGTH (MB)   RECORD NAMES
              1      19       42.45       500      610      700      900      950      970     1000      129      960     1100   
                                          VAR    BASINP    GEOM    SYMINP    ZMAT    AOBASIS   BASIS     P2S    ABASIS      S 
                                         1400     1410     1200     1210     1080     1600     1650     1300     1700   
                                           T        V       H0       H01     AOSYM     SMH    MOLCAS    ERIS     OPER   

 PROGRAMS   *        TOTAL       INT
 CPU TIMES  *         1.06      0.91
 REAL TIME  *         4.31 SEC
 DISK USED  *        82.64 MB      
 **********************************************************************************************************************************

 Density functional group MM06=M06X+M06C
 Functional: M06X(Automatically generated (new) M06X)                          Gradient terms: 2
 Functional: M06C(Automatically generated (new) M06C)                          Gradient terms: 2
 Use grid at  1800.2


 Exact exchange will be calculated, factor:  0.2700

 Functional: M06X                      Factor:  0.7300
 Functional: M06C                      Factor:  1.0000

 Generated new metagrid on record  1800.2 with target accuracy 1.0D-06 and 33732 points in CPU time    0.9
 Computed new grid on record 1800.1 in CPU time    1.0
  116061 words reserved for DFT integration

 PROGRAM * UKS-SCF (Unrestricted Kohn-Sham)     Authors: W. Meyer, H.-J. Werner, P.J. Knowles, 1993

 NUMBER OF ELECTRONS:      13+   13-    SPACE SYMMETRY=1    SPIN SYMMETRY: Singlet 
 CONVERGENCE THRESHOLDS:    1.00E-05 (Density)    1.00E-06 (Energy)
 MAX. NUMBER OF ITERATIONS:       60
 INTERPOLATION TYPE:            DIIS
 INTERPOLATION STEPS:              2 (START)      1 (STEP)
 LEVEL SHIFTS:                 -0.20 (ALPHA)  -0.20 (BETA) 



 Use fine grid record 1800.2 for energy threshold  1.0D-06
 Orbital guess generated from atomic densities. Full valence occupancy:   13

 Molecular orbital dump at record        2200.2

 Initial alpha occupation  13
 Initial beta  occupation  13

 ITERATION    DDIFF          GRAD             ENERGY        2-EL.EN.            DIPOLE MOMENTS         DIIS
    1      0.000D+00      0.000D+00      -150.76352768    305.874579    0.58778    0.00000    0.39419    0
    2      0.599D-02      0.318D-02      -150.79260033    301.595017    0.38441    0.00000    0.25788    1
    3      0.195D-02      0.106D-02      -150.79520734    302.446578    0.37548    0.00000    0.25253    2
    4      0.993D-03      0.207D-03      -150.79550533    302.269865    0.35751    0.00000    0.24078    3
    5      0.675D-03      0.979D-04      -150.79559020    302.253839    0.34697    0.00000    0.23380    4
    6      0.305D-03      0.331D-04      -150.79560223    302.223482    0.34171    0.00000    0.23029    5
    7      0.542D-04      0.194D-04      -150.79560341    302.232875    0.34232    0.00000    0.23069    6
    8      0.380D-04      0.524D-05      -150.79560360    302.230599    0.34168    0.00000    0.23025    7
    9      0.400D-05      0.618D-06      -150.79560360    302.230681    0.34171    0.00000    0.23028    7
   10      0.707D-06      0.144D-06      -150.79560360    302.230663    0.34170    0.00000    0.23027    7

 Final alpha occupancy:  13
 Final beta  occupancy:  13

 !UKS STATE 1.1 Energy               -150.795603604281
 Nuclear energy                        83.80024479
 One-electron energy                 -373.89569197
 Two-electron energy                  151.11533141
 Density functional                   -11.81548784     M06X=-14.75864409 M06C= -1.04167765
 Virial quotient                       -0.99505683
 !UKS STATE 1.1 Dipole moment           0.34169988     0.00000000     0.23026960
 Dipole moment /Debye                   0.86845759     0.00000000     0.58524861

 Orbital energies for positive spin:

         1.1          2.1          3.1          4.1          5.1          6.1          7.1          8.1          9.1         10.1
    -18.793002    -9.949112    -9.948934    -0.969212    -0.656532    -0.571117    -0.426836    -0.421753    -0.421551    -0.341175

        11.1         12.1         13.1         14.1         15.1
     -0.322707    -0.264509    -0.204759     0.094114     0.140252

 Orbital energies for negative spin:

         1.1          2.1          3.1          4.1          5.1          6.1          7.1          8.1          9.1         10.1
    -18.793002    -9.949112    -9.948934    -0.969212    -0.656532    -0.571117    -0.426836    -0.421753    -0.421551    -0.341175

        11.1         12.1         13.1         14.1         15.1
     -0.322707    -0.264509    -0.204759     0.094114     0.140252

 HOMO     13.1    -0.204759 =      -5.5718eV
 LUMO     14.1     0.094114 =       2.5610eV
 LUMO-HOMO         0.298874 =       8.1328eV

 EXPECTATION VALUE OF S**2:            -0.00000000

 Natural orbitals saved to record    2200.2 (Orbital set 3)

 Orbital spaces for UNO-CAS (Min. occupation: 0.020  Max. occupation: 1.980):

 Closed:       13
 Active:        0


 **********************************************************************************************************************************
 DATASETS  * FILE   NREC   LENGTH (MB)   RECORD NAMES
              1      20       43.53       500      610      700      900      950      970     1000      129      960     1100   
                                          VAR    BASINP    GEOM    SYMINP    ZMAT    AOBASIS   BASIS     P2S    ABASIS      S 
                                         1400     1410     1200     1210     1080     1600     1650     1300     1700     1800   
                                           T        V       H0       H01     AOSYM     SMH    MOLCAS    ERIS     OPER     GRID   

              2       5        3.11       700     1000      520     1800     2200   
                                         GEOM     BASIS   MCVARS    GRID      UKS  

 PROGRAMS   *        TOTAL       UKS       INT
 CPU TIMES  *        28.40     27.34      0.91
 REAL TIME  *        97.39 SEC
 DISK USED  *        82.64 MB      
 **********************************************************************************************************************************


 PROGRAM * Intrinsic Basis Bonding Analysis (IBBA)          Author: G. Knizia

 Molecular orbitals read from record     2200.2  Type=UKS/ALPHA (state 1.1)
 Fock matrix read from record            2200.2  Type=UKS/TOTAL (state 1.1)
 Orbital energies read from record       2200.2  Type=UKS/ALPHA (state 1.1)
 Density matrix read from record         2200.2  Type=UKS/CHARGE (state 1.1)

 Number of core orbitals:           3 (   3 )
 Number of closed-shell orbitals:  10 (  10 )

 Basis set MINAO-AUTO-PP generated.      Number of basis functions:   21 

 Polarized AO type:                A = (O Ot + (1-O)(1-Ot)) P12
 Orthogonalization method:         Symmetric (Loewdin)
 Localization functional:          L = sum[A,i] <i|n_A|i>^4 -> max

 Localization group 1:  13 orbitals, occupancy  2.000
 Iterative localization: IB/PM,    7 iter; Final gradient 0.22E-09

 Bond order analysis:       [THRPRINT= 0.020]

   CEN ATOM   CEN ATOM     WIBERG.BO      RENORM.BO
     1   O  -   2   C       1.004733       1.025739
     1   O  -   3   C       1.004704       1.025696
     1   O  -   8   H       0.037572       0.021940
     1   O  -   6   H       0.037572       0.021940
     1   O  -   9   H       0.037490       0.021894
     1   O  -   7   H       0.037490       0.021894

     2   C  -   1   O       1.004733       1.025739
     2   C  -   4   H       0.961267       0.975858
     2   C  -   8   H       0.948065       0.928238
     2   C  -   6   H       0.948065       0.928238

     3   C  -   1   O       1.004704       1.025696
     3   C  -   5   H       0.961388       0.975844
     3   C  -   9   H       0.948131       0.928380
     3   C  -   7   H       0.948131       0.928380

     4   H  -   2   C       0.961267       0.975858

     5   H  -   3   C       0.961388       0.975844

     6   H  -   2   C       0.948065       0.928238
     6   H  -   1   O       0.037572       0.021940

     7   H  -   3   C       0.948131       0.928380
     7   H  -   1   O       0.037490       0.021894

     8   H  -   2   C       0.948065       0.928238
     8   H  -   1   O       0.037572       0.021940

     9   H  -   3   C       0.948131       0.928380
     9   H  -   1   O       0.037490       0.021894


 Valency analysis:

   CEN ATOM   TOT.VALENCE
     1   O       2.172659
     2   C       3.882959
     3   C       3.883171
     4   H       0.983309
     5   H       0.983429
     6   H       0.992220
     7   H       0.992202
     8   H       0.992220
     9   H       0.992202

 Total charge composition:

   CEN ATOM         s          p       ELECTRONS ->P.CHARGE
     1   O       3.56846    4.76267      8.33113   -0.33113
     2   C       2.98769    3.15234      6.14003   -0.14003
     3   C       2.98760    3.15217      6.13977   -0.13977
     4   H       0.87081                 0.87081    0.12919
     5   H       0.87127                 0.87127    0.12873
     6   H       0.91180                 0.91180    0.08820
     7   H       0.91170                 0.91170    0.08830
     8   H       0.91180                 0.91180    0.08820
     9   H       0.91170                 0.91170    0.08830

 Total charge composition, AO contributions:

   CEN ATOM SHL      SPHERICAL COMPONENTS
     1   O  1s       1.99740
     1   O  2s       1.57106
     1   O  2p       1.51736    1.88928    1.35603

     2   C  1s       1.99315
     2   C  2s       0.99454
     2   C  2p       1.17486    1.15567    0.82181

     3   C  1s       1.99315
     3   C  2s       0.99445
     3   C  2p       0.87176    1.15568    1.12473

     4   H  1s       0.87081

     5   H  1s       0.87127

     6   H  1s       0.91180

     7   H  1s       0.91170

     8   H  1s       0.91180

     9   H  1s       0.91170

 Summary of localized orbital composition:   [THRPRINT= 0.020]

   ORB  GRP  ORB.ENERGY      CENTERS/CHARGES
     1   1   -18.653163      O  1   2.000
     2   1    -9.847029      C  2   2.000
     3   1    -9.846865      C  3   2.000
     4   1    -0.713789      O  1   1.240   C  3   0.752
     5   1    -0.713770      O  1   1.240   C  2   0.752
     6   1    -0.484054      O  1   1.959   (other: 0.041)
     7   1    -0.462504      C  2   1.108   H  8   0.889
     8   1    -0.462504      C  2   1.108   H  6   0.889
     9   1    -0.462503      C  3   1.108   H  9   0.889
    10   1    -0.462503      C  3   1.108   H  7   0.889
    11   1    -0.461689      C  2   1.131   H  4   0.862
    12   1    -0.461415      C  3   1.130   H  5   0.863
    13   1    -0.259413      O  1   1.889   C  2   0.023   C  3   0.023   (other: 0.065)

 Localized orbitals saved to record      2200.2  (orbital set 4)


 **********************************************************************************************************************************
 DATASETS  * FILE   NREC   LENGTH (MB)   RECORD NAMES
              1      20       43.53       500      610      700      900      950      970     1000      129      960     1100   
                                          VAR    BASINP    GEOM    SYMINP    ZMAT    AOBASIS   BASIS     P2S    ABASIS      S 
                                         1400     1410     1200     1210     1080     1600     1650     1300     1700     1800   
                                           T        V       H0       H01     AOSYM     SMH    MOLCAS    ERIS     OPER     GRID   

              2       5        3.15       700     1000      520     1800     2200   
                                         GEOM     BASIS   MCVARS    GRID      UKS  

 PROGRAMS   *        TOTAL      IBBA       UKS       INT
 CPU TIMES  *        28.43      0.03     27.34      0.91
 REAL TIME  *        97.64 SEC
 DISK USED  *        82.64 MB      
 **********************************************************************************************************************************
 Molecular orbitals read from record     2200.2  Type=UKS/LOCAL(IBO)  
 Occupation numbers read from record     2200.2  Type=UKS/LOCAL(IBO)  
 Orbital energies read from record       2200.2  Type=UKS/LOCAL(IBO)  
 Redundancy group numbers read from rec  2200.2  Type=UKS/BETA (state 1.1)

 IBBA/SVP energy=      0.000000000000

        UKS-SCF 
   -150.79560360
 **********************************************************************************************************************************
 Molpro calculation terminated
