
 Primary working directories    : /tmp/sb13343
 Secondary working directories  : /tmp/sb13343
 Wavefunction directory         : /panfs/panasas01/chem/sb13343/wfu/
 Main file repository           : /tmp/sb13343/

 SHA1      : b4a5b34a9e711420743f49e6833241d17c61fb3c
 NAME      : 2099.9.b4a5b34
 ARCHNAME  : linux/x86_64_openmp
 FC        : /cm/shared/languages/GCC-6.1/bin/gfortran
 BLASLIB   : -lblas
 id        : simonbennie

 Nodes     nprocs
 node33-016    1

 Using customized tuning parameters: mindgm=1; mindgv=20; mindgc=4; mindgr=1; noblas=0; minvec=7
 default implementation of scratch files=df  

 memory,500,m
 geomtyp=xyz
 nosym
 noorient
 geometry={
 O          0.00000        0.00000        0.00000
 C          0.00000        0.00000        1.40986
 C          1.30431        0.00000       -0.53525
 H         -1.04418        0.00000        1.73410
 H          1.20786        0.00000       -1.62434
 H          0.50101        0.89295        1.81977
 H          1.87373        0.89295       -0.22737
 H          0.50101       -0.89295        1.81977
 H          1.87373       -0.89295       -0.22737
 }
 basis={ default,svp }
 {ks,B97,direct;wf,26,1,0}
 {ibba,bonds=1}

 Variables initialized (895), CPU time= 0.00 sec
 Commands  initialized (725), CPU time= 0.02 sec, 591 directives.
 Default parameters read. Elapsed time= 1.81 sec

 Checking input...
 Passed
1


                                         ***  PROGRAM SYSTEM MOLPRO  ***
                                       Copyright, TTI GmbH Stuttgart, 2015
                                    Version 2099.9 linked May 26 2017 16:03:21


 **********************************************************************************************************************************
 LABEL *                                                                                 
  64 bit serial version                                                                  DATE: 07-Jun-17          TIME: 16:36:36  
 **********************************************************************************************************************************

 SHA1:             b4a5b34a9e711420743f49e6833241d17c61fb3c
 **********************************************************************************************************************************
 SETTING GEOMTYP        =    XYZ

 Variable memory set to  500000000 words,  buffer space 

 ZSYMEL=NOSYM

 SETTING BASIS          =    SVP


 Recomputing integrals since basis changed


 Using spherical harmonics

 Library entry O      S def2-SVP             selected for orbital group  1
 Library entry O      P def2-SVP             selected for orbital group  1
 Library entry O      D def2-SVP             selected for orbital group  1
 Library entry C      S def2-SVP             selected for orbital group  2
 Library entry C      P def2-SVP             selected for orbital group  2
 Library entry C      D def2-SVP             selected for orbital group  2
 Library entry H      S def2-SVP             selected for orbital group  3
 Library entry H      P def2-SVP             selected for orbital group  3


 PROGRAM * SEWARD (Integral evaluation for generally contracted gaussian basis sets)     Author: Roland Lindh, 1990

 Geometry written to block  1 of record 700


 Point group  C1  



 ATOMIC COORDINATES

 NR  ATOM    CHARGE       X              Y              Z

   1  O       8.00    0.000000000    0.000000000    0.000000000
   2  C       6.00    0.000000000    0.000000000    2.664249274
   3  C       6.00    2.464788682    0.000000000   -1.011475908
   4  H       1.00   -1.973214225    0.000000000    3.276974073
   5  H       1.00    2.282524597    0.000000000   -3.069557733
   6  H       1.00    0.946771686    1.687430943    3.438866910
   7  H       1.00    3.540836531    1.687430943   -0.429667029
   8  H       1.00    0.946771686   -1.687430943    3.438866910
   9  H       1.00    3.540836531   -1.687430943   -0.429667029

 Bond lengths in Bohr (Angstrom)

 1-2  2.664249274  1-3  2.664257262  2-4  2.066157316  2-6  2.084186243  2-8  2.084186243
     ( 1.409860000)     ( 1.409864227)     ( 1.093363366)     ( 1.102903863)     ( 1.102903863)

 3-5  2.066136732  3-7  2.084179391  3-9  2.084179391
     ( 1.093352473)     ( 1.102900237)     ( 1.102900237)

 Bond angles

  1-2-4  107.25067522   1-2-6  111.81829608   1-2-8  111.81829608   1-3-5  107.25086594

  1-3-7  111.81797398   1-3-9  111.81797398   2-1-3  112.31178693   4-2-6  108.88149892

  4-2-8  108.88149892   5-3-7  108.88146655   5-3-9  108.88146655   6-2-8  108.12064679

  7-3-9  108.12116643

 NUCLEAR CHARGE:                   26
 NUMBER OF PRIMITIVE AOS:         117
 NUMBER OF SYMMETRY AOS:          114
 NUMBER OF CONTRACTIONS:           72   (  72A   )
 NUMBER OF CORE ORBITALS:           3   (   3A   )
 NUMBER OF VALENCE ORBITALS:       18   (  18A   )


 NUCLEAR REPULSION ENERGY   83.80024479


 Eigenvalues of metric

         1 0.907E-02 0.130E-01 0.293E-01 0.353E-01 0.441E-01 0.490E-01 0.499E-01 0.601E-01


 Contracted 2-electron integrals neglected if value below      1.0D-11
 AO integral compression algorithm  1   Integral accuracy      1.0D-11

     14.156 MB (compressed) written to integral file ( 45.3%)


 NUMBER OF SORTED TWO-ELECTRON INTEGRALS:    3454506.     BUFFER LENGTH:  32768
 NUMBER OF SEGMENTS:   1  SEGMENT LENGTH:    3454506      RECORD LENGTH: 524288

 Memory used in sort:       4.01 MW

 SORT1 READ     3931143. AND WROTE     2907067. INTEGRALS IN      9 RECORDS. CPU TIME:     0.04 SEC, REAL TIME:     0.09 SEC
 SORT2 READ     2907067. AND WROTE     3454506. INTEGRALS IN     54 RECORDS. CPU TIME:     0.13 SEC, REAL TIME:     0.15 SEC

 FILE SIZES:   FILE 1:    44.4 MBYTE,  FILE 4:    37.8 MBYTE,   TOTAL:     82.2 MBYTE

 OPERATOR DM      FOR CENTER  0  COORDINATES:    0.000000    0.000000    0.000000


 **********************************************************************************************************************************
 DATASETS  * FILE   NREC   LENGTH (MB)   RECORD NAMES
              1      19       42.45       500      610      700      900      950      970     1000      129      960     1100   
                                          VAR    BASINP    GEOM    SYMINP    ZMAT    AOBASIS   BASIS     P2S    ABASIS      S 
                                         1400     1410     1200     1210     1080     1600     1650     1300     1700   
                                           T        V       H0       H01     AOSYM     SMH    MOLCAS    ERIS     OPER   

 PROGRAMS   *        TOTAL       INT
 CPU TIMES  *         0.94      0.79
 REAL TIME  *         3.13 SEC
 DISK USED  *        82.64 MB      
 **********************************************************************************************************************************

 Density functional group B97=B97DF
 Functional: B97DF(Automatically generated (new) B97DF)                        Gradient terms: 1
 Use grid at  1800.2


 Exact exchange will be calculated, factor:  0.1943

 Functional: B97DF                     Factor:  1.0000

 Generated new metagrid on record  1800.2 with target accuracy 1.0D-06 and 33732 points in CPU time    1.0
 Computed new grid on record 1800.1 in CPU time    1.0
   61197 words reserved for DFT integration

 PROGRAM * RKS-SCF (Restricted closed shell Kohn-Sham)     Authors: W. Meyer, H.-J. Werner, P.J. Knowles, 1993

 NUMBER OF ELECTRONS:      13+   13-    SPACE SYMMETRY=1    SPIN SYMMETRY: Singlet 
 CONVERGENCE THRESHOLDS:    1.00E-05 (Density)    1.00E-06 (Energy)
 MAX. NUMBER OF ITERATIONS:       60
 INTERPOLATION TYPE:            DIIS
 INTERPOLATION STEPS:              2 (START)      1 (STEP)
 LEVEL SHIFTS:                  0.00 (CLOSED)  0.00 (OPEN) 



 Use fine grid record 1800.2 for energy threshold  1.0D-06
 Orbital guess generated from atomic densities. Full valence occupancy:   13

 Molecular orbital dump at record        2100.2

 Initial occupancy:  13

 ITERATION    DDIFF          GRAD             ENERGY        2-EL.EN.            DIPOLE MOMENTS         DIIS   ORB.
    1      0.000D+00      0.000D+00      -154.78741520    315.174543    0.77701    0.00000    0.52100    0    start
    2      0.000D+00      0.894D-02      -154.76580458    300.884454   -0.06756    0.00000   -0.04517    1    diag
    3      0.195D-01      0.110D-01      -154.85194350    308.859020    0.47076    0.00000    0.31575    2    diag
    4      0.112D-01      0.164D-02      -154.85340565    308.687456    0.41614    0.00000    0.27912    3    diag
    5      0.123D-02      0.465D-03      -154.85353415    308.627859    0.42556    0.00000    0.28543    4    diag
    6      0.331D-03      0.659D-04      -154.85353704    308.648740    0.42353    0.00000    0.28407    5    diag
    7      0.487D-04      0.634D-05      -154.85353707    308.650594    0.42433    0.00000    0.28460    6    diag
    8      0.749D-05      0.107D-05      -154.85353707    308.650961    0.42416    0.00000    0.28449    0    orth

 Final occupancy:  13

 !RKS STATE 1.1 Energy               -154.853537073738
 Nuclear energy                        83.80024479
 One-electron energy                 -375.39197956
 Two-electron energy                  154.32548072
 SCF exchange energy                  -20.69035199     Factor= 0.1943
 Density functional                   -17.58728302     B97DF=-17.58728302
 Virial quotient                       -1.00976927
 !RKS STATE 1.1 Dipole moment           0.42416446     0.00000000     0.28449362
 Dipole moment /Debye                   1.07804792     0.00000000     0.72306329

 Orbital energies:

         1.1          2.1          3.1          4.1          5.1          6.1          7.1          8.1          9.1         10.1
    -19.111805   -10.212569   -10.212555    -1.018631    -0.711982    -0.626580    -0.474701    -0.465787    -0.464788    -0.391214

        11.1         12.1         13.1         14.1         15.1
     -0.373211    -0.312888    -0.251790     0.066351     0.111367

 HOMO     13.1    -0.251790 =      -6.8516eV
 LUMO     14.1     0.066351 =       1.8055eV
 LUMO-HOMO         0.318141 =       8.6571eV


 **********************************************************************************************************************************
 DATASETS  * FILE   NREC   LENGTH (MB)   RECORD NAMES
              1      20       43.53       500      610      700      900      950      970     1000      129      960     1100   
                                          VAR    BASINP    GEOM    SYMINP    ZMAT    AOBASIS   BASIS     P2S    ABASIS      S 
                                         1400     1410     1200     1210     1080     1600     1650     1300     1700     1800   
                                           T        V       H0       H01     AOSYM     SMH    MOLCAS    ERIS     OPER     GRID   

              2       5        3.00       700     1000      520     1800     2100   
                                         GEOM     BASIS   MCVARS    GRID      RKS  

 PROGRAMS   *        TOTAL        KS       INT
 CPU TIMES  *         5.24      4.30      0.79
 REAL TIME  *         7.86 SEC
 DISK USED  *        82.64 MB      
 **********************************************************************************************************************************


 PROGRAM * Intrinsic Basis Bonding Analysis (IBBA)          Author: G. Knizia

 Molecular orbitals read from record     2100.2  Type=RKS/CANONICAL (state 1.1)
 Fock matrix read from record            2100.2  Type=RKS/TOTAL (state 1.1)
 Orbital energies read from record       2100.2  Type=RKS/CANONICAL (state 1.1)
 Density matrix read from record         2100.2  Type=RKS/CHARGE (state 1.1)

 Number of core orbitals:           3 (   3 )
 Number of closed-shell orbitals:  10 (  10 )

 Basis set MINAO-AUTO-PP generated.      Number of basis functions:   21 

 Polarized AO type:                A = (O Ot + (1-O)(1-Ot)) P12
 Orthogonalization method:         Symmetric (Loewdin)
 Localization functional:          L = sum[A,i] <i|n_A|i>^4 -> max

 Localization group 1:  13 orbitals, occupancy  2.000
 Iterative localization: IB/PM,    7 iter; Final gradient 0.23E-09

 Bond order analysis:       [THRPRINT= 0.020]

   CEN ATOM   CEN ATOM     WIBERG.BO      RENORM.BO
     1   O  -   2   C       0.989393       1.020716
     1   O  -   3   C       0.989381       1.020717
     1   O  -   8   H       0.033451       0.019844
     1   O  -   6   H       0.033451       0.019844
     1   O  -   9   H       0.033448       0.019843
     1   O  -   7   H       0.033448       0.019843

     2   C  -   1   O       0.989393       1.020716
     2   C  -   4   H       0.959176       0.977871
     2   C  -   8   H       0.950268       0.937467
     2   C  -   6   H       0.950268       0.937467

     3   C  -   1   O       0.989381       1.020717
     3   C  -   5   H       0.959175       0.977871
     3   C  -   9   H       0.950270       0.937472
     3   C  -   7   H       0.950270       0.937472

     4   H  -   2   C       0.959176       0.977871

     5   H  -   3   C       0.959175       0.977871

     6   H  -   2   C       0.950268       0.937467
     6   H  -   1   O       0.033451       0.019844

     7   H  -   3   C       0.950270       0.937472
     7   H  -   1   O       0.033448       0.019843

     8   H  -   2   C       0.950268       0.937467
     8   H  -   1   O       0.033451       0.019844

     9   H  -   3   C       0.950270       0.937472
     9   H  -   1   O       0.033448       0.019843


 Valency analysis:

   CEN ATOM   TOT.VALENCE
     1   O       2.123972
     2   C       3.867694
     3   C       3.867683
     4   H       0.978781
     5   H       0.978781
     6   H       0.988237
     7   H       0.988236
     8   H       0.988237
     9   H       0.988236

 Total charge composition:

   CEN ATOM         s          p       ELECTRONS ->P.CHARGE
     1   O       3.58997    4.78486      8.37482   -0.37482
     2   C       3.01833    3.15685      6.17518   -0.17518
     3   C       3.01832    3.15684      6.17517   -0.17517
     4   H       0.85433                 0.85433    0.14567
     5   H       0.85433                 0.85433    0.14567
     6   H       0.89154                 0.89154    0.10846
     7   H       0.89154                 0.89154    0.10846
     8   H       0.89154                 0.89154    0.10846
     9   H       0.89154                 0.89154    0.10846

 Total charge composition, AO contributions:

   CEN ATOM SHL      SPHERICAL COMPONENTS
     1   O  1s       1.99702
     1   O  2s       1.59295
     1   O  2p       1.51807    1.90469    1.36209

     2   C  1s       1.99164
     2   C  2s       1.02670
     2   C  2p       1.18279    1.16310    0.81096

     3   C  1s       1.99164
     3   C  2s       1.02669
     3   C  2p       0.86478    1.16310    1.12895

     4   H  1s       0.85433

     5   H  1s       0.85433

     6   H  1s       0.89154

     7   H  1s       0.89154

     8   H  1s       0.89154

     9   H  1s       0.89154

 Summary of localized orbital composition:   [THRPRINT= 0.020]

   ORB  GRP  ORB.ENERGY      CENTERS/CHARGES
     1   1   -18.960631      O  1   2.000
     2   1   -10.103371      C  3   2.000
     3   1   -10.103370      C  2   2.000
     4   1    -0.758070      O  1   1.252   C  3   0.740
     5   1    -0.758062      O  1   1.252   C  2   0.740
     6   1    -0.544717      O  1   1.964   (other: 0.036)
     7   1    -0.516749      C  3   1.127   H  9   0.872
     8   1    -0.516749      C  3   1.127   H  7   0.872
     9   1    -0.516745      C  2   1.127   H  8   0.872
    10   1    -0.516745      C  2   1.127   H  6   0.872
    11   1    -0.516253      C  2   1.146   H  4   0.847
    12   1    -0.516251      C  3   1.146   H  5   0.847
    13   1    -0.300785      O  1   1.904   (other: 0.096)

 Localized orbitals saved to record      2100.2  (orbital set 2)


 **********************************************************************************************************************************
 DATASETS  * FILE   NREC   LENGTH (MB)   RECORD NAMES
              1      20       43.53       500      610      700      900      950      970     1000      129      960     1100   
                                          VAR    BASINP    GEOM    SYMINP    ZMAT    AOBASIS   BASIS     P2S    ABASIS      S 
                                         1400     1410     1200     1210     1080     1600     1650     1300     1700     1800   
                                           T        V       H0       H01     AOSYM     SMH    MOLCAS    ERIS     OPER     GRID   

              2       5        3.04       700     1000      520     1800     2100   
                                         GEOM     BASIS   MCVARS    GRID      RKS  

 PROGRAMS   *        TOTAL      IBBA        KS       INT
 CPU TIMES  *         5.27      0.03      4.30      0.79
 REAL TIME  *         7.95 SEC
 DISK USED  *        82.64 MB      
 **********************************************************************************************************************************
 Molecular orbitals read from record     2100.2  Type=RKS/LOCAL(IBO)  
 Occupation numbers read from record     2100.2  Type=RKS/LOCAL(IBO)  
 Orbital energies read from record       2100.2  Type=RKS/LOCAL(IBO)  
 Redundancy group numbers read from rec  2100.2  Type=RKS/LOCAL(IBO)  

 IBBA/SVP energy=      0.000000000000

        KS-SCF  
   -154.85353707
 **********************************************************************************************************************************
 Molpro calculation terminated
