
 Primary working directories    : /tmp/sb13343
 Secondary working directories  : /tmp/sb13343
 Wavefunction directory         : /panfs/panasas01/chem/sb13343/wfu/
 Main file repository           : /tmp/sb13343/

 SHA1      : b4a5b34a9e711420743f49e6833241d17c61fb3c
 NAME      : 2099.9.b4a5b34
 ARCHNAME  : linux/x86_64_openmp
 FC        : /cm/shared/languages/GCC-6.1/bin/gfortran
 BLASLIB   : -lblas
 id        : simonbennie

 Nodes     nprocs
 node32-010    1

 Using customized tuning parameters: mindgm=1; mindgv=20; mindgc=4; mindgr=1; noblas=0; minvec=7
 default implementation of scratch files=df  

 memory,500,m
 geomtyp=xyz
 nosym
 noorient
 geometry={
 O          0.00000        0.00000        0.00000
 C          0.00000        0.00000        1.40986
 C          1.30431        0.00000       -0.53525
 H         -1.04418        0.00000        1.73410
 H          1.20786        0.00000       -1.62434
 H          0.50101        0.89295        1.81977
 H          1.87373        0.89295       -0.22737
 H          0.50101       -0.89295        1.81977
 H          1.87373       -0.89295       -0.22737
 }
 basis={ default,svp }
 {ks,MM06-HF,direct;wf,26,1,0}
 {ibba,bonds=1}

 Variables initialized (895), CPU time= 0.00 sec
 Commands  initialized (725), CPU time= 0.02 sec, 591 directives.
 Default parameters read. Elapsed time= 2.05 sec

 Checking input...
 Passed
1


                                         ***  PROGRAM SYSTEM MOLPRO  ***
                                       Copyright, TTI GmbH Stuttgart, 2015
                                    Version 2099.9 linked May 26 2017 16:03:21


 **********************************************************************************************************************************
 LABEL *                                                                                 
  64 bit serial version                                                                  DATE: 07-Jun-17          TIME: 16:40:20  
 **********************************************************************************************************************************

 SHA1:             b4a5b34a9e711420743f49e6833241d17c61fb3c
 **********************************************************************************************************************************
 SETTING GEOMTYP        =    XYZ

 Variable memory set to  500000000 words,  buffer space 

 ZSYMEL=NOSYM

 SETTING BASIS          =    SVP


 Recomputing integrals since basis changed


 Using spherical harmonics

 Library entry O      S def2-SVP             selected for orbital group  1
 Library entry O      P def2-SVP             selected for orbital group  1
 Library entry O      D def2-SVP             selected for orbital group  1
 Library entry C      S def2-SVP             selected for orbital group  2
 Library entry C      P def2-SVP             selected for orbital group  2
 Library entry C      D def2-SVP             selected for orbital group  2
 Library entry H      S def2-SVP             selected for orbital group  3
 Library entry H      P def2-SVP             selected for orbital group  3


 PROGRAM * SEWARD (Integral evaluation for generally contracted gaussian basis sets)     Author: Roland Lindh, 1990

 Geometry written to block  1 of record 700


 Point group  C1  



 ATOMIC COORDINATES

 NR  ATOM    CHARGE       X              Y              Z

   1  O       8.00    0.000000000    0.000000000    0.000000000
   2  C       6.00    0.000000000    0.000000000    2.664249274
   3  C       6.00    2.464788682    0.000000000   -1.011475908
   4  H       1.00   -1.973214225    0.000000000    3.276974073
   5  H       1.00    2.282524597    0.000000000   -3.069557733
   6  H       1.00    0.946771686    1.687430943    3.438866910
   7  H       1.00    3.540836531    1.687430943   -0.429667029
   8  H       1.00    0.946771686   -1.687430943    3.438866910
   9  H       1.00    3.540836531   -1.687430943   -0.429667029

 Bond lengths in Bohr (Angstrom)

 1-2  2.664249274  1-3  2.664257262  2-4  2.066157316  2-6  2.084186243  2-8  2.084186243
     ( 1.409860000)     ( 1.409864227)     ( 1.093363366)     ( 1.102903863)     ( 1.102903863)

 3-5  2.066136732  3-7  2.084179391  3-9  2.084179391
     ( 1.093352473)     ( 1.102900237)     ( 1.102900237)

 Bond angles

  1-2-4  107.25067522   1-2-6  111.81829608   1-2-8  111.81829608   1-3-5  107.25086594

  1-3-7  111.81797398   1-3-9  111.81797398   2-1-3  112.31178693   4-2-6  108.88149892

  4-2-8  108.88149892   5-3-7  108.88146655   5-3-9  108.88146655   6-2-8  108.12064679

  7-3-9  108.12116643

 NUCLEAR CHARGE:                   26
 NUMBER OF PRIMITIVE AOS:         117
 NUMBER OF SYMMETRY AOS:          114
 NUMBER OF CONTRACTIONS:           72   (  72A   )
 NUMBER OF CORE ORBITALS:           3   (   3A   )
 NUMBER OF VALENCE ORBITALS:       18   (  18A   )


 NUCLEAR REPULSION ENERGY   83.80024479


 Eigenvalues of metric

         1 0.907E-02 0.130E-01 0.293E-01 0.353E-01 0.441E-01 0.490E-01 0.499E-01 0.601E-01


 Contracted 2-electron integrals neglected if value below      1.0D-11
 AO integral compression algorithm  1   Integral accuracy      1.0D-11

     14.156 MB (compressed) written to integral file ( 45.3%)


 NUMBER OF SORTED TWO-ELECTRON INTEGRALS:    3454506.     BUFFER LENGTH:  32768
 NUMBER OF SEGMENTS:   1  SEGMENT LENGTH:    3454506      RECORD LENGTH: 524288

 Memory used in sort:       4.01 MW

 SORT1 READ     3931143. AND WROTE     2907067. INTEGRALS IN      9 RECORDS. CPU TIME:     0.04 SEC, REAL TIME:     0.09 SEC
 SORT2 READ     2907067. AND WROTE     3454506. INTEGRALS IN     54 RECORDS. CPU TIME:     0.13 SEC, REAL TIME:     0.14 SEC

 FILE SIZES:   FILE 1:    44.4 MBYTE,  FILE 4:    37.8 MBYTE,   TOTAL:     82.2 MBYTE

 OPERATOR DM      FOR CENTER  0  COORDINATES:    0.000000    0.000000    0.000000


 **********************************************************************************************************************************
 DATASETS  * FILE   NREC   LENGTH (MB)   RECORD NAMES
              1      19       42.45       500      610      700      900      950      970     1000      129      960     1100   
                                          VAR    BASINP    GEOM    SYMINP    ZMAT    AOBASIS   BASIS     P2S    ABASIS      S 
                                         1400     1410     1200     1210     1080     1600     1650     1300     1700   
                                           T        V       H0       H01     AOSYM     SMH    MOLCAS    ERIS     OPER   

 PROGRAMS   *        TOTAL       INT
 CPU TIMES  *         1.04      0.90
 REAL TIME  *         3.56 SEC
 DISK USED  *        82.64 MB      
 **********************************************************************************************************************************

 Density functional group MM06-HF=M06HFX+M06HFC
 Functional: M06HFX(Automatically generated (new) M06HFX)                      Gradient terms: 2
 Functional: M06HFC(Automatically generated (new) M06HFC)                      Gradient terms: 2
 Use grid at  1800.2


 Exact exchange will be calculated, factor:  1.0000

 Functional: M06HFX                    Factor:  1.0000
 Functional: M06HFC                    Factor:  1.0000

 Generated new metagrid on record  1800.2 with target accuracy 1.0D-06 and 33732 points in CPU time    0.9
 Computed new grid on record 1800.1 in CPU time    1.0
  116061 words reserved for DFT integration

 PROGRAM * RKS-SCF (Restricted closed shell Kohn-Sham)     Authors: W. Meyer, H.-J. Werner, P.J. Knowles, 1993

 NUMBER OF ELECTRONS:      13+   13-    SPACE SYMMETRY=1    SPIN SYMMETRY: Singlet 
 CONVERGENCE THRESHOLDS:    1.00E-05 (Density)    1.00E-06 (Energy)
 MAX. NUMBER OF ITERATIONS:       60
 INTERPOLATION TYPE:            DIIS
 INTERPOLATION STEPS:              2 (START)      1 (STEP)
 LEVEL SHIFTS:                  0.00 (CLOSED)  0.00 (OPEN) 



 Use fine grid record 1800.2 for energy threshold  1.0D-06
 Orbital guess generated from atomic densities. Full valence occupancy:   13

 Molecular orbital dump at record        2100.2

 Initial occupancy:  13

 ITERATION    DDIFF          GRAD             ENERGY        2-EL.EN.            DIPOLE MOMENTS         DIIS   ORB.
    1      0.000D+00      0.000D+00      -154.80779442    276.384941    0.74809   -0.00000    0.50182    0    start
    2      0.000D+00      0.642D-02      -154.83562145    274.165854    0.39923   -0.00000    0.26868    1    diag
    3      0.624D-02      0.355D-02      -154.84239954    275.516194    0.53914   -0.00000    0.36286    2    diag
    4      0.279D-02      0.132D-02      -154.84353954    275.184903    0.51522   -0.00000    0.34695    3    diag
    5      0.956D-03      0.160D-03      -154.84357200    275.193294    0.51385   -0.00000    0.34618    4    diag
    6      0.216D-03      0.270D-04      -154.84357289    275.192672    0.51446   -0.00000    0.34660    5    diag
    7      0.427D-04      0.433D-05      -154.84357293    275.191852    0.51442   -0.00000    0.34654    6    diag
    8      0.812D-05      0.101D-05      -154.84357293    275.192351    0.51444   -0.00000    0.34655    0    orth

 Final occupancy:  13

 !RKS STATE 1.1 Energy               -154.843572927227
 Nuclear energy                        83.80024479
 One-electron energy                 -375.33672178
 Two-electron energy                  137.59617571
 SCF exchange energy                  -20.68950008     Factor= 1.0000
 Density functional                    -0.90327164     M06HFX= 0.05259461 M06HFC=-0.95586625
 Virial quotient                       -1.01087339
 !RKS STATE 1.1 Dipole moment           0.51443591    -0.00000000     0.34654875
 Dipole moment /Debye                   1.30748003    -0.00000000     0.88078137

 Orbital energies:

         1.1          2.1          3.1          4.1          5.1          6.1          7.1          8.1          9.1         10.1
    -20.201159   -11.022481   -11.022039    -1.249660    -0.920561    -0.820726    -0.647546    -0.642402    -0.633505    -0.548442

        11.1         12.1         13.1         14.1         15.1
     -0.524875    -0.475108    -0.417350     0.126850     0.173622

 HOMO     13.1    -0.417350 =     -11.3567eV
 LUMO     14.1     0.126850 =       3.4518eV
 LUMO-HOMO         0.544200 =      14.8084eV


 **********************************************************************************************************************************
 DATASETS  * FILE   NREC   LENGTH (MB)   RECORD NAMES
              1      20       43.53       500      610      700      900      950      970     1000      129      960     1100   
                                          VAR    BASINP    GEOM    SYMINP    ZMAT    AOBASIS   BASIS     P2S    ABASIS      S 
                                         1400     1410     1200     1210     1080     1600     1650     1300     1700     1800   
                                           T        V       H0       H01     AOSYM     SMH    MOLCAS    ERIS     OPER     GRID   

              2       5        3.00       700     1000      520     1800     2100   
                                         GEOM     BASIS   MCVARS    GRID      RKS  

 PROGRAMS   *        TOTAL        KS       INT
 CPU TIMES  *        12.72     11.68      0.90
 REAL TIME  *        16.34 SEC
 DISK USED  *        82.64 MB      
 **********************************************************************************************************************************


 PROGRAM * Intrinsic Basis Bonding Analysis (IBBA)          Author: G. Knizia

 Molecular orbitals read from record     2100.2  Type=RKS/CANONICAL (state 1.1)
 Fock matrix read from record            2100.2  Type=RKS/TOTAL (state 1.1)
 Orbital energies read from record       2100.2  Type=RKS/CANONICAL (state 1.1)
 Density matrix read from record         2100.2  Type=RKS/CHARGE (state 1.1)

 Number of core orbitals:           3 (   3 )
 Number of closed-shell orbitals:  10 (  10 )

 Basis set MINAO-AUTO-PP generated.      Number of basis functions:   21 

 Polarized AO type:                A = (O Ot + (1-O)(1-Ot)) P12
 Orthogonalization method:         Symmetric (Loewdin)
 Localization functional:          L = sum[A,i] <i|n_A|i>^4 -> max

 Localization group 1:  13 orbitals, occupancy  2.000
 Iterative localization: IB/PM,    7 iter; Final gradient 0.13E-08

 Bond order analysis:       [THRPRINT= 0.020]

   CEN ATOM   CEN ATOM     WIBERG.BO      RENORM.BO
     1   O  -   3   C       0.979411       1.015662
     1   O  -   2   C       0.979364       1.015547
     1   O  -   7   H       0.026304       0.015425
     1   O  -   9   H       0.026304       0.015425
     1   O  -   6   H       0.026136       0.015337
     1   O  -   8   H       0.026136       0.015337

     2   C  -   1   O       0.979364       1.015547
     2   C  -   4   H       0.962094       0.981917
     2   C  -   8   H       0.957963       0.952249
     2   C  -   6   H       0.957963       0.952249

     3   C  -   1   O       0.979411       1.015662
     3   C  -   5   H       0.961896       0.981884
     3   C  -   7   H       0.957913       0.951964
     3   C  -   9   H       0.957913       0.951964

     4   H  -   2   C       0.962094       0.981917

     5   H  -   3   C       0.961896       0.981884

     6   H  -   2   C       0.957963       0.952249
     6   H  -   1   O       0.026136       0.015337

     7   H  -   3   C       0.957913       0.951964
     7   H  -   1   O       0.026304       0.015425

     8   H  -   2   C       0.957963       0.952249
     8   H  -   1   O       0.026136       0.015337

     9   H  -   3   C       0.957913       0.951964
     9   H  -   1   O       0.026304       0.015425


 Valency analysis:

   CEN ATOM   TOT.VALENCE
     1   O       2.073382
     2   C       3.871954
     3   C       3.871707
     4   H       0.979646
     5   H       0.979480
     6   H       0.988318
     7   H       0.988447
     8   H       0.988318
     9   H       0.988447

 Total charge composition:

   CEN ATOM         s          p       ELECTRONS ->P.CHARGE
     1   O       3.54766    4.84844      8.39610   -0.39610
     2   C       2.99246    3.16837      6.16083   -0.16083
     3   C       2.99234    3.16779      6.16012   -0.16012
     4   H       0.85733                 0.85733    0.14267
     5   H       0.85675                 0.85675    0.14325
     6   H       0.89192                 0.89192    0.10808
     7   H       0.89252                 0.89252    0.10748
     8   H       0.89192                 0.89192    0.10808
     9   H       0.89252                 0.89252    0.10748

 Total charge composition, AO contributions:

   CEN ATOM SHL      SPHERICAL COMPONENTS
     1   O  1s       1.99685
     1   O  2s       1.55081
     1   O  2p       1.54214    1.92830    1.37800

     2   C  1s       1.99107
     2   C  2s       1.00139
     2   C  2p       1.18699    1.16448    0.81689

     3   C  1s       1.99107
     3   C  2s       1.00127
     3   C  2p       0.86921    1.16426    1.13431

     4   H  1s       0.85733

     5   H  1s       0.85675

     6   H  1s       0.89192

     7   H  1s       0.89252

     8   H  1s       0.89192

     9   H  1s       0.89252

 Summary of localized orbital composition:   [THRPRINT= 0.020]

   ORB  GRP  ORB.ENERGY      CENTERS/CHARGES
     1   1   -20.045028      O  1   2.000
     2   1   -10.907932      C  3   2.000
     3   1   -10.907478      C  2   2.000
     4   1    -0.959044      O  1   1.248   C  2   0.746
     5   1    -0.959036      O  1   1.248   C  3   0.746
     6   1    -0.722004      O  1   1.970   (other: 0.030)
     7   1    -0.690349      C  2   1.122   H  6   0.876
     8   1    -0.690349      C  2   1.122   H  8   0.876
     9   1    -0.690179      C  3   1.121   H  9   0.877
    10   1    -0.690179      C  3   1.121   H  7   0.877
    11   1    -0.688759      C  3   1.145   H  5   0.850
    12   1    -0.687919      C  2   1.144   H  4   0.851
    13   1    -0.487599      O  1   1.928   (other: 0.072)

 Localized orbitals saved to record      2100.2  (orbital set 2)


 **********************************************************************************************************************************
 DATASETS  * FILE   NREC   LENGTH (MB)   RECORD NAMES
              1      20       43.53       500      610      700      900      950      970     1000      129      960     1100   
                                          VAR    BASINP    GEOM    SYMINP    ZMAT    AOBASIS   BASIS     P2S    ABASIS      S 
                                         1400     1410     1200     1210     1080     1600     1650     1300     1700     1800   
                                           T        V       H0       H01     AOSYM     SMH    MOLCAS    ERIS     OPER     GRID   

              2       5        3.04       700     1000      520     1800     2100   
                                         GEOM     BASIS   MCVARS    GRID      RKS  

 PROGRAMS   *        TOTAL      IBBA        KS       INT
 CPU TIMES  *        12.75      0.03     11.68      0.90
 REAL TIME  *        16.43 SEC
 DISK USED  *        82.64 MB      
 **********************************************************************************************************************************
 Molecular orbitals read from record     2100.2  Type=RKS/LOCAL(IBO)  
 Occupation numbers read from record     2100.2  Type=RKS/LOCAL(IBO)  
 Orbital energies read from record       2100.2  Type=RKS/LOCAL(IBO)  
 Redundancy group numbers read from rec  2100.2  Type=RKS/LOCAL(IBO)  

 IBBA/SVP energy=      0.000000000000

        KS-SCF  
   -154.84357293
 **********************************************************************************************************************************
 Molpro calculation terminated
