
 Primary working directories    : /tmp/sb13343
 Secondary working directories  : /tmp/sb13343
 Wavefunction directory         : /panfs/panasas01/chem/sb13343/wfu/
 Main file repository           : /tmp/sb13343/

 SHA1      : b4a5b34a9e711420743f49e6833241d17c61fb3c
 NAME      : 2099.9.b4a5b34
 ARCHNAME  : linux/x86_64_openmp
 FC        : /cm/shared/languages/GCC-6.1/bin/gfortran
 BLASLIB   : -lblas
 id        : simonbennie

 Nodes     nprocs
 node35-048    1

 Using customized tuning parameters: mindgm=1; mindgv=20; mindgc=4; mindgr=1; noblas=0; minvec=7
 default implementation of scratch files=df  

 memory,500,m
 geomtyp=xyz
 nosym
 noorient
 geometry={
 O          0.00000        0.00000        0.00000
 C          0.00000        0.00000        1.40986
 C          1.30431        0.00000       -0.53525
 H         -1.04418        0.00000        1.73410
 H          1.20786        0.00000       -1.62434
 H          0.50101        0.89295        1.81977
 H          1.87373        0.89295       -0.22737
 H          0.50101       -0.89295        1.81977
 H          1.87373       -0.89295       -0.22737
 }
 basis={ default,svp }
 {uks,M08-HX,direct;wf,26,1,0}
 {ibba,bonds=1}

 Variables initialized (895), CPU time= 0.00 sec
 Commands  initialized (725), CPU time= 0.01 sec, 591 directives.
 Default parameters read. Elapsed time= 2.80 sec

 Checking input...
 Passed
1


                                         ***  PROGRAM SYSTEM MOLPRO  ***
                                       Copyright, TTI GmbH Stuttgart, 2015
                                    Version 2099.9 linked May 26 2017 16:03:21


 **********************************************************************************************************************************
 LABEL *                                                                                 
  64 bit serial version                                                                  DATE: 07-Jun-17          TIME: 16:47:49  
 **********************************************************************************************************************************

 SHA1:             b4a5b34a9e711420743f49e6833241d17c61fb3c
 **********************************************************************************************************************************
 SETTING GEOMTYP        =    XYZ

 Variable memory set to  500000000 words,  buffer space 

 ZSYMEL=NOSYM

 SETTING BASIS          =    SVP


 Recomputing integrals since basis changed


 Using spherical harmonics

 Library entry O      S def2-SVP             selected for orbital group  1
 Library entry O      P def2-SVP             selected for orbital group  1
 Library entry O      D def2-SVP             selected for orbital group  1
 Library entry C      S def2-SVP             selected for orbital group  2
 Library entry C      P def2-SVP             selected for orbital group  2
 Library entry C      D def2-SVP             selected for orbital group  2
 Library entry H      S def2-SVP             selected for orbital group  3
 Library entry H      P def2-SVP             selected for orbital group  3


 PROGRAM * SEWARD (Integral evaluation for generally contracted gaussian basis sets)     Author: Roland Lindh, 1990

 Geometry written to block  1 of record 700


 Point group  C1  



 ATOMIC COORDINATES

 NR  ATOM    CHARGE       X              Y              Z

   1  O       8.00    0.000000000    0.000000000    0.000000000
   2  C       6.00    0.000000000    0.000000000    2.664249274
   3  C       6.00    2.464788682    0.000000000   -1.011475908
   4  H       1.00   -1.973214225    0.000000000    3.276974073
   5  H       1.00    2.282524597    0.000000000   -3.069557733
   6  H       1.00    0.946771686    1.687430943    3.438866910
   7  H       1.00    3.540836531    1.687430943   -0.429667029
   8  H       1.00    0.946771686   -1.687430943    3.438866910
   9  H       1.00    3.540836531   -1.687430943   -0.429667029

 Bond lengths in Bohr (Angstrom)

 1-2  2.664249274  1-3  2.664257262  2-4  2.066157316  2-6  2.084186243  2-8  2.084186243
     ( 1.409860000)     ( 1.409864227)     ( 1.093363366)     ( 1.102903863)     ( 1.102903863)

 3-5  2.066136732  3-7  2.084179391  3-9  2.084179391
     ( 1.093352473)     ( 1.102900237)     ( 1.102900237)

 Bond angles

  1-2-4  107.25067522   1-2-6  111.81829608   1-2-8  111.81829608   1-3-5  107.25086594

  1-3-7  111.81797398   1-3-9  111.81797398   2-1-3  112.31178693   4-2-6  108.88149892

  4-2-8  108.88149892   5-3-7  108.88146655   5-3-9  108.88146655   6-2-8  108.12064679

  7-3-9  108.12116643

 NUCLEAR CHARGE:                   26
 NUMBER OF PRIMITIVE AOS:         117
 NUMBER OF SYMMETRY AOS:          114
 NUMBER OF CONTRACTIONS:           72   (  72A   )
 NUMBER OF CORE ORBITALS:           3   (   3A   )
 NUMBER OF VALENCE ORBITALS:       18   (  18A   )


 NUCLEAR REPULSION ENERGY   83.80024479


 Eigenvalues of metric

         1 0.907E-02 0.130E-01 0.293E-01 0.353E-01 0.441E-01 0.490E-01 0.499E-01 0.601E-01


 Contracted 2-electron integrals neglected if value below      1.0D-11
 AO integral compression algorithm  1   Integral accuracy      1.0D-11

     14.156 MB (compressed) written to integral file ( 45.3%)


 NUMBER OF SORTED TWO-ELECTRON INTEGRALS:    3454506.     BUFFER LENGTH:  32768
 NUMBER OF SEGMENTS:   1  SEGMENT LENGTH:    3454506      RECORD LENGTH: 524288

 Memory used in sort:       4.01 MW

 SORT1 READ     3931143. AND WROTE     2907067. INTEGRALS IN      9 RECORDS. CPU TIME:     0.05 SEC, REAL TIME:     0.11 SEC
 SORT2 READ     2907067. AND WROTE     3454506. INTEGRALS IN     54 RECORDS. CPU TIME:     0.13 SEC, REAL TIME:     0.16 SEC

 FILE SIZES:   FILE 1:    44.4 MBYTE,  FILE 4:    37.8 MBYTE,   TOTAL:     82.2 MBYTE

 OPERATOR DM      FOR CENTER  0  COORDINATES:    0.000000    0.000000    0.000000


 **********************************************************************************************************************************
 DATASETS  * FILE   NREC   LENGTH (MB)   RECORD NAMES
              1      19       42.45       500      610      700      900      950      970     1000      129      960     1100   
                                          VAR    BASINP    GEOM    SYMINP    ZMAT    AOBASIS   BASIS     P2S    ABASIS      S 
                                         1400     1410     1200     1210     1080     1600     1650     1300     1700   
                                           T        V       H0       H01     AOSYM     SMH    MOLCAS    ERIS     OPER   

 PROGRAMS   *        TOTAL       INT
 CPU TIMES  *         1.08      0.93
 REAL TIME  *         4.38 SEC
 DISK USED  *        82.64 MB      
 **********************************************************************************************************************************

 Density functional group M08-HX=XC-M08-HX
 Functional: XC-M08-HX(via MFM 1.6)                                            Gradient terms: 1
 Use grid at  1800.2


 Exact exchange will be calculated, factor:  0.5223

 Functional: XC-M08-HX                 Factor:  1.0000

 Generated new metagrid on record  1800.2 with target accuracy 1.0D-06 and 33732 points in CPU time    0.9
 Computed new grid on record 1800.1 in CPU time    1.0
   61197 words reserved for DFT integration

 PROGRAM * UKS-SCF (Unrestricted Kohn-Sham)     Authors: W. Meyer, H.-J. Werner, P.J. Knowles, 1993

 NUMBER OF ELECTRONS:      13+   13-    SPACE SYMMETRY=1    SPIN SYMMETRY: Singlet 
 CONVERGENCE THRESHOLDS:    1.00E-05 (Density)    1.00E-06 (Energy)
 MAX. NUMBER OF ITERATIONS:       60
 INTERPOLATION TYPE:            DIIS
 INTERPOLATION STEPS:              2 (START)      1 (STEP)
 LEVEL SHIFTS:                 -0.20 (ALPHA)  -0.20 (BETA) 



 Use fine grid record 1800.2 for energy threshold  1.0D-06
 Orbital guess generated from atomic densities. Full valence occupancy:   13

 Molecular orbital dump at record        2200.2

 Initial alpha occupation  13
 Initial beta  occupation  13

 ITERATION    DDIFF          GRAD             ENERGY        2-EL.EN.            DIPOLE MOMENTS         DIIS
    1      0.000D+00      0.000D+00      -154.81898081    298.236668    0.73063    0.00000    0.49015    0
    2      0.576D-02      0.329D-02      -154.84407194    293.985735    0.44583    0.00000    0.30051    1
    3      0.180D-02      0.131D-02      -154.84745545    294.958147    0.48287    0.00000    0.32546    2
    4      0.892D-03      0.354D-03      -154.84797616    294.802073    0.45748    0.00000    0.30850    3
    5      0.612D-03      0.142D-03      -154.84811094    294.766735    0.44920    0.00000    0.30303    4
    6      0.221D-03      0.361D-04      -154.84812189    294.763930    0.44620    0.00000    0.30105    5
    7      0.566D-04      0.889D-05      -154.84812260    294.758710    0.44586    0.00000    0.30083    6
    8      0.150D-04      0.242D-05      -154.84812266    294.759184    0.44572    0.00000    0.30074    6
    9      0.415D-05      0.633D-06      -154.84812266    294.759293    0.44573    0.00000    0.30074    6
   10      0.445D-06      0.120D-06      -154.84812266    294.759184    0.44572    0.00000    0.30073    6

 Final alpha occupancy:  13
 Final beta  occupancy:  13

 !UKS STATE 1.1 Energy               -154.848122661737
 Nuclear energy                        83.80024479
 One-electron energy                 -375.24702936
 Two-electron energy                  147.37959208
 Density functional                   -10.78093018     XC-M08-HX=-10.78093018
 Virial quotient                       -1.01105703
 !UKS STATE 1.1 Dipole moment           0.44571775     0.00000000     0.30073388
 Dipole moment /Debye                   1.13282733     0.00000000     0.76433922

 Orbital energies for positive spin:

         1.1          2.1          3.1          4.1          5.1          6.1          7.1          8.1          9.1         10.1
    -19.620662   -10.583258   -10.583166    -1.134834    -0.810546    -0.716033    -0.547936    -0.546380    -0.544932    -0.459967

        11.1         12.1         13.1         14.1         15.1
     -0.439741    -0.386683    -0.326395     0.077662     0.121949

 Orbital energies for negative spin:

         1.1          2.1          3.1          4.1          5.1          6.1          7.1          8.1          9.1         10.1
    -19.620662   -10.583258   -10.583166    -1.134834    -0.810546    -0.716033    -0.547936    -0.546380    -0.544932    -0.459967

        11.1         12.1         13.1         14.1         15.1
     -0.439741    -0.386683    -0.326395     0.077662     0.121949

 HOMO     13.1    -0.326395 =      -8.8816eV
 LUMO     14.1     0.077662 =       2.1133eV
 LUMO-HOMO         0.404057 =      10.9949eV

 EXPECTATION VALUE OF S**2:            -0.00000000

 Natural orbitals saved to record    2200.2 (Orbital set 3)

 Orbital spaces for UNO-CAS (Min. occupation: 0.020  Max. occupation: 1.980):

 Closed:       13
 Active:        0


 **********************************************************************************************************************************
 DATASETS  * FILE   NREC   LENGTH (MB)   RECORD NAMES
              1      20       43.53       500      610      700      900      950      970     1000      129      960     1100   
                                          VAR    BASINP    GEOM    SYMINP    ZMAT    AOBASIS   BASIS     P2S    ABASIS      S 
                                         1400     1410     1200     1210     1080     1600     1650     1300     1700     1800   
                                           T        V       H0       H01     AOSYM     SMH    MOLCAS    ERIS     OPER     GRID   

              2       5        3.11       700     1000      520     1800     2200   
                                         GEOM     BASIS   MCVARS    GRID      UKS  

 PROGRAMS   *        TOTAL       UKS       INT
 CPU TIMES  *        18.89     17.80      0.93
 REAL TIME  *        68.62 SEC
 DISK USED  *        82.64 MB      
 **********************************************************************************************************************************


 PROGRAM * Intrinsic Basis Bonding Analysis (IBBA)          Author: G. Knizia

 Molecular orbitals read from record     2200.2  Type=UKS/ALPHA (state 1.1)
 Fock matrix read from record            2200.2  Type=UKS/TOTAL (state 1.1)
 Orbital energies read from record       2200.2  Type=UKS/ALPHA (state 1.1)
 Density matrix read from record         2200.2  Type=UKS/CHARGE (state 1.1)

 Number of core orbitals:           3 (   3 )
 Number of closed-shell orbitals:  10 (  10 )

 Basis set MINAO-AUTO-PP generated.      Number of basis functions:   21 

 Polarized AO type:                A = (O Ot + (1-O)(1-Ot)) P12
 Orthogonalization method:         Symmetric (Loewdin)
 Localization functional:          L = sum[A,i] <i|n_A|i>^4 -> max

 Localization group 1:  13 orbitals, occupancy  2.000
 Iterative localization: IB/PM,    7 iter; Final gradient 0.92E-10

 Bond order analysis:       [THRPRINT= 0.020]

   CEN ATOM   CEN ATOM     WIBERG.BO      RENORM.BO
     1   O  -   3   C       0.988870       1.019379
     1   O  -   2   C       0.988830       1.019292
     1   O  -   9   H       0.031446       0.018660
     1   O  -   7   H       0.031446       0.018660
     1   O  -   8   H       0.031356       0.018616
     1   O  -   6   H       0.031356       0.018616

     2   C  -   1   O       0.988830       1.019292
     2   C  -   4   H       0.959006       0.978636
     2   C  -   8   H       0.951897       0.941719
     2   C  -   6   H       0.951897       0.941719

     3   C  -   1   O       0.988870       1.019379
     3   C  -   5   H       0.958974       0.978628
     3   C  -   9   H       0.951905       0.941568
     3   C  -   7   H       0.951905       0.941568

     4   H  -   2   C       0.959006       0.978636

     5   H  -   3   C       0.958974       0.978628

     6   H  -   2   C       0.951897       0.941719
     6   H  -   1   O       0.031356       0.018616

     7   H  -   3   C       0.951905       0.941568
     7   H  -   1   O       0.031446       0.018660

     8   H  -   2   C       0.951897       0.941719
     8   H  -   1   O       0.031356       0.018616

     9   H  -   3   C       0.951905       0.941568
     9   H  -   1   O       0.031446       0.018660


 Valency analysis:

   CEN ATOM   TOT.VALENCE
     1   O       2.114440
     2   C       3.869012
     3   C       3.869037
     4   H       0.977966
     5   H       0.977939
     6   H       0.987480
     7   H       0.987577
     8   H       0.987480
     9   H       0.987577

 Total charge composition:

   CEN ATOM         s          p       ELECTRONS ->P.CHARGE
     1   O       3.57493    4.79629      8.37122   -0.37122
     2   C       3.01736    3.16928      6.18664   -0.18664
     3   C       3.01721    3.16860      6.18581   -0.18581
     4   H       0.85156                 0.85156    0.14844
     5   H       0.85147                 0.85147    0.14853
     6   H       0.88811                 0.88811    0.11189
     7   H       0.88854                 0.88854    0.11146
     8   H       0.88811                 0.88811    0.11189
     9   H       0.88854                 0.88854    0.11146

 Total charge composition, AO contributions:

   CEN ATOM SHL      SPHERICAL COMPONENTS
     1   O  1s       1.99700
     1   O  2s       1.57793
     1   O  2p       1.52253    1.91122    1.36254

     2   C  1s       1.99147
     2   C  2s       1.02589
     2   C  2p       1.18602    1.16524    0.81801

     3   C  1s       1.99147
     3   C  2s       1.02574
     3   C  2p       0.87039    1.16504    1.13318

     4   H  1s       0.85156

     5   H  1s       0.85147

     6   H  1s       0.88811

     7   H  1s       0.88854

     8   H  1s       0.88811

     9   H  1s       0.88854

 Summary of localized orbital composition:   [THRPRINT= 0.020]

   ORB  GRP  ORB.ENERGY      CENTERS/CHARGES
     1   1   -19.466772      O  1   2.000
     2   1   -10.470395      C  3   2.000
     3   1   -10.470300      C  2   2.000
     4   1    -0.854619      O  1   1.246   C  3   0.747
     5   1    -0.854569      O  1   1.246   C  2   0.747
     6   1    -0.634573      O  1   1.966   (other: 0.034)
     7   1    -0.594112      C  2   1.129   H  8   0.869
     8   1    -0.594112      C  2   1.129   H  6   0.869
     9   1    -0.594000      C  3   1.128   H  9   0.870
    10   1    -0.594000      C  3   1.128   H  7   0.870
    11   1    -0.593103      C  3   1.150   H  5   0.844
    12   1    -0.592913      C  2   1.150   H  4   0.844
    13   1    -0.387091      O  1   1.911   (other: 0.089)

 Localized orbitals saved to record      2200.2  (orbital set 4)


 **********************************************************************************************************************************
 DATASETS  * FILE   NREC   LENGTH (MB)   RECORD NAMES
              1      20       43.53       500      610      700      900      950      970     1000      129      960     1100   
                                          VAR    BASINP    GEOM    SYMINP    ZMAT    AOBASIS   BASIS     P2S    ABASIS      S 
                                         1400     1410     1200     1210     1080     1600     1650     1300     1700     1800   
                                           T        V       H0       H01     AOSYM     SMH    MOLCAS    ERIS     OPER     GRID   

              2       5        3.15       700     1000      520     1800     2200   
                                         GEOM     BASIS   MCVARS    GRID      UKS  

 PROGRAMS   *        TOTAL      IBBA       UKS       INT
 CPU TIMES  *        18.91      0.03     17.80      0.93
 REAL TIME  *        69.11 SEC
 DISK USED  *        82.64 MB      
 **********************************************************************************************************************************
 Molecular orbitals read from record     2200.2  Type=UKS/LOCAL(IBO)  
 Occupation numbers read from record     2200.2  Type=UKS/LOCAL(IBO)  
 Orbital energies read from record       2200.2  Type=UKS/LOCAL(IBO)  
 Redundancy group numbers read from rec  2200.2  Type=UKS/BETA (state 1.1)

 IBBA/SVP energy=      0.000000000000

        UKS-SCF 
   -154.84812266
 **********************************************************************************************************************************
 Molpro calculation terminated
