
 Primary working directories    : /tmp/sb13343
 Secondary working directories  : /tmp/sb13343
 Wavefunction directory         : /panfs/panasas01/chem/sb13343/wfu/
 Main file repository           : /tmp/sb13343/

 SHA1      : b4a5b34a9e711420743f49e6833241d17c61fb3c
 NAME      : 2099.9.b4a5b34
 ARCHNAME  : linux/x86_64_openmp
 FC        : /cm/shared/languages/GCC-6.1/bin/gfortran
 BLASLIB   : -lblas
 id        : simonbennie

 Nodes     nprocs
 node32-010    1

 Using customized tuning parameters: mindgm=1; mindgv=20; mindgc=4; mindgr=1; noblas=0; minvec=7
 default implementation of scratch files=df  

 memory,500,m
 geomtyp=xyz
 nosym
 noorient
 geometry={
 O          0.00000        0.00000        0.00000
 C          0.00000        0.00000        1.40986
 C          1.30431        0.00000       -0.53525
 H         -1.04418        0.00000        1.73410
 H          1.20786        0.00000       -1.62434
 H          0.50101        0.89295        1.81977
 H          1.87373        0.89295       -0.22737
 H          0.50101       -0.89295        1.81977
 H          1.87373       -0.89295       -0.22737
 }
 basis={ default,svp }
 {ks,PBE0MOL,direct;wf,26,1,0}
 {ibba,bonds=1}

 Variables initialized (895), CPU time= 0.00 sec
 Commands  initialized (725), CPU time= 0.02 sec, 591 directives.
 Default parameters read. Elapsed time= 1.73 sec

 Checking input...
 Passed
1


                                         ***  PROGRAM SYSTEM MOLPRO  ***
                                       Copyright, TTI GmbH Stuttgart, 2015
                                    Version 2099.9 linked May 26 2017 16:03:21


 **********************************************************************************************************************************
 LABEL *                                                                                 
  64 bit serial version                                                                  DATE: 07-Jun-17          TIME: 16:42:28  
 **********************************************************************************************************************************

 SHA1:             b4a5b34a9e711420743f49e6833241d17c61fb3c
 **********************************************************************************************************************************
 SETTING GEOMTYP        =    XYZ

 Variable memory set to  500000000 words,  buffer space 

 ZSYMEL=NOSYM

 SETTING BASIS          =    SVP


 Recomputing integrals since basis changed


 Using spherical harmonics

 Library entry O      S def2-SVP             selected for orbital group  1
 Library entry O      P def2-SVP             selected for orbital group  1
 Library entry O      D def2-SVP             selected for orbital group  1
 Library entry C      S def2-SVP             selected for orbital group  2
 Library entry C      P def2-SVP             selected for orbital group  2
 Library entry C      D def2-SVP             selected for orbital group  2
 Library entry H      S def2-SVP             selected for orbital group  3
 Library entry H      P def2-SVP             selected for orbital group  3


 PROGRAM * SEWARD (Integral evaluation for generally contracted gaussian basis sets)     Author: Roland Lindh, 1990

 Geometry written to block  1 of record 700


 Point group  C1  



 ATOMIC COORDINATES

 NR  ATOM    CHARGE       X              Y              Z

   1  O       8.00    0.000000000    0.000000000    0.000000000
   2  C       6.00    0.000000000    0.000000000    2.664249274
   3  C       6.00    2.464788682    0.000000000   -1.011475908
   4  H       1.00   -1.973214225    0.000000000    3.276974073
   5  H       1.00    2.282524597    0.000000000   -3.069557733
   6  H       1.00    0.946771686    1.687430943    3.438866910
   7  H       1.00    3.540836531    1.687430943   -0.429667029
   8  H       1.00    0.946771686   -1.687430943    3.438866910
   9  H       1.00    3.540836531   -1.687430943   -0.429667029

 Bond lengths in Bohr (Angstrom)

 1-2  2.664249274  1-3  2.664257262  2-4  2.066157316  2-6  2.084186243  2-8  2.084186243
     ( 1.409860000)     ( 1.409864227)     ( 1.093363366)     ( 1.102903863)     ( 1.102903863)

 3-5  2.066136732  3-7  2.084179391  3-9  2.084179391
     ( 1.093352473)     ( 1.102900237)     ( 1.102900237)

 Bond angles

  1-2-4  107.25067522   1-2-6  111.81829608   1-2-8  111.81829608   1-3-5  107.25086594

  1-3-7  111.81797398   1-3-9  111.81797398   2-1-3  112.31178693   4-2-6  108.88149892

  4-2-8  108.88149892   5-3-7  108.88146655   5-3-9  108.88146655   6-2-8  108.12064679

  7-3-9  108.12116643

 NUCLEAR CHARGE:                   26
 NUMBER OF PRIMITIVE AOS:         117
 NUMBER OF SYMMETRY AOS:          114
 NUMBER OF CONTRACTIONS:           72   (  72A   )
 NUMBER OF CORE ORBITALS:           3   (   3A   )
 NUMBER OF VALENCE ORBITALS:       18   (  18A   )


 NUCLEAR REPULSION ENERGY   83.80024479


 Eigenvalues of metric

         1 0.907E-02 0.130E-01 0.293E-01 0.353E-01 0.441E-01 0.490E-01 0.499E-01 0.601E-01


 Contracted 2-electron integrals neglected if value below      1.0D-11
 AO integral compression algorithm  1   Integral accuracy      1.0D-11

     14.156 MB (compressed) written to integral file ( 45.3%)


 NUMBER OF SORTED TWO-ELECTRON INTEGRALS:    3454506.     BUFFER LENGTH:  32768
 NUMBER OF SEGMENTS:   1  SEGMENT LENGTH:    3454506      RECORD LENGTH: 524288

 Memory used in sort:       4.01 MW

 SORT1 READ     3931143. AND WROTE     2907067. INTEGRALS IN      9 RECORDS. CPU TIME:     0.05 SEC, REAL TIME:     0.08 SEC
 SORT2 READ     2907067. AND WROTE     3454506. INTEGRALS IN     54 RECORDS. CPU TIME:     0.12 SEC, REAL TIME:     0.14 SEC

 FILE SIZES:   FILE 1:    44.4 MBYTE,  FILE 4:    37.8 MBYTE,   TOTAL:     82.2 MBYTE

 OPERATOR DM      FOR CENTER  0  COORDINATES:    0.000000    0.000000    0.000000


 **********************************************************************************************************************************
 DATASETS  * FILE   NREC   LENGTH (MB)   RECORD NAMES
              1      19       42.45       500      610      700      900      950      970     1000      129      960     1100   
                                          VAR    BASINP    GEOM    SYMINP    ZMAT    AOBASIS   BASIS     P2S    ABASIS      S 
                                         1400     1410     1200     1210     1080     1600     1650     1300     1700   
                                           T        V       H0       H01     AOSYM     SMH    MOLCAS    ERIS     OPER   

 PROGRAMS   *        TOTAL       INT
 CPU TIMES  *         0.90      0.76
 REAL TIME  *         3.04 SEC
 DISK USED  *        82.64 MB      
 **********************************************************************************************************************************

 Density functional group PBE0MOL=PBEX+PW91C
 Functional: PBEX(Automatically generated (new) PBEX)                          Gradient terms: 1
 Functional: PW91C(Automatically generated (new) PW91C)                        Gradient terms: 1
 Use grid at  1800.2


 Exact exchange will be calculated, factor:  0.2500

 Functional: PBEX                      Factor:  0.7500
 Functional: PW91C                     Factor:  1.0000

 Generated new metagrid on record  1800.2 with target accuracy 1.0D-06 and 33732 points in CPU time    0.9
 Computed new grid on record 1800.1 in CPU time    1.0
   61197 words reserved for DFT integration

 PROGRAM * RKS-SCF (Restricted closed shell Kohn-Sham)     Authors: W. Meyer, H.-J. Werner, P.J. Knowles, 1993

 NUMBER OF ELECTRONS:      13+   13-    SPACE SYMMETRY=1    SPIN SYMMETRY: Singlet 
 CONVERGENCE THRESHOLDS:    1.00E-05 (Density)    1.00E-06 (Energy)
 MAX. NUMBER OF ITERATIONS:       60
 INTERPOLATION TYPE:            DIIS
 INTERPOLATION STEPS:              2 (START)      1 (STEP)
 LEVEL SHIFTS:                  0.00 (CLOSED)  0.00 (OPEN) 



 Use fine grid record 1800.2 for energy threshold  1.0D-06
 Orbital guess generated from atomic densities. Full valence occupancy:   13

 Molecular orbital dump at record        2100.2

 Initial occupancy:  13

 ITERATION    DDIFF          GRAD             ENERGY        2-EL.EN.            DIPOLE MOMENTS         DIIS   ORB.
    1      0.000D+00      0.000D+00      -154.72380324    312.338482    0.78049    0.00000    0.52338    0    start
    2      0.000D+00      0.840D-02      -154.71436077    299.640605    0.01195    0.00000    0.00802    1    diag
    3      0.171D-01      0.969D-02      -154.78022385    306.527641    0.47219    0.00000    0.31664    2    diag
    4      0.943D-02      0.141D-02      -154.78128290    306.382012    0.42803    0.00000    0.28703    3    diag
    5      0.106D-02      0.419D-03      -154.78138863    306.330811    0.43722    0.00000    0.29319    4    diag
    6      0.300D-03      0.621D-04      -154.78139120    306.350329    0.43538    0.00000    0.29196    5    diag
    7      0.475D-04      0.544D-05      -154.78139123    306.351343    0.43602    0.00000    0.29238    6    diag
    8      0.614D-05      0.847D-06      -154.78139123    306.351403    0.43588    0.00000    0.29229    0    orth

 Final occupancy:  13

 !RKS STATE 1.1 Energy               -154.781391227739
 Nuclear energy                        83.80024479
 One-electron energy                 -375.40032302
 Two-electron energy                  153.17570133
 SCF exchange energy                  -20.68453366     Factor= 0.2500
 Density functional                   -16.35701432     PBEX=-20.60544131 PW91C= -0.90293333
 Virial quotient                       -1.00971331
 !RKS STATE 1.1 Dipole moment           0.43588012     0.00000000     0.29228869
 Dipole moment /Debye                   1.10782419     0.00000000     0.74287508

 Orbital energies:

         1.1          2.1          3.1          4.1          5.1          6.1          7.1          8.1          9.1         10.1
    -19.212106   -10.277119   -10.277106    -1.046284    -0.734078    -0.646857    -0.491275    -0.483025    -0.482323    -0.405628

        11.1         12.1         13.1         14.1         15.1
     -0.387180    -0.328336    -0.266924     0.071387     0.117253

 HOMO     13.1    -0.266924 =      -7.2634eV
 LUMO     14.1     0.071387 =       1.9425eV
 LUMO-HOMO         0.338311 =       9.2059eV


 **********************************************************************************************************************************
 DATASETS  * FILE   NREC   LENGTH (MB)   RECORD NAMES
              1      20       43.53       500      610      700      900      950      970     1000      129      960     1100   
                                          VAR    BASINP    GEOM    SYMINP    ZMAT    AOBASIS   BASIS     P2S    ABASIS      S 
                                         1400     1410     1200     1210     1080     1600     1650     1300     1700     1800   
                                           T        V       H0       H01     AOSYM     SMH    MOLCAS    ERIS     OPER     GRID   

              2       5        3.00       700     1000      520     1800     2100   
                                         GEOM     BASIS   MCVARS    GRID      RKS  

 PROGRAMS   *        TOTAL        KS       INT
 CPU TIMES  *         5.10      4.20      0.76
 REAL TIME  *         7.94 SEC
 DISK USED  *        82.64 MB      
 **********************************************************************************************************************************


 PROGRAM * Intrinsic Basis Bonding Analysis (IBBA)          Author: G. Knizia

 Molecular orbitals read from record     2100.2  Type=RKS/CANONICAL (state 1.1)
 Fock matrix read from record            2100.2  Type=RKS/TOTAL (state 1.1)
 Orbital energies read from record       2100.2  Type=RKS/CANONICAL (state 1.1)
 Density matrix read from record         2100.2  Type=RKS/CHARGE (state 1.1)

 Number of core orbitals:           3 (   3 )
 Number of closed-shell orbitals:  10 (  10 )

 Basis set MINAO-AUTO-PP generated.      Number of basis functions:   21 

 Polarized AO type:                A = (O Ot + (1-O)(1-Ot)) P12
 Orthogonalization method:         Symmetric (Loewdin)
 Localization functional:          L = sum[A,i] <i|n_A|i>^4 -> max

 Localization group 1:  13 orbitals, occupancy  2.000
 Iterative localization: IB/PM,    7 iter; Final gradient 0.19E-09

 Bond order analysis:       [THRPRINT= 0.020]

   CEN ATOM   CEN ATOM     WIBERG.BO      RENORM.BO
     1   O  -   2   C       0.988690       1.019760
     1   O  -   3   C       0.988685       1.019758
     1   O  -   8   H       0.032711       0.019478
     1   O  -   6   H       0.032711       0.019478
     1   O  -   9   H       0.032710       0.019477
     1   O  -   7   H       0.032710       0.019477

     2   C  -   1   O       0.988690       1.019760
     2   C  -   4   H       0.958013       0.978206
     2   C  -   8   H       0.950105       0.939113
     2   C  -   6   H       0.950105       0.939113

     3   C  -   1   O       0.988685       1.019758
     3   C  -   5   H       0.958016       0.978206
     3   C  -   9   H       0.950104       0.939115
     3   C  -   7   H       0.950104       0.939115

     4   H  -   2   C       0.958013       0.978206

     5   H  -   3   C       0.958016       0.978206

     6   H  -   2   C       0.950105       0.939113
     6   H  -   1   O       0.032711       0.019478

     7   H  -   3   C       0.950104       0.939115
     7   H  -   1   O       0.032710       0.019477

     8   H  -   2   C       0.950105       0.939113
     8   H  -   1   O       0.032711       0.019478

     9   H  -   3   C       0.950104       0.939115
     9   H  -   1   O       0.032710       0.019477


 Valency analysis:

   CEN ATOM   TOT.VALENCE
     1   O       2.119427
     2   C       3.865312
     3   C       3.865309
     4   H       0.977502
     5   H       0.977505
     6   H       0.987276
     7   H       0.987274
     8   H       0.987276
     9   H       0.987274

 Total charge composition:

   CEN ATOM         s          p       ELECTRONS ->P.CHARGE
     1   O       3.58796    4.78635      8.37431   -0.37431
     2   C       3.01967    3.16877      6.18844   -0.18844
     3   C       3.01967    3.16877      6.18844   -0.18844
     4   H       0.85001                 0.85001    0.14999
     5   H       0.85002                 0.85002    0.14998
     6   H       0.88720                 0.88720    0.11280
     7   H       0.88719                 0.88719    0.11281
     8   H       0.88720                 0.88720    0.11280
     9   H       0.88719                 0.88719    0.11281

 Total charge composition, AO contributions:

   CEN ATOM SHL      SPHERICAL COMPONENTS
     1   O  1s       1.99702
     1   O  2s       1.59094
     1   O  2p       1.51786    1.90730    1.36118

     2   C  1s       1.99163
     2   C  2s       1.02804
     2   C  2p       1.18748    1.16738    0.81392

     3   C  1s       1.99163
     3   C  2s       1.02804
     3   C  2p       0.86788    1.16738    1.13351

     4   H  1s       0.85001

     5   H  1s       0.85002

     6   H  1s       0.88720

     7   H  1s       0.88719

     8   H  1s       0.88720

     9   H  1s       0.88719

 Summary of localized orbital composition:   [THRPRINT= 0.020]

   ORB  GRP  ORB.ENERGY      CENTERS/CHARGES
     1   1   -19.060030      O  1   2.000
     2   1   -10.167101      C  2   2.000
     3   1   -10.167097      C  3   2.000
     4   1    -0.779931      O  1   1.250   C  2   0.743
     5   1    -0.779926      O  1   1.250   C  3   0.743
     6   1    -0.565559      O  1   1.965   (other: 0.035)
     7   1    -0.533555      C  3   1.131   H  7   0.868
     8   1    -0.533555      C  3   1.131   H  9   0.868
     9   1    -0.533554      C  2   1.131   H  8   0.868
    10   1    -0.533554      C  2   1.131   H  6   0.868
    11   1    -0.532938      C  3   1.151   H  5   0.843
    12   1    -0.532931      C  2   1.151   H  4   0.843
    13   1    -0.318511      O  1   1.907   (other: 0.093)

 Localized orbitals saved to record      2100.2  (orbital set 2)


 **********************************************************************************************************************************
 DATASETS  * FILE   NREC   LENGTH (MB)   RECORD NAMES
              1      20       43.53       500      610      700      900      950      970     1000      129      960     1100   
                                          VAR    BASINP    GEOM    SYMINP    ZMAT    AOBASIS   BASIS     P2S    ABASIS      S 
                                         1400     1410     1200     1210     1080     1600     1650     1300     1700     1800   
                                           T        V       H0       H01     AOSYM     SMH    MOLCAS    ERIS     OPER     GRID   

              2       5        3.04       700     1000      520     1800     2100   
                                         GEOM     BASIS   MCVARS    GRID      RKS  

 PROGRAMS   *        TOTAL      IBBA        KS       INT
 CPU TIMES  *         5.13      0.03      4.20      0.76
 REAL TIME  *         8.03 SEC
 DISK USED  *        82.64 MB      
 **********************************************************************************************************************************
 Molecular orbitals read from record     2100.2  Type=RKS/LOCAL(IBO)  
 Occupation numbers read from record     2100.2  Type=RKS/LOCAL(IBO)  
 Orbital energies read from record       2100.2  Type=RKS/LOCAL(IBO)  
 Redundancy group numbers read from rec  2100.2  Type=RKS/LOCAL(IBO)  

 IBBA/SVP energy=      0.000000000000

        KS-SCF  
   -154.78139123
 **********************************************************************************************************************************
 Molpro calculation terminated
