
 Primary working directories    : /tmp/sb13343
 Secondary working directories  : /tmp/sb13343
 Wavefunction directory         : /panfs/panasas01/chem/sb13343/wfu/
 Main file repository           : /tmp/sb13343/

 SHA1      : b4a5b34a9e711420743f49e6833241d17c61fb3c
 NAME      : 2099.9.b4a5b34
 ARCHNAME  : linux/x86_64_openmp
 FC        : /cm/shared/languages/GCC-6.1/bin/gfortran
 BLASLIB   : -lblas
 id        : simonbennie

 Nodes     nprocs
 node32-019    1

 Using customized tuning parameters: mindgm=1; mindgv=20; mindgc=4; mindgr=1; noblas=0; minvec=7
 default implementation of scratch files=df  

 memory,500,m
 geomtyp=xyz
 nosym
 noorient
 geometry={
 O          0.00000        0.00000        0.00000
 C          0.00000        0.00000        1.40986
 C          1.30431        0.00000       -0.53525
 H         -1.04418        0.00000        1.73410
 H          1.20786        0.00000       -1.62434
 H          0.50101        0.89295        1.81977
 H          1.87373        0.89295       -0.22737
 H          0.50101       -0.89295        1.81977
 H          1.87373       -0.89295       -0.22737
 }
 basis={ default,sto-3g }
 {ks,B-LYP,direct;wf,26,1,0}
 {ibba,bonds=1}

 Variables initialized (895), CPU time= 0.01 sec
 Commands  initialized (725), CPU time= 0.01 sec, 591 directives.
 Default parameters read. Elapsed time= 1.43 sec

 Checking input...
 Passed
1


                                         ***  PROGRAM SYSTEM MOLPRO  ***
                                       Copyright, TTI GmbH Stuttgart, 2015
                                    Version 2099.9 linked May 26 2017 16:03:21


 **********************************************************************************************************************************
 LABEL *                                                                                 
  64 bit serial version                                                                  DATE: 07-Jun-17          TIME: 16:16:20  
 **********************************************************************************************************************************

 SHA1:             b4a5b34a9e711420743f49e6833241d17c61fb3c
 **********************************************************************************************************************************
 SETTING GEOMTYP        =    XYZ

 Variable memory set to  500000000 words,  buffer space 

 ZSYMEL=NOSYM

 SETTING BASIS          =    STO-3G


 Recomputing integrals since basis changed


 Using spherical harmonics

 Library entry O      S STO-3G               selected for orbital group  1
 Library entry O      P STO-3G               selected for orbital group  1
 Library entry C      S STO-3G               selected for orbital group  2
 Library entry C      P STO-3G               selected for orbital group  2
 Library entry H      S STO-3G               selected for orbital group  3


 PROGRAM * SEWARD (Integral evaluation for generally contracted gaussian basis sets)     Author: Roland Lindh, 1990

 Geometry written to block  1 of record 700


 Point group  C1  



 ATOMIC COORDINATES

 NR  ATOM    CHARGE       X              Y              Z

   1  O       8.00    0.000000000    0.000000000    0.000000000
   2  C       6.00    0.000000000    0.000000000    2.664249274
   3  C       6.00    2.464788682    0.000000000   -1.011475908
   4  H       1.00   -1.973214225    0.000000000    3.276974073
   5  H       1.00    2.282524597    0.000000000   -3.069557733
   6  H       1.00    0.946771686    1.687430943    3.438866910
   7  H       1.00    3.540836531    1.687430943   -0.429667029
   8  H       1.00    0.946771686   -1.687430943    3.438866910
   9  H       1.00    3.540836531   -1.687430943   -0.429667029

 Bond lengths in Bohr (Angstrom)

 1-2  2.664249274  1-3  2.664257262  2-4  2.066157316  2-6  2.084186243  2-8  2.084186243
     ( 1.409860000)     ( 1.409864227)     ( 1.093363366)     ( 1.102903863)     ( 1.102903863)

 3-5  2.066136732  3-7  2.084179391  3-9  2.084179391
     ( 1.093352473)     ( 1.102900237)     ( 1.102900237)

 Bond angles

  1-2-4  107.25067522   1-2-6  111.81829608   1-2-8  111.81829608   1-3-5  107.25086594

  1-3-7  111.81797398   1-3-9  111.81797398   2-1-3  112.31178693   4-2-6  108.88149892

  4-2-8  108.88149892   5-3-7  108.88146655   5-3-9  108.88146655   6-2-8  108.12064679

  7-3-9  108.12116643

 NUCLEAR CHARGE:                   26
 NUMBER OF PRIMITIVE AOS:          63
 NUMBER OF SYMMETRY AOS:           63
 NUMBER OF CONTRACTIONS:           21   (  21A   )
 NUMBER OF CORE ORBITALS:           3   (   3A   )
 NUMBER OF VALENCE ORBITALS:       18   (  18A   )


 NUCLEAR REPULSION ENERGY   83.80024479


 Eigenvalues of metric

         1 0.234E+00 0.235E+00 0.359E+00 0.371E+00 0.377E+00 0.378E+00 0.398E+00 0.479E+00


 Contracted 2-electron integrals neglected if value below      1.0D-11
 AO integral compression algorithm  1   Integral accuracy      1.0D-11

     0.262 MB (compressed) written to integral file (100.0%)


 NUMBER OF SORTED TWO-ELECTRON INTEGRALS:      26796.     BUFFER LENGTH:  32768
 NUMBER OF SEGMENTS:   1  SEGMENT LENGTH:      26796      RECORD LENGTH: 524288

 Memory used in sort:       0.58 MW

 SORT1 READ       32133. AND WROTE       21402. INTEGRALS IN      1 RECORDS. CPU TIME:     0.00 SEC, REAL TIME:     0.00 SEC
 SORT2 READ       21402. AND WROTE       26796. INTEGRALS IN      1 RECORDS. CPU TIME:     0.01 SEC, REAL TIME:     0.00 SEC

 FILE SIZES:   FILE 1:    30.4 MBYTE,  FILE 4:     4.2 MBYTE,   TOTAL:     34.6 MBYTE

 OPERATOR DM      FOR CENTER  0  COORDINATES:    0.000000    0.000000    0.000000


 **********************************************************************************************************************************
 DATASETS  * FILE   NREC   LENGTH (MB)   RECORD NAMES
              1      19       30.21       500      610      700      900      950      970     1000      129      960     1100   
                                          VAR    BASINP    GEOM    SYMINP    ZMAT    AOBASIS   BASIS     P2S    ABASIS      S 
                                         1400     1410     1200     1210     1080     1600     1650     1300     1700   
                                           T        V       H0       H01     AOSYM     SMH    MOLCAS    ERIS     OPER   

 PROGRAMS   *        TOTAL       INT
 CPU TIMES  *         0.51      0.36
 REAL TIME  *         2.37 SEC
 DISK USED  *        34.99 MB      
 **********************************************************************************************************************************

 Density functional group B-LYP=B88+LYP
 Functional: B88(Automatically generated (new) B88)                            Gradient terms: 1
 Functional: LYP(Automatically generated (new) LYP)                            Gradient terms: 1
 Use grid at  1800.2

 Functional: B88                       Factor:  1.0000
 Functional: LYP                       Factor:  1.0000

 Generated new metagrid on record  1800.2 with target accuracy 1.0D-06 and 33732 points in CPU time    1.0
 Computed new grid on record 1800.1 in CPU time    1.0
   20895 words reserved for DFT integration

 PROGRAM * RKS-SCF (Restricted closed shell Kohn-Sham)     Authors: W. Meyer, H.-J. Werner, P.J. Knowles, 1993

 NUMBER OF ELECTRONS:      13+   13-    SPACE SYMMETRY=1    SPIN SYMMETRY: Singlet 
 CONVERGENCE THRESHOLDS:    1.00E-05 (Density)    1.00E-06 (Energy)
 MAX. NUMBER OF ITERATIONS:       60
 INTERPOLATION TYPE:            DIIS
 INTERPOLATION STEPS:              2 (START)      1 (STEP)
 LEVEL SHIFTS:                  0.00 (CLOSED)  0.00 (OPEN) 



 Use fine grid record 1800.2 for energy threshold  1.0D-06
 Orbital guess generated from atomic densities. Full valence occupancy:   13

 Molecular orbital dump at record        2100.2

 Initial occupancy:  13

 ITERATION    DDIFF          GRAD             ENERGY        2-EL.EN.            DIPOLE MOMENTS         DIIS   ORB.
    1      0.000D+00      0.000D+00      -152.80683768    324.904605    0.98373    0.00000    0.65966    0    start
    2      0.000D+00      0.292D-01      -152.76356082    309.864146   -0.63614    0.00000   -0.42658    1    diag
    3      0.115D+00      0.352D-01      -152.93169280    317.249604    0.41814    0.00000    0.28039    2    diag
    4      0.641D-01      0.566D-02      -152.93539638    317.519475    0.32069    0.00000    0.21505    3    diag
    5      0.104D-01      0.120D-02      -152.93556779    317.479415    0.32776    0.00000    0.21979    4    diag
    6      0.180D-02      0.642D-04      -152.93556863    317.481597    0.33100    0.00000    0.22196    5    diag
    7      0.163D-03      0.222D-05      -152.93556863    317.481919    0.33102    0.00000    0.22198    6    diag
    8      0.398D-05      0.249D-06      -152.93556863    317.482013    0.33104    0.00000    0.22199    0    orth

 Final occupancy:  13

 !RKS STATE 1.1 Energy               -152.935568626295
 Nuclear energy                        83.80024479
 One-electron energy                 -373.85279765
 Two-electron energy                  158.74100638
 Density functional                   -21.62402215     B88=-20.77421302 LYP= -0.84980913
 Virial quotient                       -1.01567533
 !RKS STATE 1.1 Dipole moment           0.33103893     0.00000000     0.22198863
 Dipole moment /Debye                   0.84136192     0.00000000     0.56420187

 Orbital energies:

         1.1          2.1          3.1          4.1          5.1          6.1          7.1          8.1          9.1         10.1
    -18.543816    -9.789114    -9.788796    -0.876172    -0.602728    -0.526840    -0.366326    -0.364742    -0.363493    -0.309063

        11.1         12.1         13.1         14.1         15.1
     -0.286318    -0.152692    -0.077058     0.264531     0.348714

 HOMO     13.1    -0.077058 =      -2.0969eV
 LUMO     14.1     0.264531 =       7.1983eV
 LUMO-HOMO         0.341589 =       9.2951eV


 **********************************************************************************************************************************
 DATASETS  * FILE   NREC   LENGTH (MB)   RECORD NAMES
              1      20       31.29       500      610      700      900      950      970     1000      129      960     1100   
                                          VAR    BASINP    GEOM    SYMINP    ZMAT    AOBASIS   BASIS     P2S    ABASIS      S 
                                         1400     1410     1200     1210     1080     1600     1650     1300     1700     1800   
                                           T        V       H0       H01     AOSYM     SMH    MOLCAS    ERIS     OPER     GRID   

              2       5        2.90       700     1000      520     1800     2100   
                                         GEOM     BASIS   MCVARS    GRID      RKS  

 PROGRAMS   *        TOTAL        KS       INT
 CPU TIMES  *         2.47      1.96      0.36
 REAL TIME  *         5.48 SEC
 DISK USED  *        34.99 MB      
 **********************************************************************************************************************************


 PROGRAM * Intrinsic Basis Bonding Analysis (IBBA)          Author: G. Knizia

 Molecular orbitals read from record     2100.2  Type=RKS/CANONICAL (state 1.1)
 Fock matrix read from record            2100.2  Type=RKS/TOTAL (state 1.1)
 Orbital energies read from record       2100.2  Type=RKS/CANONICAL (state 1.1)
 Density matrix read from record         2100.2  Type=RKS/CHARGE (state 1.1)

 Number of core orbitals:           3 (   3 )
 Number of closed-shell orbitals:  10 (  10 )

 Basis set MINAO-AUTO-PP generated.      Number of basis functions:   21 

 Polarized AO type:                A = (O Ot + (1-O)(1-Ot)) P12
 Orthogonalization method:         Symmetric (Loewdin)
 Localization functional:          L = sum[A,i] <i|n_A|i>^4 -> max

 Localization group 1:  13 orbitals, occupancy  2.000
 Iterative localization: IB/PM,    7 iter; Final gradient 0.91E-09

 Bond order analysis:       [THRPRINT= 0.020]

   CEN ATOM   CEN ATOM     WIBERG.BO      RENORM.BO
     1   O  -   2   C       1.022730       1.019779
     1   O  -   3   C       1.022728       1.019777
     1   O  -   8   H       0.032932       0.019693
     1   O  -   6   H       0.032932       0.019693
     1   O  -   9   H       0.032931       0.019692
     1   O  -   7   H       0.032931       0.019692

     2   C  -   1   O       1.022730       1.019779
     2   C  -   4   H       0.955440       0.972842
     2   C  -   8   H       0.950331       0.940319
     2   C  -   6   H       0.950331       0.940319

     3   C  -   1   O       1.022728       1.019777
     3   C  -   5   H       0.955441       0.972843
     3   C  -   9   H       0.950333       0.940322
     3   C  -   7   H       0.950333       0.940322

     4   H  -   2   C       0.955440       0.972842

     5   H  -   3   C       0.955441       0.972843

     6   H  -   2   C       0.950331       0.940319
     6   H  -   1   O       0.032932       0.019693

     7   H  -   3   C       0.950333       0.940322
     7   H  -   1   O       0.032931       0.019692

     8   H  -   2   C       0.950331       0.940319
     8   H  -   1   O       0.032932       0.019693

     9   H  -   3   C       0.950333       0.940322
     9   H  -   1   O       0.032931       0.019692


 Valency analysis:

   CEN ATOM   TOT.VALENCE
     1   O       2.192867
     2   C       3.899124
     3   C       3.899127
     4   H       0.980660
     5   H       0.980660
     6   H       0.987548
     7   H       0.987549
     8   H       0.987548
     9   H       0.987549

 Total charge composition:

   CEN ATOM         s          p       ELECTRONS ->P.CHARGE
     1   O       3.65355    4.55459      8.20814   -0.20814
     2   C       3.00778    3.25039      6.25817   -0.25817
     3   C       3.00777    3.25039      6.25817   -0.25817
     4   H       0.86093                 0.86093    0.13907
     5   H       0.86093                 0.86093    0.13907
     6   H       0.88841                 0.88841    0.11159
     7   H       0.88842                 0.88842    0.11158
     8   H       0.88841                 0.88841    0.11159
     9   H       0.88842                 0.88842    0.11158

 Total charge composition, AO contributions:

   CEN ATOM SHL      SPHERICAL COMPONENTS
     1   O  1s       1.99727
     1   O  2s       1.65629
     1   O  2p       1.39520    1.89987    1.25952

     2   C  1s       1.99267
     2   C  2s       1.01511
     2   C  2p       1.18801    1.17829    0.88409

     3   C  1s       1.99267
     3   C  2s       1.01511
     3   C  2p       0.92785    1.17829    1.14425

     4   H  1s       0.86093

     5   H  1s       0.86093

     6   H  1s       0.88841

     7   H  1s       0.88842

     8   H  1s       0.88841

     9   H  1s       0.88842

 Summary of localized orbital composition:   [THRPRINT= 0.020]

   ORB  GRP  ORB.ENERGY      CENTERS/CHARGES
     1   1   -18.383498      O  1   2.000
     2   1    -9.684217      C  3   2.000
     3   1    -9.684214      C  2   2.000
     4   1    -0.594823      O  1   1.167   C  2   0.823
     5   1    -0.594817      O  1   1.167   C  3   0.823
     6   1    -0.430556      C  3   1.141   H  5   0.851
     7   1    -0.430547      C  2   1.141   H  4   0.851
     8   1    -0.427410      C  3   1.130   H  9   0.869
     9   1    -0.427410      C  3   1.130   H  7   0.869
    10   1    -0.427405      C  2   1.130   H  8   0.869
    11   1    -0.427405      C  2   1.130   H  6   0.869
    12   1    -0.425743      O  1   1.969   (other: 0.031)
    13   1    -0.109111      O  1   1.900   (other: 0.100)

 Localized orbitals saved to record      2100.2  (orbital set 2)


 **********************************************************************************************************************************
 DATASETS  * FILE   NREC   LENGTH (MB)   RECORD NAMES
              1      20       31.29       500      610      700      900      950      970     1000      129      960     1100   
                                          VAR    BASINP    GEOM    SYMINP    ZMAT    AOBASIS   BASIS     P2S    ABASIS      S 
                                         1400     1410     1200     1210     1080     1600     1650     1300     1700     1800   
                                           T        V       H0       H01     AOSYM     SMH    MOLCAS    ERIS     OPER     GRID   

              2       5        2.90       700     1000      520     1800     2100   
                                         GEOM     BASIS   MCVARS    GRID      RKS  

 PROGRAMS   *        TOTAL      IBBA        KS       INT
 CPU TIMES  *         2.51      0.02      1.96      0.36
 REAL TIME  *         5.58 SEC
 DISK USED  *        34.99 MB      
 **********************************************************************************************************************************
 Molecular orbitals read from record     2100.2  Type=RKS/LOCAL(IBO)  
 Occupation numbers read from record     2100.2  Type=RKS/LOCAL(IBO)  
 Orbital energies read from record       2100.2  Type=RKS/LOCAL(IBO)  
 Redundancy group numbers read from rec  2100.2  Type=RKS/LOCAL(IBO)  

 IBBA/STO-3G energy=      0.000000000000

        KS-SCF  
   -152.93556863
 **********************************************************************************************************************************
 Molpro calculation terminated
