
 Primary working directories    : /tmp/sb13343
 Secondary working directories  : /tmp/sb13343
 Wavefunction directory         : /panfs/panasas01/chem/sb13343/wfu/
 Main file repository           : /tmp/sb13343/

 SHA1      : b4a5b34a9e711420743f49e6833241d17c61fb3c
 NAME      : 2099.9.b4a5b34
 ARCHNAME  : linux/x86_64_openmp
 FC        : /cm/shared/languages/GCC-6.1/bin/gfortran
 BLASLIB   : -lblas
 id        : simonbennie

 Nodes     nprocs
 node32-010    1

 Using customized tuning parameters: mindgm=1; mindgv=20; mindgc=4; mindgr=1; noblas=0; minvec=7
 default implementation of scratch files=df  

 memory,500,m
 geomtyp=xyz
 nosym
 noorient
 geometry={
 O          0.00000        0.00000        0.00000
 C          0.00000        0.00000        1.40986
 C          1.30431        0.00000       -0.53525
 H         -1.04418        0.00000        1.73410
 H          1.20786        0.00000       -1.62434
 H          0.50101        0.89295        1.81977
 H          1.87373        0.89295       -0.22737
 H          0.50101       -0.89295        1.81977
 H          1.87373       -0.89295       -0.22737
 }
 basis={ default,svp }
 {uks,LSDAC,direct;wf,26,1,0}
 {ibba,bonds=1}

 Variables initialized (895), CPU time= 0.00 sec
 Commands  initialized (725), CPU time= 0.02 sec, 591 directives.
 Default parameters read. Elapsed time= 1.90 sec

 Checking input...
 Passed
1


                                         ***  PROGRAM SYSTEM MOLPRO  ***
                                       Copyright, TTI GmbH Stuttgart, 2015
                                    Version 2099.9 linked May 26 2017 16:03:21


 **********************************************************************************************************************************
 LABEL *                                                                                 
  64 bit serial version                                                                  DATE: 07-Jun-17          TIME: 16:40:52  
 **********************************************************************************************************************************

 SHA1:             b4a5b34a9e711420743f49e6833241d17c61fb3c
 **********************************************************************************************************************************
 SETTING GEOMTYP        =    XYZ

 Variable memory set to  500000000 words,  buffer space 

 ZSYMEL=NOSYM

 SETTING BASIS          =    SVP


 Recomputing integrals since basis changed


 Using spherical harmonics

 Library entry O      S def2-SVP             selected for orbital group  1
 Library entry O      P def2-SVP             selected for orbital group  1
 Library entry O      D def2-SVP             selected for orbital group  1
 Library entry C      S def2-SVP             selected for orbital group  2
 Library entry C      P def2-SVP             selected for orbital group  2
 Library entry C      D def2-SVP             selected for orbital group  2
 Library entry H      S def2-SVP             selected for orbital group  3
 Library entry H      P def2-SVP             selected for orbital group  3


 PROGRAM * SEWARD (Integral evaluation for generally contracted gaussian basis sets)     Author: Roland Lindh, 1990

 Geometry written to block  1 of record 700


 Point group  C1  



 ATOMIC COORDINATES

 NR  ATOM    CHARGE       X              Y              Z

   1  O       8.00    0.000000000    0.000000000    0.000000000
   2  C       6.00    0.000000000    0.000000000    2.664249274
   3  C       6.00    2.464788682    0.000000000   -1.011475908
   4  H       1.00   -1.973214225    0.000000000    3.276974073
   5  H       1.00    2.282524597    0.000000000   -3.069557733
   6  H       1.00    0.946771686    1.687430943    3.438866910
   7  H       1.00    3.540836531    1.687430943   -0.429667029
   8  H       1.00    0.946771686   -1.687430943    3.438866910
   9  H       1.00    3.540836531   -1.687430943   -0.429667029

 Bond lengths in Bohr (Angstrom)

 1-2  2.664249274  1-3  2.664257262  2-4  2.066157316  2-6  2.084186243  2-8  2.084186243
     ( 1.409860000)     ( 1.409864227)     ( 1.093363366)     ( 1.102903863)     ( 1.102903863)

 3-5  2.066136732  3-7  2.084179391  3-9  2.084179391
     ( 1.093352473)     ( 1.102900237)     ( 1.102900237)

 Bond angles

  1-2-4  107.25067522   1-2-6  111.81829608   1-2-8  111.81829608   1-3-5  107.25086594

  1-3-7  111.81797398   1-3-9  111.81797398   2-1-3  112.31178693   4-2-6  108.88149892

  4-2-8  108.88149892   5-3-7  108.88146655   5-3-9  108.88146655   6-2-8  108.12064679

  7-3-9  108.12116643

 NUCLEAR CHARGE:                   26
 NUMBER OF PRIMITIVE AOS:         117
 NUMBER OF SYMMETRY AOS:          114
 NUMBER OF CONTRACTIONS:           72   (  72A   )
 NUMBER OF CORE ORBITALS:           3   (   3A   )
 NUMBER OF VALENCE ORBITALS:       18   (  18A   )


 NUCLEAR REPULSION ENERGY   83.80024479


 Eigenvalues of metric

         1 0.907E-02 0.130E-01 0.293E-01 0.353E-01 0.441E-01 0.490E-01 0.499E-01 0.601E-01


 Contracted 2-electron integrals neglected if value below      1.0D-11
 AO integral compression algorithm  1   Integral accuracy      1.0D-11

     14.156 MB (compressed) written to integral file ( 45.3%)


 NUMBER OF SORTED TWO-ELECTRON INTEGRALS:    3454506.     BUFFER LENGTH:  32768
 NUMBER OF SEGMENTS:   1  SEGMENT LENGTH:    3454506      RECORD LENGTH: 524288

 Memory used in sort:       4.01 MW

 SORT1 READ     3931143. AND WROTE     2907067. INTEGRALS IN      9 RECORDS. CPU TIME:     0.04 SEC, REAL TIME:     0.09 SEC
 SORT2 READ     2907067. AND WROTE     3454506. INTEGRALS IN     54 RECORDS. CPU TIME:     0.12 SEC, REAL TIME:     0.14 SEC

 FILE SIZES:   FILE 1:    44.4 MBYTE,  FILE 4:    37.8 MBYTE,   TOTAL:     82.2 MBYTE

 OPERATOR DM      FOR CENTER  0  COORDINATES:    0.000000    0.000000    0.000000


 **********************************************************************************************************************************
 DATASETS  * FILE   NREC   LENGTH (MB)   RECORD NAMES
              1      19       42.45       500      610      700      900      950      970     1000      129      960     1100   
                                          VAR    BASINP    GEOM    SYMINP    ZMAT    AOBASIS   BASIS     P2S    ABASIS      S 
                                         1400     1410     1200     1210     1080     1600     1650     1300     1700   
                                           T        V       H0       H01     AOSYM     SMH    MOLCAS    ERIS     OPER   

 PROGRAMS   *        TOTAL       INT
 CPU TIMES  *         0.90      0.75
 REAL TIME  *         3.18 SEC
 DISK USED  *        82.64 MB      
 **********************************************************************************************************************************

 Density functional group LSDAC=PW92C
 Functional: PW92C(Automatically generated (new) PW92C)                        Gradient terms: 0
 Use grid at  1800.2

 Functional: PW92C                     Factor:  1.0000

 Generated new metagrid on record  1800.2 with target accuracy 1.0D-06 and 33732 points in CPU time    0.9
 Computed new grid on record 1800.1 in CPU time    1.0
   33765 words reserved for DFT integration

 PROGRAM * UKS-SCF (Unrestricted Kohn-Sham)     Authors: W. Meyer, H.-J. Werner, P.J. Knowles, 1993

 NUMBER OF ELECTRONS:      13+   13-    SPACE SYMMETRY=1    SPIN SYMMETRY: Singlet 
 CONVERGENCE THRESHOLDS:    1.00E-05 (Density)    1.00E-06 (Energy)
 MAX. NUMBER OF ITERATIONS:       60
 INTERPOLATION TYPE:            DIIS
 INTERPOLATION STEPS:              2 (START)      1 (STEP)
 LEVEL SHIFTS:                 -0.20 (ALPHA)  -0.20 (BETA) 



 Use fine grid record 1800.2 for energy threshold  1.0D-06
 Orbital guess generated from atomic densities. Full valence occupancy:   13

 Molecular orbital dump at record        2200.2

 Initial alpha occupation  13
 Initial beta  occupation  13

 ITERATION    DDIFF          GRAD             ENERGY        2-EL.EN.            DIPOLE MOMENTS         DIIS
    1      0.000D+00      0.000D+00      -134.32609343    274.940475   -3.71039    0.00000   -2.48792    0
    2      0.139D+00      0.222D-01      -134.01157031    323.948444    1.52562    0.00000    1.02303    1
    3      0.341D-01      0.290D-01      -135.42856886    301.317357   -0.20972    0.00000   -0.14061    2
    4      0.489D-02      0.265D-02      -135.44598851    298.658269   -0.32596    0.00000   -0.21855    3
    5      0.473D-02      0.963D-03      -135.44951549    299.002462   -0.30340    0.00000   -0.20343    4
    6      0.583D-02      0.316D-03      -135.45105601    299.036488   -0.22667    0.00000   -0.15198    5
    7      0.196D-02      0.103D-03      -135.45121208    299.074056   -0.22218    0.00000   -0.14897    6
    8      0.607D-03      0.436D-04      -135.45122922    299.099632   -0.21281    0.00000   -0.14269    7
    9      0.244D-03      0.104D-04      -135.45123130    299.099723   -0.21234    0.00000   -0.14237    6
   10      0.697D-04      0.328D-05      -135.45123145    299.100263   -0.21228    0.00000   -0.14233    7
   11      0.125D-04      0.782D-06      -135.45123146    299.099609   -0.21230    0.00000   -0.14235    7
   12      0.213D-05      0.172D-06      -135.45123146    299.099802   -0.21229    0.00000   -0.14234    6
   13      0.769D-06      0.108D-06      -135.45123146    299.099652   -0.21230    0.00000   -0.14235    7

 Final alpha occupancy:  13
 Final beta  occupancy:  13

 !UKS STATE 1.1 Energy               -135.451231461728
 Nuclear energy                        83.80024479
 One-electron energy                 -367.20102105
 Two-electron energy                  149.54982622
 Density functional                    -1.60028143     PW92C=-1.60028143
 Virial quotient                       -0.93722440
 !UKS STATE 1.1 Dipole moment          -0.21230205     0.00000000    -0.14234678
 Dipole moment /Debye                  -0.53958264     0.00000000    -0.36178573

 Orbital energies for positive spin:

         1.1          2.1          3.1          4.1          5.1          6.1          7.1          8.1          9.1         10.1
    -16.646393    -8.283944    -8.283748    -0.612063    -0.345785    -0.258684    -0.159859    -0.159436    -0.155659    -0.073716

        11.1         12.1         13.1         14.1         15.1
     -0.054935     0.016469     0.068028     0.186158     0.227337

 Orbital energies for negative spin:

         1.1          2.1          3.1          4.1          5.1          6.1          7.1          8.1          9.1         10.1
    -16.646393    -8.283944    -8.283748    -0.612063    -0.345785    -0.258684    -0.159859    -0.159436    -0.155659    -0.073716

        11.1         12.1         13.1         14.1         15.1
     -0.054935     0.016469     0.068028     0.186158     0.227337

 HOMO     13.1     0.068028 =       1.8511eV
 LUMO     14.1     0.186158 =       5.0656eV
 LUMO-HOMO         0.118130 =       3.2145eV

 EXPECTATION VALUE OF S**2:            -0.00000000

 Natural orbitals saved to record    2200.2 (Orbital set 3)

 Orbital spaces for UNO-CAS (Min. occupation: 0.020  Max. occupation: 1.980):

 Closed:       13
 Active:        0


 **********************************************************************************************************************************
 DATASETS  * FILE   NREC   LENGTH (MB)   RECORD NAMES
              1      20       43.53       500      610      700      900      950      970     1000      129      960     1100   
                                          VAR    BASINP    GEOM    SYMINP    ZMAT    AOBASIS   BASIS     P2S    ABASIS      S 
                                         1400     1410     1200     1210     1080     1600     1650     1300     1700     1800   
                                           T        V       H0       H01     AOSYM     SMH    MOLCAS    ERIS     OPER     GRID   

              2       5        3.11       700     1000      520     1800     2200   
                                         GEOM     BASIS   MCVARS    GRID      UKS  

 PROGRAMS   *        TOTAL       UKS       INT
 CPU TIMES  *         5.70      4.80      0.75
 REAL TIME  *         8.52 SEC
 DISK USED  *        82.64 MB      
 **********************************************************************************************************************************


 PROGRAM * Intrinsic Basis Bonding Analysis (IBBA)          Author: G. Knizia

 Molecular orbitals read from record     2200.2  Type=UKS/ALPHA (state 1.1)
 Fock matrix read from record            2200.2  Type=UKS/TOTAL (state 1.1)
 Orbital energies read from record       2200.2  Type=UKS/ALPHA (state 1.1)
 Density matrix read from record         2200.2  Type=UKS/CHARGE (state 1.1)

 Number of core orbitals:           3 (   3 )
 Number of closed-shell orbitals:  10 (  10 )

 Basis set MINAO-AUTO-PP generated.      Number of basis functions:   21 

 Polarized AO type:                A = (O Ot + (1-O)(1-Ot)) P12
 Orthogonalization method:         Symmetric (Loewdin)
 Localization functional:          L = sum[A,i] <i|n_A|i>^4 -> max

 Localization group 1:  13 orbitals, occupancy  2.000
 Iterative localization: IB/PM,    7 iter; Final gradient 0.57E-08

 Bond order analysis:       [THRPRINT= 0.020]

   CEN ATOM   CEN ATOM     WIBERG.BO      RENORM.BO
     1   O  -   2   C       1.105338       1.066798
     1   O  -   3   C       1.105333       1.066795
     1   O  -   8   H       0.064125       0.035719
     1   O  -   6   H       0.064125       0.035719
     1   O  -   7   H       0.064124       0.035718
     1   O  -   9   H       0.064124       0.035718

     2   C  -   1   O       1.105338       1.066798
     2   C  -   4   H       0.962870       0.962578
     2   C  -   6   H       0.912837       0.860696
     2   C  -   8   H       0.912837       0.860696

     3   C  -   1   O       1.105333       1.066795
     3   C  -   5   H       0.962870       0.962579
     3   C  -   7   H       0.912838       0.860699
     3   C  -   9   H       0.912838       0.860699

     4   H  -   2   C       0.962870       0.962578

     5   H  -   3   C       0.962870       0.962579

     6   H  -   2   C       0.912837       0.860696
     6   H  -   1   O       0.064125       0.035719

     7   H  -   3   C       0.912838       0.860699
     7   H  -   1   O       0.064124       0.035718

     8   H  -   2   C       0.912837       0.860696
     8   H  -   1   O       0.064125       0.035719

     9   H  -   3   C       0.912838       0.860699
     9   H  -   1   O       0.064124       0.035718


 Valency analysis:

   CEN ATOM   TOT.VALENCE
     1   O       2.488246
     2   C       3.931818
     3   C       3.931817
     4   H       0.998099
     5   H       0.998099
     6   H       0.999994
     7   H       0.999994
     8   H       0.999994
     9   H       0.999994

 Total charge composition:

   CEN ATOM         s          p       ELECTRONS ->P.CHARGE
     1   O       3.45638    4.59432      8.05069   -0.05069
     2   C       2.89667    3.11675      6.01342   -0.01342
     3   C       2.89666    3.11676      6.01342   -0.01342
     4   H       0.95640                 0.95640    0.04360
     5   H       0.95640                 0.95640    0.04360
     6   H       1.00242                 1.00242   -0.00242
     7   H       1.00242                 1.00242   -0.00242
     8   H       1.00242                 1.00242   -0.00242
     9   H       1.00242                 1.00242   -0.00242

 Total charge composition, AO contributions:

   CEN ATOM SHL      SPHERICAL COMPONENTS
     1   O  1s       1.99890
     1   O  2s       1.45748
     1   O  2p       1.49258    1.78360    1.31813

     2   C  1s       1.99794
     2   C  2s       0.89873
     2   C  2p       1.12325    1.12764    0.86586

     3   C  1s       1.99794
     3   C  2s       0.89873
     3   C  2p       0.90373    1.12764    1.08539

     4   H  1s       0.95640

     5   H  1s       0.95640

     6   H  1s       1.00242

     7   H  1s       1.00242

     8   H  1s       1.00242

     9   H  1s       1.00242

 Summary of localized orbital composition:   [THRPRINT= 0.020]

   ORB  GRP  ORB.ENERGY      CENTERS/CHARGES
     1   1   -16.554611      O  1   2.000
     2   1    -8.208035      C  2   2.000
     3   1    -8.208034      C  3   2.000
     4   1    -0.413360      O  1   1.175   C  2   0.814
     5   1    -0.413356      O  1   1.175   C  3   0.814
     6   1    -0.175090      C  3   1.047   H  5   0.943
     7   1    -0.175086      C  2   1.047   H  4   0.943
     8   1    -0.174201      C  3   1.031   H  7   0.962
     9   1    -0.174201      C  3   1.031   H  9   0.962
    10   1    -0.174200      C  2   1.031   H  6   0.962
    11   1    -0.174200      C  2   1.031   H  8   0.962
    12   1    -0.117812      O  1   1.914   C  2   0.020   C  3   0.020   (other: 0.046)
    13   1     0.012452      O  1   1.783   C  2   0.054   C  3   0.054   H  8   0.027   H  6   0.027   H  9   0.027   H  7   0.027

 Localized orbitals saved to record      2200.2  (orbital set 4)


 **********************************************************************************************************************************
 DATASETS  * FILE   NREC   LENGTH (MB)   RECORD NAMES
              1      20       43.53       500      610      700      900      950      970     1000      129      960     1100   
                                          VAR    BASINP    GEOM    SYMINP    ZMAT    AOBASIS   BASIS     P2S    ABASIS      S 
                                         1400     1410     1200     1210     1080     1600     1650     1300     1700     1800   
                                           T        V       H0       H01     AOSYM     SMH    MOLCAS    ERIS     OPER     GRID   

              2       5        3.15       700     1000      520     1800     2200   
                                         GEOM     BASIS   MCVARS    GRID      UKS  

 PROGRAMS   *        TOTAL      IBBA       UKS       INT
 CPU TIMES  *         5.72      0.02      4.80      0.75
 REAL TIME  *         8.61 SEC
 DISK USED  *        82.64 MB      
 **********************************************************************************************************************************
 Molecular orbitals read from record     2200.2  Type=UKS/LOCAL(IBO)  
 Occupation numbers read from record     2200.2  Type=UKS/LOCAL(IBO)  
 Orbital energies read from record       2200.2  Type=UKS/LOCAL(IBO)  
 Redundancy group numbers read from rec  2200.2  Type=UKS/BETA (state 1.1)

 IBBA/SVP energy=      0.000000000000

        UKS-SCF 
   -135.45123146
 **********************************************************************************************************************************
 Molpro calculation terminated
