
 Primary working directories    : /tmp/sb13343
 Secondary working directories  : /tmp/sb13343
 Wavefunction directory         : /panfs/panasas01/chem/sb13343/wfu/
 Main file repository           : /tmp/sb13343/

 SHA1      : b4a5b34a9e711420743f49e6833241d17c61fb3c
 NAME      : 2099.9.b4a5b34
 ARCHNAME  : linux/x86_64_openmp
 FC        : /cm/shared/languages/GCC-6.1/bin/gfortran
 BLASLIB   : -lblas
 id        : simonbennie

 Nodes     nprocs
 node32-014    1

 Using customized tuning parameters: mindgm=1; mindgv=20; mindgc=4; mindgr=1; noblas=0; minvec=7
 default implementation of scratch files=df  

 memory,500,m
 geomtyp=xyz
 nosym
 noorient
 geometry={
 O          0.00000        0.00000        0.00000
 C          0.00000        0.00000        1.40986
 C          1.30431        0.00000       -0.53525
 H         -1.04418        0.00000        1.73410
 H          1.20786        0.00000       -1.62434
 H          0.50101        0.89295        1.81977
 H          1.87373        0.89295       -0.22737
 H          0.50101       -0.89295        1.81977
 H          1.87373       -0.89295       -0.22737
 }
 basis={ default,sto-3g }
 {uks,PBE,direct;wf,26,1,0}
 {ibba,bonds=1}

 Variables initialized (895), CPU time= 0.01 sec
 Commands  initialized (725), CPU time= 0.01 sec, 591 directives.
 Default parameters read. Elapsed time= 1.45 sec

 Checking input...
 Passed
1


                                         ***  PROGRAM SYSTEM MOLPRO  ***
                                       Copyright, TTI GmbH Stuttgart, 2015
                                    Version 2099.9 linked May 26 2017 16:03:21


 **********************************************************************************************************************************
 LABEL *                                                                                 
  64 bit serial version                                                                  DATE: 07-Jun-17          TIME: 16:25:24  
 **********************************************************************************************************************************

 SHA1:             b4a5b34a9e711420743f49e6833241d17c61fb3c
 **********************************************************************************************************************************
 SETTING GEOMTYP        =    XYZ

 Variable memory set to  500000000 words,  buffer space 

 ZSYMEL=NOSYM

 SETTING BASIS          =    STO-3G


 Recomputing integrals since basis changed


 Using spherical harmonics

 Library entry O      S STO-3G               selected for orbital group  1
 Library entry O      P STO-3G               selected for orbital group  1
 Library entry C      S STO-3G               selected for orbital group  2
 Library entry C      P STO-3G               selected for orbital group  2
 Library entry H      S STO-3G               selected for orbital group  3


 PROGRAM * SEWARD (Integral evaluation for generally contracted gaussian basis sets)     Author: Roland Lindh, 1990

 Geometry written to block  1 of record 700


 Point group  C1  



 ATOMIC COORDINATES

 NR  ATOM    CHARGE       X              Y              Z

   1  O       8.00    0.000000000    0.000000000    0.000000000
   2  C       6.00    0.000000000    0.000000000    2.664249274
   3  C       6.00    2.464788682    0.000000000   -1.011475908
   4  H       1.00   -1.973214225    0.000000000    3.276974073
   5  H       1.00    2.282524597    0.000000000   -3.069557733
   6  H       1.00    0.946771686    1.687430943    3.438866910
   7  H       1.00    3.540836531    1.687430943   -0.429667029
   8  H       1.00    0.946771686   -1.687430943    3.438866910
   9  H       1.00    3.540836531   -1.687430943   -0.429667029

 Bond lengths in Bohr (Angstrom)

 1-2  2.664249274  1-3  2.664257262  2-4  2.066157316  2-6  2.084186243  2-8  2.084186243
     ( 1.409860000)     ( 1.409864227)     ( 1.093363366)     ( 1.102903863)     ( 1.102903863)

 3-5  2.066136732  3-7  2.084179391  3-9  2.084179391
     ( 1.093352473)     ( 1.102900237)     ( 1.102900237)

 Bond angles

  1-2-4  107.25067522   1-2-6  111.81829608   1-2-8  111.81829608   1-3-5  107.25086594

  1-3-7  111.81797398   1-3-9  111.81797398   2-1-3  112.31178693   4-2-6  108.88149892

  4-2-8  108.88149892   5-3-7  108.88146655   5-3-9  108.88146655   6-2-8  108.12064679

  7-3-9  108.12116643

 NUCLEAR CHARGE:                   26
 NUMBER OF PRIMITIVE AOS:          63
 NUMBER OF SYMMETRY AOS:           63
 NUMBER OF CONTRACTIONS:           21   (  21A   )
 NUMBER OF CORE ORBITALS:           3   (   3A   )
 NUMBER OF VALENCE ORBITALS:       18   (  18A   )


 NUCLEAR REPULSION ENERGY   83.80024479


 Eigenvalues of metric

         1 0.234E+00 0.235E+00 0.359E+00 0.371E+00 0.377E+00 0.378E+00 0.398E+00 0.479E+00


 Contracted 2-electron integrals neglected if value below      1.0D-11
 AO integral compression algorithm  1   Integral accuracy      1.0D-11

     0.262 MB (compressed) written to integral file (100.0%)


 NUMBER OF SORTED TWO-ELECTRON INTEGRALS:      26796.     BUFFER LENGTH:  32768
 NUMBER OF SEGMENTS:   1  SEGMENT LENGTH:      26796      RECORD LENGTH: 524288

 Memory used in sort:       0.58 MW

 SORT1 READ       32133. AND WROTE       21402. INTEGRALS IN      1 RECORDS. CPU TIME:     0.00 SEC, REAL TIME:     0.00 SEC
 SORT2 READ       21402. AND WROTE       26796. INTEGRALS IN      1 RECORDS. CPU TIME:     0.01 SEC, REAL TIME:     0.00 SEC

 FILE SIZES:   FILE 1:    30.4 MBYTE,  FILE 4:     4.2 MBYTE,   TOTAL:     34.6 MBYTE

 OPERATOR DM      FOR CENTER  0  COORDINATES:    0.000000    0.000000    0.000000


 **********************************************************************************************************************************
 DATASETS  * FILE   NREC   LENGTH (MB)   RECORD NAMES
              1      19       30.21       500      610      700      900      950      970     1000      129      960     1100   
                                          VAR    BASINP    GEOM    SYMINP    ZMAT    AOBASIS   BASIS     P2S    ABASIS      S 
                                         1400     1410     1200     1210     1080     1600     1650     1300     1700   
                                           T        V       H0       H01     AOSYM     SMH    MOLCAS    ERIS     OPER   

 PROGRAMS   *        TOTAL       INT
 CPU TIMES  *         0.37      0.22
 REAL TIME  *         2.10 SEC
 DISK USED  *        34.99 MB      
 **********************************************************************************************************************************

 Density functional group PBE=PBEX+PBEC
 Functional: PBEX(Automatically generated (new) PBEX)                          Gradient terms: 1
 Functional: PBEC(Automatically generated (new) PBEC)                          Gradient terms: 1
 Use grid at  1800.2

 Functional: PBEX                      Factor:  1.0000
 Functional: PBEC                      Factor:  1.0000

 Generated new metagrid on record  1800.2 with target accuracy 1.0D-06 and 33732 points in CPU time    0.9
 Computed new grid on record 1800.1 in CPU time    1.0
   20895 words reserved for DFT integration

 PROGRAM * UKS-SCF (Unrestricted Kohn-Sham)     Authors: W. Meyer, H.-J. Werner, P.J. Knowles, 1993

 NUMBER OF ELECTRONS:      13+   13-    SPACE SYMMETRY=1    SPIN SYMMETRY: Singlet 
 CONVERGENCE THRESHOLDS:    1.00E-05 (Density)    1.00E-06 (Energy)
 MAX. NUMBER OF ITERATIONS:       60
 INTERPOLATION TYPE:            DIIS
 INTERPOLATION STEPS:              2 (START)      1 (STEP)
 LEVEL SHIFTS:                 -0.20 (ALPHA)  -0.20 (BETA) 



 Use fine grid record 1800.2 for energy threshold  1.0D-06
 Orbital guess generated from atomic densities. Full valence occupancy:   13

 Molecular orbital dump at record        2200.2

 Initial alpha occupation  13
 Initial beta  occupation  13

 ITERATION    DDIFF          GRAD             ENERGY        2-EL.EN.            DIPOLE MOMENTS         DIIS
    1      0.000D+00      0.000D+00      -152.70143690    325.105051    0.98144    0.00000    0.65812    0
    2      0.630D-01      0.199D-01      -152.82714336    316.359843    0.19209    0.00000    0.12881    1
    3      0.963D-02      0.426D-02      -152.83221757    317.640223    0.34523    0.00000    0.23150    2
    4      0.157D-02      0.528D-03      -152.83232397    317.633283    0.33449    0.00000    0.22430    3
    5      0.740D-03      0.206D-03      -152.83234491    317.625321    0.33529    0.00000    0.22483    4
    6      0.227D-03      0.430D-04      -152.83234633    317.624720    0.33493    0.00000    0.22459    5
    7      0.255D-04      0.484D-05      -152.83234635    317.624955    0.33496    0.00000    0.22461    5
    8      0.178D-05      0.367D-06      -152.83234635    317.624965    0.33495    0.00000    0.22461    5
    9      0.351D-06      0.723D-07      -152.83234635    317.624980    0.33496    0.00000    0.22461    4

 Final alpha occupancy:  13
 Final beta  occupancy:  13

 !UKS STATE 1.1 Energy               -152.832346350923
 Nuclear energy                        83.80024479
 One-electron energy                 -373.92176870
 Two-electron energy                  158.81248995
 Density functional                   -21.52331239     PBEX=-20.65302043 PBEC= -0.87029196
 Virial quotient                       -1.01486029
 !UKS STATE 1.1 Dipole moment           0.33495541     0.00000000     0.22461046
 Dipole moment /Debye                   0.85131598     0.00000000     0.57086546

 Orbital energies for positive spin:

         1.1          2.1          3.1          4.1          5.1          6.1          7.1          8.1          9.1         10.1
    -18.510559    -9.753295    -9.752974    -0.884921    -0.609402    -0.531576    -0.370979    -0.370211    -0.366966    -0.311701

        11.1         12.1         13.1         14.1         15.1
     -0.289500    -0.157328    -0.078412     0.262110     0.347390

 Orbital energies for negative spin:

         1.1          2.1          3.1          4.1          5.1          6.1          7.1          8.1          9.1         10.1
    -18.510559    -9.753295    -9.752974    -0.884921    -0.609402    -0.531576    -0.370979    -0.370211    -0.366966    -0.311701

        11.1         12.1         13.1         14.1         15.1
     -0.289500    -0.157328    -0.078412     0.262110     0.347390

 HOMO     13.1    -0.078412 =      -2.1337eV
 LUMO     14.1     0.262110 =       7.1324eV
 LUMO-HOMO         0.340522 =       9.2661eV

 EXPECTATION VALUE OF S**2:             0.00000000

 Natural orbitals saved to record    2200.2 (Orbital set 3)

 Orbital spaces for UNO-CAS (Min. occupation: 0.020  Max. occupation: 1.980):

 Closed:       13
 Active:        0


 **********************************************************************************************************************************
 DATASETS  * FILE   NREC   LENGTH (MB)   RECORD NAMES
              1      20       31.29       500      610      700      900      950      970     1000      129      960     1100   
                                          VAR    BASINP    GEOM    SYMINP    ZMAT    AOBASIS   BASIS     P2S    ABASIS      S 
                                         1400     1410     1200     1210     1080     1600     1650     1300     1700     1800   
                                           T        V       H0       H01     AOSYM     SMH    MOLCAS    ERIS     OPER     GRID   

              2       5        2.91       700     1000      520     1800     2200   
                                         GEOM     BASIS   MCVARS    GRID      UKS  

 PROGRAMS   *        TOTAL       UKS       INT
 CPU TIMES  *         2.76      2.39      0.22
 REAL TIME  *         4.60 SEC
 DISK USED  *        34.99 MB      
 **********************************************************************************************************************************


 PROGRAM * Intrinsic Basis Bonding Analysis (IBBA)          Author: G. Knizia

 Molecular orbitals read from record     2200.2  Type=UKS/ALPHA (state 1.1)
 Fock matrix read from record            2200.2  Type=UKS/TOTAL (state 1.1)
 Orbital energies read from record       2200.2  Type=UKS/ALPHA (state 1.1)
 Density matrix read from record         2200.2  Type=UKS/CHARGE (state 1.1)

 Number of core orbitals:           3 (   3 )
 Number of closed-shell orbitals:  10 (  10 )

 Basis set MINAO-AUTO-PP generated.      Number of basis functions:   21 

 Polarized AO type:                A = (O Ot + (1-O)(1-Ot)) P12
 Orthogonalization method:         Symmetric (Loewdin)
 Localization functional:          L = sum[A,i] <i|n_A|i>^4 -> max

 Localization group 1:  13 orbitals, occupancy  2.000
 Iterative localization: IB/PM,    7 iter; Final gradient 0.28E-09

 Bond order analysis:       [THRPRINT= 0.020]

   CEN ATOM   CEN ATOM     WIBERG.BO      RENORM.BO
     1   O  -   2   C       1.023554       1.019396
     1   O  -   3   C       1.023551       1.019394
     1   O  -   8   H       0.033073       0.019879
     1   O  -   6   H       0.033073       0.019879
     1   O  -   9   H       0.033071       0.019878
     1   O  -   7   H       0.033071       0.019878

     2   C  -   1   O       1.023554       1.019396
     2   C  -   4   H       0.953991       0.972884
     2   C  -   8   H       0.949097       0.940200
     2   C  -   6   H       0.949097       0.940200

     3   C  -   1   O       1.023551       1.019394
     3   C  -   5   H       0.953992       0.972885
     3   C  -   9   H       0.949099       0.940202
     3   C  -   7   H       0.949099       0.940202

     4   H  -   2   C       0.953991       0.972884

     5   H  -   3   C       0.953992       0.972885

     6   H  -   2   C       0.949097       0.940200
     6   H  -   1   O       0.033073       0.019879

     7   H  -   3   C       0.949099       0.940202
     7   H  -   1   O       0.033071       0.019878

     8   H  -   2   C       0.949097       0.940200
     8   H  -   1   O       0.033073       0.019879

     9   H  -   3   C       0.949099       0.940202
     9   H  -   1   O       0.033071       0.019878


 Valency analysis:

   CEN ATOM   TOT.VALENCE
     1   O       2.194967
     2   C       3.896108
     3   C       3.896110
     4   H       0.979332
     5   H       0.979333
     6   H       0.986500
     7   H       0.986500
     8   H       0.986500
     9   H       0.986500

 Total charge composition:

   CEN ATOM         s          p       ELECTRONS ->P.CHARGE
     1   O       3.65299    4.54931      8.20230   -0.20230
     2   C       3.01178    3.26321      6.27499   -0.27499
     3   C       3.01177    3.26321      6.27499   -0.27499
     4   H       0.85624                 0.85624    0.14376
     5   H       0.85624                 0.85624    0.14376
     6   H       0.88381                 0.88381    0.11619
     7   H       0.88381                 0.88381    0.11619
     8   H       0.88381                 0.88381    0.11619
     9   H       0.88381                 0.88381    0.11619

 Total charge composition, AO contributions:

   CEN ATOM SHL      SPHERICAL COMPONENTS
     1   O  1s       1.99728
     1   O  2s       1.65571
     1   O  2p       1.39217    1.89949    1.25765

     2   C  1s       1.99267
     2   C  2s       1.01910
     2   C  2p       1.19261    1.18310    0.88751

     3   C  1s       1.99267
     3   C  2s       1.01910
     3   C  2p       0.93169    1.18309    1.14843

     4   H  1s       0.85624

     5   H  1s       0.85624

     6   H  1s       0.88381

     7   H  1s       0.88381

     8   H  1s       0.88381

     9   H  1s       0.88381

 Summary of localized orbital composition:   [THRPRINT= 0.020]

   ORB  GRP  ORB.ENERGY      CENTERS/CHARGES
     1   1   -18.351031      O  1   2.000
     2   1    -9.648313      C  3   2.000
     3   1    -9.648311      C  2   2.000
     4   1    -0.603000      O  1   1.164   C  2   0.826
     5   1    -0.602994      O  1   1.164   C  3   0.826
     6   1    -0.434003      C  3   1.145   H  5   0.846
     7   1    -0.433994      C  2   1.145   H  4   0.846
     8   1    -0.431498      O  1   1.969   (other: 0.031)
     9   1    -0.430882      C  3   1.135   H  9   0.864
    10   1    -0.430882      C  3   1.135   H  7   0.864
    11   1    -0.430878      C  2   1.135   H  8   0.864
    12   1    -0.430878      C  2   1.135   H  6   0.864
    13   1    -0.111161      O  1   1.899   (other: 0.101)

 Localized orbitals saved to record      2200.2  (orbital set 4)


 **********************************************************************************************************************************
 DATASETS  * FILE   NREC   LENGTH (MB)   RECORD NAMES
              1      20       31.29       500      610      700      900      950      970     1000      129      960     1100   
                                          VAR    BASINP    GEOM    SYMINP    ZMAT    AOBASIS   BASIS     P2S    ABASIS      S 
                                         1400     1410     1200     1210     1080     1600     1650     1300     1700     1800   
                                           T        V       H0       H01     AOSYM     SMH    MOLCAS    ERIS     OPER     GRID   

              2       5        2.92       700     1000      520     1800     2200   
                                         GEOM     BASIS   MCVARS    GRID      UKS  

 PROGRAMS   *        TOTAL      IBBA       UKS       INT
 CPU TIMES  *         2.79      0.02      2.39      0.22
 REAL TIME  *         4.71 SEC
 DISK USED  *        34.99 MB      
 **********************************************************************************************************************************
 Molecular orbitals read from record     2200.2  Type=UKS/LOCAL(IBO)  
 Occupation numbers read from record     2200.2  Type=UKS/LOCAL(IBO)  
 Orbital energies read from record       2200.2  Type=UKS/LOCAL(IBO)  
 Redundancy group numbers read from rec  2200.2  Type=UKS/BETA (state 1.1)

 IBBA/STO-3G energy=      0.000000000000

        UKS-SCF 
   -152.83234635
 **********************************************************************************************************************************
 Molpro calculation terminated
