
 Primary working directories    : /tmp/sb13343
 Secondary working directories  : /tmp/sb13343
 Wavefunction directory         : /panfs/panasas01/chem/sb13343/wfu/
 Main file repository           : /tmp/sb13343/

 SHA1      : b4a5b34a9e711420743f49e6833241d17c61fb3c
 NAME      : 2099.9.b4a5b34
 ARCHNAME  : linux/x86_64_openmp
 FC        : /cm/shared/languages/GCC-6.1/bin/gfortran
 BLASLIB   : -lblas
 id        : simonbennie

 Nodes     nprocs
 node32-009    1

 Using customized tuning parameters: mindgm=1; mindgv=20; mindgc=4; mindgr=1; noblas=0; minvec=7
 default implementation of scratch files=df  

 memory,500,m
 geomtyp=xyz
 nosym
 noorient
 geometry={
 O          0.00000        0.00000        0.00000
 C          0.00000        0.00000        1.40986
 C          1.30431        0.00000       -0.53525
 H         -1.04418        0.00000        1.73410
 H          1.20786        0.00000       -1.62434
 H          0.50101        0.89295        1.81977
 H          1.87373        0.89295       -0.22737
 H          0.50101       -0.89295        1.81977
 H          1.87373       -0.89295       -0.22737
 }
 basis={ default,svp }
 {uks,MM06-L,direct;wf,26,1,0}
 {ibba,bonds=1}

 Variables initialized (895), CPU time= 0.01 sec
 Commands  initialized (725), CPU time= 0.01 sec, 591 directives.
 Default parameters read. Elapsed time= 2.06 sec

 Checking input...
 Passed
1


                                         ***  PROGRAM SYSTEM MOLPRO  ***
                                       Copyright, TTI GmbH Stuttgart, 2015
                                    Version 2099.9 linked May 26 2017 16:03:21


 **********************************************************************************************************************************
 LABEL *                                                                                 
  64 bit serial version                                                                  DATE: 07-Jun-17          TIME: 16:40:20  
 **********************************************************************************************************************************

 SHA1:             b4a5b34a9e711420743f49e6833241d17c61fb3c
 **********************************************************************************************************************************
 SETTING GEOMTYP        =    XYZ

 Variable memory set to  500000000 words,  buffer space 

 ZSYMEL=NOSYM

 SETTING BASIS          =    SVP


 Recomputing integrals since basis changed


 Using spherical harmonics

 Library entry O      S def2-SVP             selected for orbital group  1
 Library entry O      P def2-SVP             selected for orbital group  1
 Library entry O      D def2-SVP             selected for orbital group  1
 Library entry C      S def2-SVP             selected for orbital group  2
 Library entry C      P def2-SVP             selected for orbital group  2
 Library entry C      D def2-SVP             selected for orbital group  2
 Library entry H      S def2-SVP             selected for orbital group  3
 Library entry H      P def2-SVP             selected for orbital group  3


 PROGRAM * SEWARD (Integral evaluation for generally contracted gaussian basis sets)     Author: Roland Lindh, 1990

 Geometry written to block  1 of record 700


 Point group  C1  



 ATOMIC COORDINATES

 NR  ATOM    CHARGE       X              Y              Z

   1  O       8.00    0.000000000    0.000000000    0.000000000
   2  C       6.00    0.000000000    0.000000000    2.664249274
   3  C       6.00    2.464788682    0.000000000   -1.011475908
   4  H       1.00   -1.973214225    0.000000000    3.276974073
   5  H       1.00    2.282524597    0.000000000   -3.069557733
   6  H       1.00    0.946771686    1.687430943    3.438866910
   7  H       1.00    3.540836531    1.687430943   -0.429667029
   8  H       1.00    0.946771686   -1.687430943    3.438866910
   9  H       1.00    3.540836531   -1.687430943   -0.429667029

 Bond lengths in Bohr (Angstrom)

 1-2  2.664249274  1-3  2.664257262  2-4  2.066157316  2-6  2.084186243  2-8  2.084186243
     ( 1.409860000)     ( 1.409864227)     ( 1.093363366)     ( 1.102903863)     ( 1.102903863)

 3-5  2.066136732  3-7  2.084179391  3-9  2.084179391
     ( 1.093352473)     ( 1.102900237)     ( 1.102900237)

 Bond angles

  1-2-4  107.25067522   1-2-6  111.81829608   1-2-8  111.81829608   1-3-5  107.25086594

  1-3-7  111.81797398   1-3-9  111.81797398   2-1-3  112.31178693   4-2-6  108.88149892

  4-2-8  108.88149892   5-3-7  108.88146655   5-3-9  108.88146655   6-2-8  108.12064679

  7-3-9  108.12116643

 NUCLEAR CHARGE:                   26
 NUMBER OF PRIMITIVE AOS:         117
 NUMBER OF SYMMETRY AOS:          114
 NUMBER OF CONTRACTIONS:           72   (  72A   )
 NUMBER OF CORE ORBITALS:           3   (   3A   )
 NUMBER OF VALENCE ORBITALS:       18   (  18A   )


 NUCLEAR REPULSION ENERGY   83.80024479


 Eigenvalues of metric

         1 0.907E-02 0.130E-01 0.293E-01 0.353E-01 0.441E-01 0.490E-01 0.499E-01 0.601E-01


 Contracted 2-electron integrals neglected if value below      1.0D-11
 AO integral compression algorithm  1   Integral accuracy      1.0D-11

     14.156 MB (compressed) written to integral file ( 45.3%)


 NUMBER OF SORTED TWO-ELECTRON INTEGRALS:    3454506.     BUFFER LENGTH:  32768
 NUMBER OF SEGMENTS:   1  SEGMENT LENGTH:    3454506      RECORD LENGTH: 524288

 Memory used in sort:       4.01 MW

 SORT1 READ     3931143. AND WROTE     2907067. INTEGRALS IN      9 RECORDS. CPU TIME:     0.05 SEC, REAL TIME:     0.08 SEC
 SORT2 READ     2907067. AND WROTE     3454506. INTEGRALS IN     54 RECORDS. CPU TIME:     0.11 SEC, REAL TIME:     0.14 SEC

 FILE SIZES:   FILE 1:    44.4 MBYTE,  FILE 4:    37.8 MBYTE,   TOTAL:     82.2 MBYTE

 OPERATOR DM      FOR CENTER  0  COORDINATES:    0.000000    0.000000    0.000000


 **********************************************************************************************************************************
 DATASETS  * FILE   NREC   LENGTH (MB)   RECORD NAMES
              1      19       42.45       500      610      700      900      950      970     1000      129      960     1100   
                                          VAR    BASINP    GEOM    SYMINP    ZMAT    AOBASIS   BASIS     P2S    ABASIS      S 
                                         1400     1410     1200     1210     1080     1600     1650     1300     1700   
                                           T        V       H0       H01     AOSYM     SMH    MOLCAS    ERIS     OPER   

 PROGRAMS   *        TOTAL       INT
 CPU TIMES  *         0.91      0.76
 REAL TIME  *         3.35 SEC
 DISK USED  *        82.64 MB      
 **********************************************************************************************************************************

 Density functional group MM06-L=M06LX+M06LC
 Functional: M06LX(Automatically generated (new) M06LX)                        Gradient terms: 2
 Functional: M06LC(Automatically generated (new) M06LC)                        Gradient terms: 2
 Use grid at  1800.2

 Functional: M06LX                     Factor:  1.0000
 Functional: M06LC                     Factor:  1.0000

 Generated new metagrid on record  1800.2 with target accuracy 1.0D-06 and 33732 points in CPU time    0.9
 Computed new grid on record 1800.1 in CPU time    1.0
  116061 words reserved for DFT integration

 PROGRAM * UKS-SCF (Unrestricted Kohn-Sham)     Authors: W. Meyer, H.-J. Werner, P.J. Knowles, 1993

 NUMBER OF ELECTRONS:      13+   13-    SPACE SYMMETRY=1    SPIN SYMMETRY: Singlet 
 CONVERGENCE THRESHOLDS:    1.00E-05 (Density)    1.00E-06 (Energy)
 MAX. NUMBER OF ITERATIONS:       60
 INTERPOLATION TYPE:            DIIS
 INTERPOLATION STEPS:              2 (START)      1 (STEP)
 LEVEL SHIFTS:                 -0.20 (ALPHA)  -0.20 (BETA) 



 Use fine grid record 1800.2 for energy threshold  1.0D-06
 Orbital guess generated from atomic densities. Full valence occupancy:   13

 Molecular orbital dump at record        2200.2

 Initial alpha occupation  13
 Initial beta  occupation  13

 ITERATION    DDIFF          GRAD             ENERGY        2-EL.EN.            DIPOLE MOMENTS         DIIS
    1      0.000D+00      0.000D+00      -154.79616763    324.242929    0.78821    0.00000    0.52847    0
    2      0.116D-01      0.555D-02      -154.86718955    314.088157    0.34666    0.00000    0.23181    1
    3      0.381D-02      0.273D-02      -154.88156011    317.032635    0.46665    0.00000    0.31394    2
    4      0.814D-03      0.492D-03      -154.88211226    316.818536    0.43600    0.00000    0.29393    3
    5      0.594D-03      0.169D-03      -154.88226446    316.759887    0.42786    0.00000    0.28884    4
    6      0.455D-03      0.670D-04      -154.88230123    316.729379    0.41866    0.00000    0.28265    5
    7      0.109D-03      0.164D-04      -154.88230305    316.727567    0.41818    0.00000    0.28235    6
    8      0.153D-04      0.267D-05      -154.88230309    316.727210    0.41762    0.00000    0.28197    6
    9      0.403D-05      0.753D-06      -154.88230310    316.727237    0.41766    0.00000    0.28201    6
   10      0.989D-06      0.228D-06      -154.88230310    316.727293    0.41764    0.00000    0.28198    6

 Final alpha occupancy:  13
 Final beta  occupancy:  13

 !UKS STATE 1.1 Energy               -154.882303097897
 Nuclear energy                        83.80024479
 One-electron energy                 -375.39061914
 Two-electron energy                  158.36364634
 Density functional                   -21.65557508     M06LX=-20.73055582 M06LC= -0.92501925
 Virial quotient                       -1.00911971
 !UKS STATE 1.1 Dipole moment           0.41763955     0.00000000     0.28198432
 Dipole moment /Debye                   1.06146434     0.00000000     0.71668571

 Orbital energies for positive spin:

         1.1          2.1          3.1          4.1          5.1          6.1          7.1          8.1          9.1         10.1
    -18.967118   -10.100622   -10.100293    -0.989231    -0.672372    -0.590678    -0.441370    -0.428101    -0.426473    -0.357361

        11.1         12.1         13.1         14.1         15.1
     -0.339515    -0.280081    -0.218596     0.070836     0.116771

 Orbital energies for negative spin:

         1.1          2.1          3.1          4.1          5.1          6.1          7.1          8.1          9.1         10.1
    -18.967117   -10.100621   -10.100292    -0.989231    -0.672371    -0.590678    -0.441370    -0.428101    -0.426473    -0.357361

        11.1         12.1         13.1         14.1         15.1
     -0.339515    -0.280081    -0.218596     0.070837     0.116771

 HOMO    -13.1    -0.218596 =      -5.9483eV
 LUMO     14.1     0.070836 =       1.9275eV
 LUMO-HOMO         0.289432 =       7.8758eV

 EXPECTATION VALUE OF S**2:             0.00000000

 Occupation number threshold for canonical orbitals:  1.999000 (occupied),  0.001000 (virtual)

 Number of pseudo-canonical orbitals per symmetry:   13
 Number of active natural orbitals per symmetry:      0

 Natural orbitals saved to record    2200.2 (Orbital set 3)

 Orbital spaces for UNO-CAS (Min. occupation: 0.020  Max. occupation: 1.980):

 Closed:       13
 Active:        0


 **********************************************************************************************************************************
 DATASETS  * FILE   NREC   LENGTH (MB)   RECORD NAMES
              1      20       43.53       500      610      700      900      950      970     1000      129      960     1100   
                                          VAR    BASINP    GEOM    SYMINP    ZMAT    AOBASIS   BASIS     P2S    ABASIS      S 
                                         1400     1410     1200     1210     1080     1600     1650     1300     1700     1800   
                                           T        V       H0       H01     AOSYM     SMH    MOLCAS    ERIS     OPER     GRID   

              2       5        3.11       700     1000      520     1800     2200   
                                         GEOM     BASIS   MCVARS    GRID      UKS  

 PROGRAMS   *        TOTAL       UKS       INT
 CPU TIMES  *        25.32     24.41      0.76
 REAL TIME  *        27.91 SEC
 DISK USED  *        82.64 MB      
 **********************************************************************************************************************************


 PROGRAM * Intrinsic Basis Bonding Analysis (IBBA)          Author: G. Knizia

 Molecular orbitals read from record     2200.2  Type=UKS/ALPHA (state 1.1)
 Fock matrix read from record            2200.2  Type=UKS/TOTAL (state 1.1)
 Orbital energies read from record       2200.2  Type=UKS/ALPHA (state 1.1)
 Density matrix read from record         2200.2  Type=UKS/CHARGE (state 1.1)

 Number of core orbitals:           3 (   3 )
 Number of closed-shell orbitals:  10 (  10 )

 Basis set MINAO-AUTO-PP generated.      Number of basis functions:   21 

 Polarized AO type:                A = (O Ot + (1-O)(1-Ot)) P12
 Orthogonalization method:         Symmetric (Loewdin)
 Localization functional:          L = sum[A,i] <i|n_A|i>^4 -> max

 Localization group 1:  13 orbitals, occupancy  2.000
 Iterative localization: IB/PM,    7 iter; Final gradient 0.10E-09

 Bond order analysis:       [THRPRINT= 0.020]

   CEN ATOM   CEN ATOM     WIBERG.BO      RENORM.BO
     1   O  -   3   C       0.989147       1.022048
     1   O  -   2   C       0.989130       1.022104
     1   O  -   8   H       0.035420       0.021140
     1   O  -   6   H       0.035420       0.021140
     1   O  -   9   H       0.035311       0.021080
     1   O  -   7   H       0.035311       0.021080

     2   C  -   1   O       0.989130       1.022104
     2   C  -   4   H       0.957238       0.975638
     2   C  -   8   H       0.948133       0.933558
     2   C  -   6   H       0.948133       0.933558

     3   C  -   1   O       0.989147       1.022048
     3   C  -   5   H       0.957426       0.975605
     3   C  -   9   H       0.948195       0.933744
     3   C  -   7   H       0.948195       0.933744

     4   H  -   2   C       0.957238       0.975638

     5   H  -   3   C       0.957426       0.975605

     6   H  -   2   C       0.948133       0.933558
     6   H  -   1   O       0.035420       0.021140

     7   H  -   3   C       0.948195       0.933744
     7   H  -   1   O       0.035311       0.021080

     8   H  -   2   C       0.948133       0.933558
     8   H  -   1   O       0.035420       0.021140

     9   H  -   3   C       0.948195       0.933744
     9   H  -   1   O       0.035311       0.021080


 Valency analysis:

   CEN ATOM   TOT.VALENCE
     1   O       2.132306
     2   C       3.862590
     3   C       3.862896
     4   H       0.977861
     5   H       0.978059
     6   H       0.987792
     7   H       0.987743
     8   H       0.987792
     9   H       0.987743

 Total charge composition:

   CEN ATOM         s          p       ELECTRONS ->P.CHARGE
     1   O       3.61121    4.76736      8.37857   -0.37857
     2   C       3.03240    3.14804      6.18044   -0.18044
     3   C       3.03233    3.14797      6.18030   -0.18030
     4   H       0.85121                 0.85121    0.14879
     5   H       0.85188                 0.85188    0.14812
     6   H       0.88951                 0.88951    0.11049
     7   H       0.88929                 0.88929    0.11071
     8   H       0.88951                 0.88951    0.11049
     9   H       0.88929                 0.88929    0.11071

 Total charge composition, AO contributions:

   CEN ATOM SHL      SPHERICAL COMPONENTS
     1   O  1s       1.99697
     1   O  2s       1.61424
     1   O  2p       1.51136    1.89709    1.35891

     2   C  1s       1.99150
     2   C  2s       1.04090
     2   C  2p       1.18023    1.16184    0.80598

     3   C  1s       1.99150
     3   C  2s       1.04083
     3   C  2p       0.86035    1.16194    1.12568

     4   H  1s       0.85121

     5   H  1s       0.85188

     6   H  1s       0.88951

     7   H  1s       0.88929

     8   H  1s       0.88951

     9   H  1s       0.88929

 Summary of localized orbital composition:   [THRPRINT= 0.020]

   ORB  GRP  ORB.ENERGY      CENTERS/CHARGES
     1   1   -18.812414      O  1   2.000
     2   1    -9.990752      C  2   2.000
     3   1    -9.990437      C  3   2.000
     4   1    -0.719699      O  1   1.258   C  3   0.733
     5   1    -0.719694      O  1   1.258   C  2   0.733
     6   1    -0.528794      O  1   1.963   (other: 0.037)
     7   1    -0.480908      C  2   1.130   H  6   0.868
     8   1    -0.480908      C  2   1.130   H  8   0.868
     9   1    -0.480856      C  3   1.130   H  7   0.868
    10   1    -0.480856      C  3   1.130   H  9   0.868
    11   1    -0.480661      C  2   1.149   H  4   0.844
    12   1    -0.480195      C  3   1.149   H  5   0.844
    13   1    -0.265625      O  1   1.897   C  2   0.021   C  3   0.021   (other: 0.062)

 Localized orbitals saved to record      2200.2  (orbital set 4)


 **********************************************************************************************************************************
 DATASETS  * FILE   NREC   LENGTH (MB)   RECORD NAMES
              1      20       43.53       500      610      700      900      950      970     1000      129      960     1100   
                                          VAR    BASINP    GEOM    SYMINP    ZMAT    AOBASIS   BASIS     P2S    ABASIS      S 
                                         1400     1410     1200     1210     1080     1600     1650     1300     1700     1800   
                                           T        V       H0       H01     AOSYM     SMH    MOLCAS    ERIS     OPER     GRID   

              2       5        3.15       700     1000      520     1800     2200   
                                         GEOM     BASIS   MCVARS    GRID      UKS  

 PROGRAMS   *        TOTAL      IBBA       UKS       INT
 CPU TIMES  *        25.34      0.02     24.41      0.76
 REAL TIME  *        28.00 SEC
 DISK USED  *        82.64 MB      
 **********************************************************************************************************************************
 Molecular orbitals read from record     2200.2  Type=UKS/LOCAL(IBO)  
 Occupation numbers read from record     2200.2  Type=UKS/LOCAL(IBO)  
 Orbital energies read from record       2200.2  Type=UKS/LOCAL(IBO)  
 Redundancy group numbers read from rec  2200.2  Type=UKS/BETA (state 1.1)

 IBBA/SVP energy=      0.000000000000

        UKS-SCF 
   -154.88230310
 **********************************************************************************************************************************
 Molpro calculation terminated
