
 Primary working directories    : /tmp/sb13343
 Secondary working directories  : /tmp/sb13343
 Wavefunction directory         : /panfs/panasas01/chem/sb13343/wfu/
 Main file repository           : /tmp/sb13343/

 SHA1      : b4a5b34a9e711420743f49e6833241d17c61fb3c
 NAME      : 2099.9.b4a5b34
 ARCHNAME  : linux/x86_64_openmp
 FC        : /cm/shared/languages/GCC-6.1/bin/gfortran
 BLASLIB   : -lblas
 id        : simonbennie

 Nodes     nprocs
 node33-016    1

 Using customized tuning parameters: mindgm=1; mindgv=20; mindgc=4; mindgr=1; noblas=0; minvec=7
 default implementation of scratch files=df  

 memory,500,m
 geomtyp=xyz
 nosym
 noorient
 geometry={
 O          0.00000        0.00000        0.00000
 C          0.00000        0.00000        1.40986
 C          1.30431        0.00000       -0.53525
 H         -1.04418        0.00000        1.73410
 H          1.20786        0.00000       -1.62434
 H          0.50101        0.89295        1.81977
 H          1.87373        0.89295       -0.22737
 H          0.50101       -0.89295        1.81977
 H          1.87373       -0.89295       -0.22737
 }
 basis={ default,svp }
 {uks,PBE0,direct;wf,26,1,0}
 {ibba,bonds=1}

 Variables initialized (895), CPU time= 0.00 sec
 Commands  initialized (725), CPU time= 0.02 sec, 591 directives.
 Default parameters read. Elapsed time= 2.06 sec

 Checking input...
 Passed
1


                                         ***  PROGRAM SYSTEM MOLPRO  ***
                                       Copyright, TTI GmbH Stuttgart, 2015
                                    Version 2099.9 linked May 26 2017 16:03:21


 **********************************************************************************************************************************
 LABEL *                                                                                 
  64 bit serial version                                                                  DATE: 07-Jun-17          TIME: 16:40:20  
 **********************************************************************************************************************************

 SHA1:             b4a5b34a9e711420743f49e6833241d17c61fb3c
 **********************************************************************************************************************************
 SETTING GEOMTYP        =    XYZ

 Variable memory set to  500000000 words,  buffer space 

 ZSYMEL=NOSYM

 SETTING BASIS          =    SVP


 Recomputing integrals since basis changed


 Using spherical harmonics

 Library entry O      S def2-SVP             selected for orbital group  1
 Library entry O      P def2-SVP             selected for orbital group  1
 Library entry O      D def2-SVP             selected for orbital group  1
 Library entry C      S def2-SVP             selected for orbital group  2
 Library entry C      P def2-SVP             selected for orbital group  2
 Library entry C      D def2-SVP             selected for orbital group  2
 Library entry H      S def2-SVP             selected for orbital group  3
 Library entry H      P def2-SVP             selected for orbital group  3


 PROGRAM * SEWARD (Integral evaluation for generally contracted gaussian basis sets)     Author: Roland Lindh, 1990

 Geometry written to block  1 of record 700


 Point group  C1  



 ATOMIC COORDINATES

 NR  ATOM    CHARGE       X              Y              Z

   1  O       8.00    0.000000000    0.000000000    0.000000000
   2  C       6.00    0.000000000    0.000000000    2.664249274
   3  C       6.00    2.464788682    0.000000000   -1.011475908
   4  H       1.00   -1.973214225    0.000000000    3.276974073
   5  H       1.00    2.282524597    0.000000000   -3.069557733
   6  H       1.00    0.946771686    1.687430943    3.438866910
   7  H       1.00    3.540836531    1.687430943   -0.429667029
   8  H       1.00    0.946771686   -1.687430943    3.438866910
   9  H       1.00    3.540836531   -1.687430943   -0.429667029

 Bond lengths in Bohr (Angstrom)

 1-2  2.664249274  1-3  2.664257262  2-4  2.066157316  2-6  2.084186243  2-8  2.084186243
     ( 1.409860000)     ( 1.409864227)     ( 1.093363366)     ( 1.102903863)     ( 1.102903863)

 3-5  2.066136732  3-7  2.084179391  3-9  2.084179391
     ( 1.093352473)     ( 1.102900237)     ( 1.102900237)

 Bond angles

  1-2-4  107.25067522   1-2-6  111.81829608   1-2-8  111.81829608   1-3-5  107.25086594

  1-3-7  111.81797398   1-3-9  111.81797398   2-1-3  112.31178693   4-2-6  108.88149892

  4-2-8  108.88149892   5-3-7  108.88146655   5-3-9  108.88146655   6-2-8  108.12064679

  7-3-9  108.12116643

 NUCLEAR CHARGE:                   26
 NUMBER OF PRIMITIVE AOS:         117
 NUMBER OF SYMMETRY AOS:          114
 NUMBER OF CONTRACTIONS:           72   (  72A   )
 NUMBER OF CORE ORBITALS:           3   (   3A   )
 NUMBER OF VALENCE ORBITALS:       18   (  18A   )


 NUCLEAR REPULSION ENERGY   83.80024479


 Eigenvalues of metric

         1 0.907E-02 0.130E-01 0.293E-01 0.353E-01 0.441E-01 0.490E-01 0.499E-01 0.601E-01


 Contracted 2-electron integrals neglected if value below      1.0D-11
 AO integral compression algorithm  1   Integral accuracy      1.0D-11

     14.156 MB (compressed) written to integral file ( 45.3%)


 NUMBER OF SORTED TWO-ELECTRON INTEGRALS:    3454506.     BUFFER LENGTH:  32768
 NUMBER OF SEGMENTS:   1  SEGMENT LENGTH:    3454506      RECORD LENGTH: 524288

 Memory used in sort:       4.01 MW

 SORT1 READ     3931143. AND WROTE     2907067. INTEGRALS IN      9 RECORDS. CPU TIME:     0.04 SEC, REAL TIME:     0.09 SEC
 SORT2 READ     2907067. AND WROTE     3454506. INTEGRALS IN     54 RECORDS. CPU TIME:     0.12 SEC, REAL TIME:     0.14 SEC

 FILE SIZES:   FILE 1:    44.4 MBYTE,  FILE 4:    37.8 MBYTE,   TOTAL:     82.2 MBYTE

 OPERATOR DM      FOR CENTER  0  COORDINATES:    0.000000    0.000000    0.000000


 **********************************************************************************************************************************
 DATASETS  * FILE   NREC   LENGTH (MB)   RECORD NAMES
              1      19       42.45       500      610      700      900      950      970     1000      129      960     1100   
                                          VAR    BASINP    GEOM    SYMINP    ZMAT    AOBASIS   BASIS     P2S    ABASIS      S 
                                         1400     1410     1200     1210     1080     1600     1650     1300     1700   
                                           T        V       H0       H01     AOSYM     SMH    MOLCAS    ERIS     OPER   

 PROGRAMS   *        TOTAL       INT
 CPU TIMES  *         0.92      0.77
 REAL TIME  *         3.44 SEC
 DISK USED  *        82.64 MB      
 **********************************************************************************************************************************

 Density functional group PBE0=PBEX+PBEC
 Functional: PBEX(Automatically generated (new) PBEX)                          Gradient terms: 1
 Functional: PBEC(Automatically generated (new) PBEC)                          Gradient terms: 1
 Use grid at  1800.2


 Exact exchange will be calculated, factor:  0.2500

 Functional: PBEX                      Factor:  0.7500
 Functional: PBEC                      Factor:  1.0000

 Generated new metagrid on record  1800.2 with target accuracy 1.0D-06 and 33732 points in CPU time    0.9
 Computed new grid on record 1800.1 in CPU time    1.0
   61197 words reserved for DFT integration

 PROGRAM * UKS-SCF (Unrestricted Kohn-Sham)     Authors: W. Meyer, H.-J. Werner, P.J. Knowles, 1993

 NUMBER OF ELECTRONS:      13+   13-    SPACE SYMMETRY=1    SPIN SYMMETRY: Singlet 
 CONVERGENCE THRESHOLDS:    1.00E-05 (Density)    1.00E-06 (Energy)
 MAX. NUMBER OF ITERATIONS:       60
 INTERPOLATION TYPE:            DIIS
 INTERPOLATION STEPS:              2 (START)      1 (STEP)
 LEVEL SHIFTS:                 -0.20 (ALPHA)  -0.20 (BETA) 



 Use fine grid record 1800.2 for energy threshold  1.0D-06
 Orbital guess generated from atomic densities. Full valence occupancy:   13

 Molecular orbital dump at record        2200.2

 Initial alpha occupation  13
 Initial beta  occupation  13

 ITERATION    DDIFF          GRAD             ENERGY        2-EL.EN.            DIPOLE MOMENTS         DIIS
    1      0.000D+00      0.000D+00      -154.66869925    312.233737    0.77791    0.00000    0.52165    0
    2      0.886D-02      0.449D-02      -154.71746591    304.740198    0.42021    0.00000    0.28179    1
    3      0.277D-02      0.193D-02      -154.72445911    306.576251    0.48351    0.00000    0.32423    2
    4      0.941D-03      0.404D-03      -154.72495503    306.390281    0.45471    0.00000    0.30492    3
    5      0.773D-03      0.169D-03      -154.72512999    306.336640    0.44435    0.00000    0.29798    4
    6      0.429D-03      0.578D-04      -154.72515852    306.320431    0.43713    0.00000    0.29313    5
    7      0.879D-04      0.124D-04      -154.72515983    306.314767    0.43665    0.00000    0.29281    6
    8      0.189D-04      0.258D-05      -154.72515990    306.314798    0.43636    0.00000    0.29262    6
    9      0.412D-05      0.673D-06      -154.72515990    306.315235    0.43638    0.00000    0.29263    6
   10      0.500D-06      0.303D-06      -154.72515990    306.314939    0.43636    0.00000    0.29262    6

 Final alpha occupancy:  13
 Final beta  occupancy:  13

 !UKS STATE 1.1 Energy               -154.725159904197
 Nuclear energy                        83.80024479
 One-electron energy                 -375.38439528
 Two-electron energy                  153.15746938
 Density functional                   -16.29847879     PBEX=-20.60224323 PBEC= -0.84679637
 Virial quotient                       -1.00949928
 !UKS STATE 1.1 Dipole moment           0.43636061     0.00000000     0.29261619
 Dipole moment /Debye                   1.10904541     0.00000000     0.74370746

 Orbital energies for positive spin:

         1.1          2.1          3.1          4.1          5.1          6.1          7.1          8.1          9.1         10.1
    -19.206995   -10.271710   -10.271697    -1.046310    -0.733783    -0.646361    -0.490875    -0.482554    -0.481801    -0.404892

        11.1         12.1         13.1         14.1         15.1
     -0.386423    -0.327739    -0.266236     0.072081     0.117947

 Orbital energies for negative spin:

         1.1          2.1          3.1          4.1          5.1          6.1          7.1          8.1          9.1         10.1
    -19.206994   -10.271709   -10.271696    -1.046309    -0.733782    -0.646360    -0.490874    -0.482553    -0.481800    -0.404892

        11.1         12.1         13.1         14.1         15.1
     -0.386423    -0.327738    -0.266235     0.072081     0.117946

 HOMO    -13.1    -0.266235 =      -7.2446eV
 LUMO    -14.1     0.072081 =       1.9614eV
 LUMO-HOMO         0.338315 =       9.2060eV

 EXPECTATION VALUE OF S**2:             0.00000000

 Occupation number threshold for canonical orbitals:  1.999000 (occupied),  0.001000 (virtual)

 Number of pseudo-canonical orbitals per symmetry:   13
 Number of active natural orbitals per symmetry:      0

 Natural orbitals saved to record    2200.2 (Orbital set 3)

 Orbital spaces for UNO-CAS (Min. occupation: 0.020  Max. occupation: 1.980):

 Closed:       13
 Active:        0


 **********************************************************************************************************************************
 DATASETS  * FILE   NREC   LENGTH (MB)   RECORD NAMES
              1      20       43.53       500      610      700      900      950      970     1000      129      960     1100   
                                          VAR    BASINP    GEOM    SYMINP    ZMAT    AOBASIS   BASIS     P2S    ABASIS      S 
                                         1400     1410     1200     1210     1080     1600     1650     1300     1700     1800   
                                           T        V       H0       H01     AOSYM     SMH    MOLCAS    ERIS     OPER     GRID   

              2       5        3.11       700     1000      520     1800     2200   
                                         GEOM     BASIS   MCVARS    GRID      UKS  

 PROGRAMS   *        TOTAL       UKS       INT
 CPU TIMES  *         8.33      7.41      0.77
 REAL TIME  *        12.04 SEC
 DISK USED  *        82.64 MB      
 **********************************************************************************************************************************


 PROGRAM * Intrinsic Basis Bonding Analysis (IBBA)          Author: G. Knizia

 Molecular orbitals read from record     2200.2  Type=UKS/ALPHA (state 1.1)
 Fock matrix read from record            2200.2  Type=UKS/TOTAL (state 1.1)
 Orbital energies read from record       2200.2  Type=UKS/ALPHA (state 1.1)
 Density matrix read from record         2200.2  Type=UKS/CHARGE (state 1.1)

 Number of core orbitals:           3 (   3 )
 Number of closed-shell orbitals:  10 (  10 )

 Basis set MINAO-AUTO-PP generated.      Number of basis functions:   21 

 Polarized AO type:                A = (O Ot + (1-O)(1-Ot)) P12
 Orthogonalization method:         Symmetric (Loewdin)
 Localization functional:          L = sum[A,i] <i|n_A|i>^4 -> max

 Localization group 1:  13 orbitals, occupancy  2.000
 Iterative localization: IB/PM,    7 iter; Final gradient 0.19E-09

 Bond order analysis:       [THRPRINT= 0.020]

   CEN ATOM   CEN ATOM     WIBERG.BO      RENORM.BO
     1   O  -   2   C       0.988863       1.019759
     1   O  -   3   C       0.988859       1.019758
     1   O  -   8   H       0.032757       0.019515
     1   O  -   6   H       0.032757       0.019515
     1   O  -   9   H       0.032756       0.019515
     1   O  -   7   H       0.032756       0.019515

     2   C  -   1   O       0.988863       1.019759
     2   C  -   4   H       0.957831       0.978130
     2   C  -   8   H       0.949953       0.939037
     2   C  -   6   H       0.949953       0.939037

     3   C  -   1   O       0.988859       1.019758
     3   C  -   5   H       0.957833       0.978130
     3   C  -   9   H       0.949953       0.939040
     3   C  -   7   H       0.949953       0.939040

     4   H  -   2   C       0.957831       0.978130

     5   H  -   3   C       0.957833       0.978130

     6   H  -   2   C       0.949953       0.939037
     6   H  -   1   O       0.032757       0.019515

     7   H  -   3   C       0.949953       0.939040
     7   H  -   1   O       0.032756       0.019515

     8   H  -   2   C       0.949953       0.939037
     8   H  -   1   O       0.032757       0.019515

     9   H  -   3   C       0.949953       0.939040
     9   H  -   1   O       0.032756       0.019515


 Valency analysis:

   CEN ATOM   TOT.VALENCE
     1   O       2.120003
     2   C       3.865051
     3   C       3.865048
     4   H       0.977387
     5   H       0.977389
     6   H       0.987185
     7   H       0.987184
     8   H       0.987185
     9   H       0.987184

 Total charge composition:

   CEN ATOM         s          p       ELECTRONS ->P.CHARGE
     1   O       3.58797    4.78566      8.37363   -0.37363
     2   C       3.01996    3.17002      6.18997   -0.18997
     3   C       3.01996    3.17002      6.18997   -0.18997
     4   H       0.84962                 0.84962    0.15038
     5   H       0.84963                 0.84963    0.15037
     6   H       0.88680                 0.88680    0.11320
     7   H       0.88679                 0.88679    0.11321
     8   H       0.88680                 0.88680    0.11320
     9   H       0.88679                 0.88679    0.11321

 Total charge composition, AO contributions:

   CEN ATOM SHL      SPHERICAL COMPONENTS
     1   O  1s       1.99702
     1   O  2s       1.59095
     1   O  2p       1.51753    1.90715    1.36097

     2   C  1s       1.99163
     2   C  2s       1.02832
     2   C  2p       1.18793    1.16788    0.81421

     3   C  1s       1.99163
     3   C  2s       1.02832
     3   C  2p       0.86820    1.16788    1.13393

     4   H  1s       0.84962

     5   H  1s       0.84963

     6   H  1s       0.88680

     7   H  1s       0.88679

     8   H  1s       0.88680

     9   H  1s       0.88679

 Summary of localized orbital composition:   [THRPRINT= 0.020]

   ORB  GRP  ORB.ENERGY      CENTERS/CHARGES
     1   1   -19.055038      O  1   2.000
     2   1   -10.161713      C  2   2.000
     3   1   -10.161710      C  3   2.000
     4   1    -0.779735      O  1   1.249   C  2   0.743
     5   1    -0.779731      O  1   1.249   C  3   0.743
     6   1    -0.565341      O  1   1.965   (other: 0.035)
     7   1    -0.532893      C  3   1.131   H  7   0.867
     8   1    -0.532893      C  3   1.131   H  9   0.867
     9   1    -0.532893      C  2   1.131   H  8   0.867
    10   1    -0.532893      C  2   1.131   H  6   0.867
    11   1    -0.532276      C  3   1.151   H  5   0.842
    12   1    -0.532269      C  2   1.151   H  4   0.842
    13   1    -0.318034      O  1   1.907   (other: 0.093)

 Localized orbitals saved to record      2200.2  (orbital set 4)


 **********************************************************************************************************************************
 DATASETS  * FILE   NREC   LENGTH (MB)   RECORD NAMES
              1      20       43.53       500      610      700      900      950      970     1000      129      960     1100   
                                          VAR    BASINP    GEOM    SYMINP    ZMAT    AOBASIS   BASIS     P2S    ABASIS      S 
                                         1400     1410     1200     1210     1080     1600     1650     1300     1700     1800   
                                           T        V       H0       H01     AOSYM     SMH    MOLCAS    ERIS     OPER     GRID   

              2       5        3.15       700     1000      520     1800     2200   
                                         GEOM     BASIS   MCVARS    GRID      UKS  

 PROGRAMS   *        TOTAL      IBBA       UKS       INT
 CPU TIMES  *         8.36      0.02      7.41      0.77
 REAL TIME  *        12.13 SEC
 DISK USED  *        82.64 MB      
 **********************************************************************************************************************************
 Molecular orbitals read from record     2200.2  Type=UKS/LOCAL(IBO)  
 Occupation numbers read from record     2200.2  Type=UKS/LOCAL(IBO)  
 Orbital energies read from record       2200.2  Type=UKS/LOCAL(IBO)  
 Redundancy group numbers read from rec  2200.2  Type=UKS/BETA (state 1.1)

 IBBA/SVP energy=      0.000000000000

        UKS-SCF 
   -154.72515990
 **********************************************************************************************************************************
 Molpro calculation terminated
