
 Primary working directories    : /tmp/sb13343
 Secondary working directories  : /tmp/sb13343
 Wavefunction directory         : /panfs/panasas01/chem/sb13343/wfu/
 Main file repository           : /tmp/sb13343/

 SHA1      : b4a5b34a9e711420743f49e6833241d17c61fb3c
 NAME      : 2099.9.b4a5b34
 ARCHNAME  : linux/x86_64_openmp
 FC        : /cm/shared/languages/GCC-6.1/bin/gfortran
 BLASLIB   : -lblas
 id        : simonbennie

 Nodes     nprocs
 node32-014    1

 Using customized tuning parameters: mindgm=1; mindgv=20; mindgc=4; mindgr=1; noblas=0; minvec=7
 default implementation of scratch files=df  

 memory,500,m
 geomtyp=xyz
 nosym
 noorient
 geometry={
 O          0.00000        0.00000        0.00000
 C          0.00000        0.00000        1.40986
 C          1.30431        0.00000       -0.53525
 H         -1.04418        0.00000        1.73410
 H          1.20786        0.00000       -1.62434
 H          0.50101        0.89295        1.81977
 H          1.87373        0.89295       -0.22737
 H          0.50101       -0.89295        1.81977
 H          1.87373       -0.89295       -0.22737
 }
 basis={ default,sto-3g }
 {ks,SOGGA11,direct;wf,26,1,0}
 {ibba,bonds=1}

 Variables initialized (895), CPU time= 0.01 sec
 Commands  initialized (725), CPU time= 0.01 sec, 591 directives.
 Default parameters read. Elapsed time= 1.82 sec

 Checking input...
 Passed
1


                                         ***  PROGRAM SYSTEM MOLPRO  ***
                                       Copyright, TTI GmbH Stuttgart, 2015
                                    Version 2099.9 linked May 26 2017 16:03:21


 **********************************************************************************************************************************
 LABEL *                                                                                 
  64 bit serial version                                                                  DATE: 07-Jun-17          TIME: 16:32:52  
 **********************************************************************************************************************************

 SHA1:             b4a5b34a9e711420743f49e6833241d17c61fb3c
 **********************************************************************************************************************************
 SETTING GEOMTYP        =    XYZ

 Variable memory set to  500000000 words,  buffer space 

 ZSYMEL=NOSYM

 SETTING BASIS          =    STO-3G


 Recomputing integrals since basis changed


 Using spherical harmonics

 Library entry O      S STO-3G               selected for orbital group  1
 Library entry O      P STO-3G               selected for orbital group  1
 Library entry C      S STO-3G               selected for orbital group  2
 Library entry C      P STO-3G               selected for orbital group  2
 Library entry H      S STO-3G               selected for orbital group  3


 PROGRAM * SEWARD (Integral evaluation for generally contracted gaussian basis sets)     Author: Roland Lindh, 1990

 Geometry written to block  1 of record 700


 Point group  C1  



 ATOMIC COORDINATES

 NR  ATOM    CHARGE       X              Y              Z

   1  O       8.00    0.000000000    0.000000000    0.000000000
   2  C       6.00    0.000000000    0.000000000    2.664249274
   3  C       6.00    2.464788682    0.000000000   -1.011475908
   4  H       1.00   -1.973214225    0.000000000    3.276974073
   5  H       1.00    2.282524597    0.000000000   -3.069557733
   6  H       1.00    0.946771686    1.687430943    3.438866910
   7  H       1.00    3.540836531    1.687430943   -0.429667029
   8  H       1.00    0.946771686   -1.687430943    3.438866910
   9  H       1.00    3.540836531   -1.687430943   -0.429667029

 Bond lengths in Bohr (Angstrom)

 1-2  2.664249274  1-3  2.664257262  2-4  2.066157316  2-6  2.084186243  2-8  2.084186243
     ( 1.409860000)     ( 1.409864227)     ( 1.093363366)     ( 1.102903863)     ( 1.102903863)

 3-5  2.066136732  3-7  2.084179391  3-9  2.084179391
     ( 1.093352473)     ( 1.102900237)     ( 1.102900237)

 Bond angles

  1-2-4  107.25067522   1-2-6  111.81829608   1-2-8  111.81829608   1-3-5  107.25086594

  1-3-7  111.81797398   1-3-9  111.81797398   2-1-3  112.31178693   4-2-6  108.88149892

  4-2-8  108.88149892   5-3-7  108.88146655   5-3-9  108.88146655   6-2-8  108.12064679

  7-3-9  108.12116643

 NUCLEAR CHARGE:                   26
 NUMBER OF PRIMITIVE AOS:          63
 NUMBER OF SYMMETRY AOS:           63
 NUMBER OF CONTRACTIONS:           21   (  21A   )
 NUMBER OF CORE ORBITALS:           3   (   3A   )
 NUMBER OF VALENCE ORBITALS:       18   (  18A   )


 NUCLEAR REPULSION ENERGY   83.80024479


 Eigenvalues of metric

         1 0.234E+00 0.235E+00 0.359E+00 0.371E+00 0.377E+00 0.378E+00 0.398E+00 0.479E+00


 Contracted 2-electron integrals neglected if value below      1.0D-11
 AO integral compression algorithm  1   Integral accuracy      1.0D-11

     0.262 MB (compressed) written to integral file (100.0%)


 NUMBER OF SORTED TWO-ELECTRON INTEGRALS:      26796.     BUFFER LENGTH:  32768
 NUMBER OF SEGMENTS:   1  SEGMENT LENGTH:      26796      RECORD LENGTH: 524288

 Memory used in sort:       0.58 MW

 SORT1 READ       32133. AND WROTE       21402. INTEGRALS IN      1 RECORDS. CPU TIME:     0.00 SEC, REAL TIME:     0.01 SEC
 SORT2 READ       21402. AND WROTE       26796. INTEGRALS IN      1 RECORDS. CPU TIME:     0.00 SEC, REAL TIME:     0.01 SEC

 FILE SIZES:   FILE 1:    30.4 MBYTE,  FILE 4:     4.2 MBYTE,   TOTAL:     34.6 MBYTE

 OPERATOR DM      FOR CENTER  0  COORDINATES:    0.000000    0.000000    0.000000


 **********************************************************************************************************************************
 DATASETS  * FILE   NREC   LENGTH (MB)   RECORD NAMES
              1      19       30.21       500      610      700      900      950      970     1000      129      960     1100   
                                          VAR    BASINP    GEOM    SYMINP    ZMAT    AOBASIS   BASIS     P2S    ABASIS      S 
                                         1400     1410     1200     1210     1080     1600     1650     1300     1700   
                                           T        V       H0       H01     AOSYM     SMH    MOLCAS    ERIS     OPER   

 PROGRAMS   *        TOTAL       INT
 CPU TIMES  *         0.38      0.23
 REAL TIME  *         2.45 SEC
 DISK USED  *        34.99 MB      
 **********************************************************************************************************************************

 Density functional group SOGGA11=XC-SOGGA11
 Functional: XC-SOGGA11(via MFM 1.6)                                           Gradient terms: 1
 Use grid at  1800.2

 Functional: XC-SOGGA11                Factor:  1.0000

 Generated new metagrid on record  1800.2 with target accuracy 1.0D-06 and 33732 points in CPU time    0.9
 Computed new grid on record 1800.1 in CPU time    1.0
   20895 words reserved for DFT integration

 PROGRAM * RKS-SCF (Restricted closed shell Kohn-Sham)     Authors: W. Meyer, H.-J. Werner, P.J. Knowles, 1993

 NUMBER OF ELECTRONS:      13+   13-    SPACE SYMMETRY=1    SPIN SYMMETRY: Singlet 
 CONVERGENCE THRESHOLDS:    1.00E-05 (Density)    1.00E-06 (Energy)
 MAX. NUMBER OF ITERATIONS:       60
 INTERPOLATION TYPE:            DIIS
 INTERPOLATION STEPS:              2 (START)      1 (STEP)
 LEVEL SHIFTS:                  0.00 (CLOSED)  0.00 (OPEN) 



 Use fine grid record 1800.2 for energy threshold  1.0D-06
 Orbital guess generated from atomic densities. Full valence occupancy:   13

 Molecular orbital dump at record        2100.2

 Initial occupancy:  13

 ITERATION    DDIFF          GRAD             ENERGY        2-EL.EN.            DIPOLE MOMENTS         DIIS   ORB.
    1      0.000D+00      0.000D+00      -152.87381491    325.555439    1.01173    0.00000    0.67859    0    start
    2      0.000D+00      0.300D-01      -152.84964343    310.176984   -0.54865    0.00000   -0.36824    1    diag
    3      0.116D+00      0.337D-01      -153.00737240    317.684970    0.44485    0.00000    0.29827    2    diag
    4      0.623D-01      0.511D-02      -153.01041321    317.832646    0.34646    0.00000    0.23226    3    diag
    5      0.934D-02      0.107D-02      -153.01054899    317.815807    0.35461    0.00000    0.23772    4    diag
    6      0.159D-02      0.571D-04      -153.01054965    317.817815    0.35748    0.00000    0.23965    5    diag
    7      0.144D-03      0.224D-05      -153.01054965    317.818144    0.35751    0.00000    0.23966    6    diag
    8      0.384D-05      0.219D-06      -153.01054965    317.818218    0.35752    0.00000    0.23967    0    orth

 Final occupancy:  13

 !RKS STATE 1.1 Energy               -153.010549649626
 Nuclear energy                        83.80024479
 One-electron energy                 -374.01316186
 Two-electron energy                  158.90910884
 Density functional                   -21.70674141     XC-SOGGA11=-21.70674141
 Virial quotient                       -1.01592582
 !RKS STATE 1.1 Dipole moment           0.35751795     0.00000000     0.23967489
 Dipole moment /Debye                   0.90866046     0.00000000     0.60915292

 Orbital energies:

         1.1          2.1          3.1          4.1          5.1          6.1          7.1          8.1          9.1         10.1
    -18.543064    -9.781667    -9.781349    -0.881084    -0.609332    -0.531471    -0.371706    -0.371374    -0.368626    -0.313918

        11.1         12.1         13.1         14.1         15.1
     -0.291288    -0.158689    -0.084297     0.261954     0.345749

 HOMO     13.1    -0.084297 =      -2.2938eV
 LUMO     14.1     0.261954 =       7.1281eV
 LUMO-HOMO         0.346250 =       9.4220eV


 **********************************************************************************************************************************
 DATASETS  * FILE   NREC   LENGTH (MB)   RECORD NAMES
              1      20       31.29       500      610      700      900      950      970     1000      129      960     1100   
                                          VAR    BASINP    GEOM    SYMINP    ZMAT    AOBASIS   BASIS     P2S    ABASIS      S 
                                         1400     1410     1200     1210     1080     1600     1650     1300     1700     1800   
                                           T        V       H0       H01     AOSYM     SMH    MOLCAS    ERIS     OPER     GRID   

              2       5        2.90       700     1000      520     1800     2100   
                                         GEOM     BASIS   MCVARS    GRID      RKS  

 PROGRAMS   *        TOTAL        KS       INT
 CPU TIMES  *         2.91      2.52      0.23
 REAL TIME  *         5.56 SEC
 DISK USED  *        34.99 MB      
 **********************************************************************************************************************************


 PROGRAM * Intrinsic Basis Bonding Analysis (IBBA)          Author: G. Knizia

 Molecular orbitals read from record     2100.2  Type=RKS/CANONICAL (state 1.1)
 Fock matrix read from record            2100.2  Type=RKS/TOTAL (state 1.1)
 Orbital energies read from record       2100.2  Type=RKS/CANONICAL (state 1.1)
 Density matrix read from record         2100.2  Type=RKS/CHARGE (state 1.1)

 Number of core orbitals:           3 (   3 )
 Number of closed-shell orbitals:  10 (  10 )

 Basis set MINAO-AUTO-PP generated.      Number of basis functions:   21 

 Polarized AO type:                A = (O Ot + (1-O)(1-Ot)) P12
 Orthogonalization method:         Symmetric (Loewdin)
 Localization functional:          L = sum[A,i] <i|n_A|i>^4 -> max

 Localization group 1:  13 orbitals, occupancy  2.000
 Iterative localization: IB/PM,    7 iter; Final gradient 0.31E-09

 Bond order analysis:       [THRPRINT= 0.020]

   CEN ATOM   CEN ATOM     WIBERG.BO      RENORM.BO
     1   O  -   3   C       1.020750       1.018449
     1   O  -   2   C       1.020734       1.018444
     1   O  -   9   H       0.032402       0.019526
     1   O  -   7   H       0.032402       0.019526
     1   O  -   8   H       0.032395       0.019521
     1   O  -   6   H       0.032395       0.019521

     2   C  -   1   O       1.020734       1.018444
     2   C  -   4   H       0.952766       0.973216
     2   C  -   8   H       0.948800       0.941683
     2   C  -   6   H       0.948800       0.941683

     3   C  -   1   O       1.020750       1.018449
     3   C  -   5   H       0.952757       0.973210
     3   C  -   9   H       0.948787       0.941672
     3   C  -   7   H       0.948787       0.941672

     4   H  -   2   C       0.952766       0.973216

     5   H  -   3   C       0.952757       0.973210

     6   H  -   2   C       0.948800       0.941683
     6   H  -   1   O       0.032395       0.019521

     7   H  -   3   C       0.948787       0.941672
     7   H  -   1   O       0.032402       0.019526

     8   H  -   2   C       0.948800       0.941683
     8   H  -   1   O       0.032395       0.019521

     9   H  -   3   C       0.948787       0.941672
     9   H  -   1   O       0.032402       0.019526


 Valency analysis:

   CEN ATOM   TOT.VALENCE
     1   O       2.186914
     2   C       3.891204
     3   C       3.891184
     4   H       0.978141
     5   H       0.978141
     6   H       0.985615
     7   H       0.985610
     8   H       0.985615
     9   H       0.985610

 Total charge composition:

   CEN ATOM         s          p       ELECTRONS ->P.CHARGE
     1   O       3.64683    4.56599      8.21282   -0.21282
     2   C       3.01036    3.27094      6.28130   -0.28130
     3   C       3.01036    3.27101      6.28137   -0.28137
     4   H       0.85215                 0.85215    0.14785
     5   H       0.85215                 0.85215    0.14785
     6   H       0.88006                 0.88006    0.11994
     7   H       0.88004                 0.88004    0.11996
     8   H       0.88006                 0.88006    0.11994
     9   H       0.88004                 0.88004    0.11996

 Total charge composition, AO contributions:

   CEN ATOM SHL      SPHERICAL COMPONENTS
     1   O  1s       1.99729
     1   O  2s       1.64954
     1   O  2p       1.40066    1.90274    1.26259

     2   C  1s       1.99266
     2   C  2s       1.01770
     2   C  2p       1.19779    1.18729    0.88587

     3   C  1s       1.99266
     3   C  2s       1.01770
     3   C  2p       0.93090    1.18730    1.15281

     4   H  1s       0.85215

     5   H  1s       0.85215

     6   H  1s       0.88006

     7   H  1s       0.88004

     8   H  1s       0.88006

     9   H  1s       0.88004

 Summary of localized orbital composition:   [THRPRINT= 0.020]

   ORB  GRP  ORB.ENERGY      CENTERS/CHARGES
     1   1   -18.384364      O  1   2.000
     2   1    -9.676479      C  2   2.000
     3   1    -9.676458      C  3   2.000
     4   1    -0.605154      O  1   1.168   C  3   0.823
     5   1    -0.605111      O  1   1.168   C  2   0.823
     6   1    -0.435175      C  3   1.150   H  5   0.842
     7   1    -0.435158      C  2   1.150   H  4   0.842
     8   1    -0.432493      C  3   1.138   H  9   0.860
     9   1    -0.432493      C  3   1.138   H  7   0.860
    10   1    -0.432474      C  2   1.138   H  8   0.860
    11   1    -0.432474      C  2   1.138   H  6   0.860
    12   1    -0.423024      O  1   1.969   (other: 0.031)
    13   1    -0.117007      O  1   1.902   (other: 0.098)

 Localized orbitals saved to record      2100.2  (orbital set 2)


 **********************************************************************************************************************************
 DATASETS  * FILE   NREC   LENGTH (MB)   RECORD NAMES
              1      20       31.29       500      610      700      900      950      970     1000      129      960     1100   
                                          VAR    BASINP    GEOM    SYMINP    ZMAT    AOBASIS   BASIS     P2S    ABASIS      S 
                                         1400     1410     1200     1210     1080     1600     1650     1300     1700     1800   
                                           T        V       H0       H01     AOSYM     SMH    MOLCAS    ERIS     OPER     GRID   

              2       5        2.90       700     1000      520     1800     2100   
                                         GEOM     BASIS   MCVARS    GRID      RKS  

 PROGRAMS   *        TOTAL      IBBA        KS       INT
 CPU TIMES  *         2.93      0.02      2.52      0.23
 REAL TIME  *         5.67 SEC
 DISK USED  *        34.99 MB      
 **********************************************************************************************************************************
 Molecular orbitals read from record     2100.2  Type=RKS/LOCAL(IBO)  
 Occupation numbers read from record     2100.2  Type=RKS/LOCAL(IBO)  
 Orbital energies read from record       2100.2  Type=RKS/LOCAL(IBO)  
 Redundancy group numbers read from rec  2100.2  Type=RKS/LOCAL(IBO)  

 IBBA/STO-3G energy=      0.000000000000

        KS-SCF  
   -153.01054965
 **********************************************************************************************************************************
 Molpro calculation terminated
