
 Primary working directories    : /tmp/sb13343
 Secondary working directories  : /tmp/sb13343
 Wavefunction directory         : /panfs/panasas01/chem/sb13343/wfu/
 Main file repository           : /tmp/sb13343/

 SHA1      : b4a5b34a9e711420743f49e6833241d17c61fb3c
 NAME      : 2099.9.b4a5b34
 ARCHNAME  : linux/x86_64_openmp
 FC        : /cm/shared/languages/GCC-6.1/bin/gfortran
 BLASLIB   : -lblas
 id        : simonbennie

 Nodes     nprocs
 node32-017    1

 Using customized tuning parameters: mindgm=1; mindgv=20; mindgc=4; mindgr=1; noblas=0; minvec=7
 default implementation of scratch files=df  

 memory,500,m
 geomtyp=xyz
 nosym
 noorient
 geometry={
 O          0.00000        0.00000        0.00000
 C          0.00000        0.00000        1.40986
 C          1.30431        0.00000       -0.53525
 H         -1.04418        0.00000        1.73410
 H          1.20786        0.00000       -1.62434
 H          0.50101        0.89295        1.81977
 H          1.87373        0.89295       -0.22737
 H          0.50101       -0.89295        1.81977
 H          1.87373       -0.89295       -0.22737
 }
 basis={ default,sto-3g }
 {uks,LSDAC,direct;wf,26,1,0}
 {ibba,bonds=1}

 Variables initialized (895), CPU time= 0.00 sec
 Commands  initialized (725), CPU time= 0.02 sec, 591 directives.
 Default parameters read. Elapsed time= 1.21 sec

 Checking input...
 Passed
1


                                         ***  PROGRAM SYSTEM MOLPRO  ***
                                       Copyright, TTI GmbH Stuttgart, 2015
                                    Version 2099.9 linked May 26 2017 16:03:21


 **********************************************************************************************************************************
 LABEL *                                                                                 
  64 bit serial version                                                                  DATE: 07-Jun-17          TIME: 16:21:08  
 **********************************************************************************************************************************

 SHA1:             b4a5b34a9e711420743f49e6833241d17c61fb3c
 **********************************************************************************************************************************
 SETTING GEOMTYP        =    XYZ

 Variable memory set to  500000000 words,  buffer space 

 ZSYMEL=NOSYM

 SETTING BASIS          =    STO-3G


 Recomputing integrals since basis changed


 Using spherical harmonics

 Library entry O      S STO-3G               selected for orbital group  1
 Library entry O      P STO-3G               selected for orbital group  1
 Library entry C      S STO-3G               selected for orbital group  2
 Library entry C      P STO-3G               selected for orbital group  2
 Library entry H      S STO-3G               selected for orbital group  3


 PROGRAM * SEWARD (Integral evaluation for generally contracted gaussian basis sets)     Author: Roland Lindh, 1990

 Geometry written to block  1 of record 700


 Point group  C1  



 ATOMIC COORDINATES

 NR  ATOM    CHARGE       X              Y              Z

   1  O       8.00    0.000000000    0.000000000    0.000000000
   2  C       6.00    0.000000000    0.000000000    2.664249274
   3  C       6.00    2.464788682    0.000000000   -1.011475908
   4  H       1.00   -1.973214225    0.000000000    3.276974073
   5  H       1.00    2.282524597    0.000000000   -3.069557733
   6  H       1.00    0.946771686    1.687430943    3.438866910
   7  H       1.00    3.540836531    1.687430943   -0.429667029
   8  H       1.00    0.946771686   -1.687430943    3.438866910
   9  H       1.00    3.540836531   -1.687430943   -0.429667029

 Bond lengths in Bohr (Angstrom)

 1-2  2.664249274  1-3  2.664257262  2-4  2.066157316  2-6  2.084186243  2-8  2.084186243
     ( 1.409860000)     ( 1.409864227)     ( 1.093363366)     ( 1.102903863)     ( 1.102903863)

 3-5  2.066136732  3-7  2.084179391  3-9  2.084179391
     ( 1.093352473)     ( 1.102900237)     ( 1.102900237)

 Bond angles

  1-2-4  107.25067522   1-2-6  111.81829608   1-2-8  111.81829608   1-3-5  107.25086594

  1-3-7  111.81797398   1-3-9  111.81797398   2-1-3  112.31178693   4-2-6  108.88149892

  4-2-8  108.88149892   5-3-7  108.88146655   5-3-9  108.88146655   6-2-8  108.12064679

  7-3-9  108.12116643

 NUCLEAR CHARGE:                   26
 NUMBER OF PRIMITIVE AOS:          63
 NUMBER OF SYMMETRY AOS:           63
 NUMBER OF CONTRACTIONS:           21   (  21A   )
 NUMBER OF CORE ORBITALS:           3   (   3A   )
 NUMBER OF VALENCE ORBITALS:       18   (  18A   )


 NUCLEAR REPULSION ENERGY   83.80024479


 Eigenvalues of metric

         1 0.234E+00 0.235E+00 0.359E+00 0.371E+00 0.377E+00 0.378E+00 0.398E+00 0.479E+00


 Contracted 2-electron integrals neglected if value below      1.0D-11
 AO integral compression algorithm  1   Integral accuracy      1.0D-11

     0.262 MB (compressed) written to integral file (100.0%)


 NUMBER OF SORTED TWO-ELECTRON INTEGRALS:      26796.     BUFFER LENGTH:  32768
 NUMBER OF SEGMENTS:   1  SEGMENT LENGTH:      26796      RECORD LENGTH: 524288

 Memory used in sort:       0.58 MW

 SORT1 READ       32133. AND WROTE       21402. INTEGRALS IN      1 RECORDS. CPU TIME:     0.01 SEC, REAL TIME:     0.01 SEC
 SORT2 READ       21402. AND WROTE       26796. INTEGRALS IN      1 RECORDS. CPU TIME:     0.00 SEC, REAL TIME:     0.00 SEC

 FILE SIZES:   FILE 1:    30.4 MBYTE,  FILE 4:     4.2 MBYTE,   TOTAL:     34.6 MBYTE

 OPERATOR DM      FOR CENTER  0  COORDINATES:    0.000000    0.000000    0.000000


 **********************************************************************************************************************************
 DATASETS  * FILE   NREC   LENGTH (MB)   RECORD NAMES
              1      19       30.21       500      610      700      900      950      970     1000      129      960     1100   
                                          VAR    BASINP    GEOM    SYMINP    ZMAT    AOBASIS   BASIS     P2S    ABASIS      S 
                                         1400     1410     1200     1210     1080     1600     1650     1300     1700   
                                           T        V       H0       H01     AOSYM     SMH    MOLCAS    ERIS     OPER   

 PROGRAMS   *        TOTAL       INT
 CPU TIMES  *         0.38      0.22
 REAL TIME  *         1.86 SEC
 DISK USED  *        34.99 MB      
 **********************************************************************************************************************************

 Density functional group LSDAC=PW92C
 Functional: PW92C(Automatically generated (new) PW92C)                        Gradient terms: 0
 Use grid at  1800.2

 Functional: PW92C                     Factor:  1.0000

 Generated new metagrid on record  1800.2 with target accuracy 1.0D-06 and 33732 points in CPU time    0.9
 Computed new grid on record 1800.1 in CPU time    0.9
   12894 words reserved for DFT integration

 PROGRAM * UKS-SCF (Unrestricted Kohn-Sham)     Authors: W. Meyer, H.-J. Werner, P.J. Knowles, 1993

 NUMBER OF ELECTRONS:      13+   13-    SPACE SYMMETRY=1    SPIN SYMMETRY: Singlet 
 CONVERGENCE THRESHOLDS:    1.00E-05 (Density)    1.00E-06 (Energy)
 MAX. NUMBER OF ITERATIONS:       60
 INTERPOLATION TYPE:            DIIS
 INTERPOLATION STEPS:              2 (START)      1 (STEP)
 LEVEL SHIFTS:                 -0.20 (ALPHA)  -0.20 (BETA) 



 Use fine grid record 1800.2 for energy threshold  1.0D-06
 Orbital guess generated from atomic densities. Full valence occupancy:   13

 Molecular orbital dump at record        2200.2

 Initial alpha occupation  13
 Initial beta  occupation  13

 ITERATION    DDIFF          GRAD             ENERGY        2-EL.EN.            DIPOLE MOMENTS         DIIS
    1      0.000D+00      0.000D+00      -133.07666905    313.453140   -0.07219    0.00000   -0.04841    0
    2      0.201D-01      0.685D-02      -133.08780275    311.753182   -0.07331    0.00000   -0.04917    1
    3      0.650D-02      0.313D-02      -133.09012617    312.096431   -0.10413    0.00000   -0.06984    2
    4      0.178D-02      0.714D-03      -133.09032037    312.126279   -0.09530    0.00000   -0.06392    3
    5      0.965D-03      0.220D-03      -133.09035137    312.083504   -0.10274    0.00000   -0.06891    4
    6      0.357D-03      0.693D-04      -133.09035448    312.089007   -0.10168    0.00000   -0.06820    5
    7      0.469D-04      0.127D-04      -133.09035454    312.087494   -0.10215    0.00000   -0.06851    6
    8      0.670D-05      0.133D-05      -133.09035454    312.087456   -0.10210    0.00000   -0.06848    5
    9      0.172D-05      0.344D-06      -133.09035454    312.087453   -0.10212    0.00000   -0.06849    6

 Final alpha occupancy:  13
 Final beta  occupancy:  13

 !UKS STATE 1.1 Energy               -133.090354542329
 Nuclear energy                        83.80024479
 One-electron energy                 -371.28429506
 Two-electron energy                  156.04372650
 Density functional                    -1.65003077     PW92C=-1.65003077
 Virial quotient                       -0.89904830
 !UKS STATE 1.1 Dipole moment          -0.10211752     0.00000000    -0.06849021
 Dipole moment /Debye                  -0.25953984     0.00000000    -0.17407334

 Orbital energies for positive spin:

         1.1          2.1          3.1          4.1          5.1          6.1          7.1          8.1          9.1         10.1
    -15.879190    -7.758840    -7.757384    -0.360160    -0.126141    -0.046007     0.073779     0.075994     0.094332     0.143958

        11.1         12.1         13.1         14.1         15.1
      0.177664     0.385579     0.452448     0.779646     0.849959

 Orbital energies for negative spin:

         1.1          2.1          3.1          4.1          5.1          6.1          7.1          8.1          9.1         10.1
    -15.879190    -7.758840    -7.757384    -0.360160    -0.126141    -0.046007     0.073779     0.075994     0.094332     0.143958

        11.1         12.1         13.1         14.1         15.1
      0.177664     0.385579     0.452448     0.779646     0.849959

 HOMO     13.1     0.452448 =      12.3117eV
 LUMO     14.1     0.779646 =      21.2152eV
 LUMO-HOMO         0.327197 =       8.9035eV

 EXPECTATION VALUE OF S**2:             0.00000000

 Natural orbitals saved to record    2200.2 (Orbital set 3)

 Orbital spaces for UNO-CAS (Min. occupation: 0.020  Max. occupation: 1.980):

 Closed:       13
 Active:        0


 **********************************************************************************************************************************
 DATASETS  * FILE   NREC   LENGTH (MB)   RECORD NAMES
              1      20       31.29       500      610      700      900      950      970     1000      129      960     1100   
                                          VAR    BASINP    GEOM    SYMINP    ZMAT    AOBASIS   BASIS     P2S    ABASIS      S 
                                         1400     1410     1200     1210     1080     1600     1650     1300     1700     1800   
                                           T        V       H0       H01     AOSYM     SMH    MOLCAS    ERIS     OPER     GRID   

              2       5        2.91       700     1000      520     1800     2200   
                                         GEOM     BASIS   MCVARS    GRID      UKS  

 PROGRAMS   *        TOTAL       UKS       INT
 CPU TIMES  *         2.14      1.76      0.22
 REAL TIME  *         4.09 SEC
 DISK USED  *        34.99 MB      
 **********************************************************************************************************************************


 PROGRAM * Intrinsic Basis Bonding Analysis (IBBA)          Author: G. Knizia

 Molecular orbitals read from record     2200.2  Type=UKS/ALPHA (state 1.1)
 Fock matrix read from record            2200.2  Type=UKS/TOTAL (state 1.1)
 Orbital energies read from record       2200.2  Type=UKS/ALPHA (state 1.1)
 Density matrix read from record         2200.2  Type=UKS/CHARGE (state 1.1)

 Number of core orbitals:           3 (   3 )
 Number of closed-shell orbitals:  10 (  10 )

 Basis set MINAO-AUTO-PP generated.      Number of basis functions:   21 

 Polarized AO type:                A = (O Ot + (1-O)(1-Ot)) P12
 Orthogonalization method:         Symmetric (Loewdin)
 Localization functional:          L = sum[A,i] <i|n_A|i>^4 -> max

 Localization group 1:  13 orbitals, occupancy  2.000
 Iterative localization: IB/PM,    7 iter; Final gradient 0.12E-08

 Bond order analysis:       [THRPRINT= 0.020]

   CEN ATOM   CEN ATOM     WIBERG.BO      RENORM.BO
     1   O  -   2   C       1.095500       1.049975
     1   O  -   3   C       1.095495       1.049972
     1   O  -   6   H       0.052844       0.030168
     1   O  -   8   H       0.052844       0.030168
     1   O  -   7   H       0.052842       0.030167
     1   O  -   9   H       0.052842       0.030167

     2   C  -   1   O       1.095500       1.049975
     2   C  -   4   H       0.955924       0.952737
     2   C  -   8   H       0.935319       0.899789
     2   C  -   6   H       0.935319       0.899789

     3   C  -   1   O       1.095495       1.049972
     3   C  -   5   H       0.955924       0.952739
     3   C  -   9   H       0.935321       0.899793
     3   C  -   7   H       0.935321       0.899793

     4   H  -   2   C       0.955924       0.952737

     5   H  -   3   C       0.955924       0.952739

     6   H  -   2   C       0.935319       0.899789
     6   H  -   1   O       0.052844       0.030168

     7   H  -   3   C       0.935321       0.899793
     7   H  -   1   O       0.052842       0.030167

     8   H  -   2   C       0.935319       0.899789
     8   H  -   1   O       0.052844       0.030168

     9   H  -   3   C       0.935321       0.899793
     9   H  -   1   O       0.052842       0.030167


 Valency analysis:

   CEN ATOM   TOT.VALENCE
     1   O       2.440151
     2   C       3.946816
     3   C       3.946815
     4   H       0.996920
     5   H       0.996920
     6   H       0.999295
     7   H       0.999295
     8   H       0.999295
     9   H       0.999295

 Total charge composition:

   CEN ATOM         s          p       ELECTRONS ->P.CHARGE
     1   O       3.54908    4.34694      7.89602    0.10398
     2   C       2.90983    3.25076      6.16059   -0.16059
     3   C       2.90983    3.25077      6.16060   -0.16060
     4   H       0.94451                 0.94451    0.05549
     5   H       0.94450                 0.94450    0.05550
     6   H       0.97345                 0.97345    0.02655
     7   H       0.97344                 0.97344    0.02656
     8   H       0.97345                 0.97345    0.02655
     9   H       0.97344                 0.97344    0.02656

 Total charge composition, AO contributions:

   CEN ATOM SHL      SPHERICAL COMPONENTS
     1   O  1s       1.99883
     1   O  2s       1.55025
     1   O  2p       1.34216    1.81574    1.18904

     2   C  1s       1.99824
     2   C  2s       0.91159
     2   C  2p       1.14090    1.14762    0.96224

     3   C  1s       1.99824
     3   C  2s       0.91159
     3   C  2p       0.98543    1.14762    1.11771

     4   H  1s       0.94451

     5   H  1s       0.94450

     6   H  1s       0.97345

     7   H  1s       0.97344

     8   H  1s       0.97345

     9   H  1s       0.97344

 Summary of localized orbital composition:   [THRPRINT= 0.020]

   ORB  GRP  ORB.ENERGY      CENTERS/CHARGES
     1   1   -15.777925      O  1   2.000
     2   1    -7.678097      C  2   2.000
     3   1    -7.678097      C  3   2.000
     4   1    -0.112198      O  1   1.067   C  2   0.920
     5   1    -0.112194      O  1   1.067   C  3   0.920
     6   1     0.027282      C  3   1.065   H  5   0.926
     7   1     0.027287      C  2   1.065   H  4   0.926
     8   1     0.036205      C  3   1.056   H  9   0.941
     9   1     0.036205      C  3   1.056   H  7   0.941
    10   1     0.036207      C  2   1.056   H  6   0.941
    11   1     0.036207      C  2   1.056   H  8   0.941
    12   1     0.216933      O  1   1.941   (other: 0.059)
    13   1     0.418220      O  1   1.816   C  2   0.041   C  3   0.041   H  6   0.025   H  8   0.025   H  9   0.025   H  7   0.025

 Localized orbitals saved to record      2200.2  (orbital set 4)


 **********************************************************************************************************************************
 DATASETS  * FILE   NREC   LENGTH (MB)   RECORD NAMES
              1      20       31.29       500      610      700      900      950      970     1000      129      960     1100   
                                          VAR    BASINP    GEOM    SYMINP    ZMAT    AOBASIS   BASIS     P2S    ABASIS      S 
                                         1400     1410     1200     1210     1080     1600     1650     1300     1700     1800   
                                           T        V       H0       H01     AOSYM     SMH    MOLCAS    ERIS     OPER     GRID   

              2       5        2.92       700     1000      520     1800     2200   
                                         GEOM     BASIS   MCVARS    GRID      UKS  

 PROGRAMS   *        TOTAL      IBBA       UKS       INT
 CPU TIMES  *         2.17      0.03      1.76      0.22
 REAL TIME  *         4.49 SEC
 DISK USED  *        34.99 MB      
 **********************************************************************************************************************************
 Molecular orbitals read from record     2200.2  Type=UKS/LOCAL(IBO)  
 Occupation numbers read from record     2200.2  Type=UKS/LOCAL(IBO)  
 Orbital energies read from record       2200.2  Type=UKS/LOCAL(IBO)  
 Redundancy group numbers read from rec  2200.2  Type=UKS/BETA (state 1.1)

 IBBA/STO-3G energy=      0.000000000000

        UKS-SCF 
   -133.09035454
 **********************************************************************************************************************************
 Molpro calculation terminated
