
 Primary working directories    : /tmp/sb13343
 Secondary working directories  : /tmp/sb13343
 Wavefunction directory         : /panfs/panasas01/chem/sb13343/wfu/
 Main file repository           : /tmp/sb13343/

 SHA1      : b4a5b34a9e711420743f49e6833241d17c61fb3c
 NAME      : 2099.9.b4a5b34
 ARCHNAME  : linux/x86_64_openmp
 FC        : /cm/shared/languages/GCC-6.1/bin/gfortran
 BLASLIB   : -lblas
 id        : simonbennie

 Nodes     nprocs
 node35-048    1

 Using customized tuning parameters: mindgm=1; mindgv=20; mindgc=4; mindgr=1; noblas=0; minvec=7
 default implementation of scratch files=df  

 memory,500,m
 geomtyp=xyz
 nosym
 noorient
 geometry={
 O          0.00000        0.00000        0.00000
 C          0.00000        0.00000        1.40986
 C          1.30431        0.00000       -0.53525
 H         -1.04418        0.00000        1.73410
 H          1.20786        0.00000       -1.62434
 H          0.50101        0.89295        1.81977
 H          1.87373        0.89295       -0.22737
 H          0.50101       -0.89295        1.81977
 H          1.87373       -0.89295       -0.22737
 }
 basis={ default,svp }
 {uks,VS99,direct;wf,26,1,0}
 {ibba,bonds=1}

 Variables initialized (895), CPU time= 0.01 sec
 Commands  initialized (725), CPU time= 0.01 sec, 591 directives.
 Default parameters read. Elapsed time= 1.92 sec

 Checking input...
 Passed
1


                                         ***  PROGRAM SYSTEM MOLPRO  ***
                                       Copyright, TTI GmbH Stuttgart, 2015
                                    Version 2099.9 linked May 26 2017 16:03:21


 **********************************************************************************************************************************
 LABEL *                                                                                 
  64 bit serial version                                                                  DATE: 07-Jun-17          TIME: 16:45:41  
 **********************************************************************************************************************************

 SHA1:             b4a5b34a9e711420743f49e6833241d17c61fb3c
 **********************************************************************************************************************************
 SETTING GEOMTYP        =    XYZ

 Variable memory set to  500000000 words,  buffer space 

 ZSYMEL=NOSYM

 SETTING BASIS          =    SVP


 Recomputing integrals since basis changed


 Using spherical harmonics

 Library entry O      S def2-SVP             selected for orbital group  1
 Library entry O      P def2-SVP             selected for orbital group  1
 Library entry O      D def2-SVP             selected for orbital group  1
 Library entry C      S def2-SVP             selected for orbital group  2
 Library entry C      P def2-SVP             selected for orbital group  2
 Library entry C      D def2-SVP             selected for orbital group  2
 Library entry H      S def2-SVP             selected for orbital group  3
 Library entry H      P def2-SVP             selected for orbital group  3


 PROGRAM * SEWARD (Integral evaluation for generally contracted gaussian basis sets)     Author: Roland Lindh, 1990

 Geometry written to block  1 of record 700


 Point group  C1  



 ATOMIC COORDINATES

 NR  ATOM    CHARGE       X              Y              Z

   1  O       8.00    0.000000000    0.000000000    0.000000000
   2  C       6.00    0.000000000    0.000000000    2.664249274
   3  C       6.00    2.464788682    0.000000000   -1.011475908
   4  H       1.00   -1.973214225    0.000000000    3.276974073
   5  H       1.00    2.282524597    0.000000000   -3.069557733
   6  H       1.00    0.946771686    1.687430943    3.438866910
   7  H       1.00    3.540836531    1.687430943   -0.429667029
   8  H       1.00    0.946771686   -1.687430943    3.438866910
   9  H       1.00    3.540836531   -1.687430943   -0.429667029

 Bond lengths in Bohr (Angstrom)

 1-2  2.664249274  1-3  2.664257262  2-4  2.066157316  2-6  2.084186243  2-8  2.084186243
     ( 1.409860000)     ( 1.409864227)     ( 1.093363366)     ( 1.102903863)     ( 1.102903863)

 3-5  2.066136732  3-7  2.084179391  3-9  2.084179391
     ( 1.093352473)     ( 1.102900237)     ( 1.102900237)

 Bond angles

  1-2-4  107.25067522   1-2-6  111.81829608   1-2-8  111.81829608   1-3-5  107.25086594

  1-3-7  111.81797398   1-3-9  111.81797398   2-1-3  112.31178693   4-2-6  108.88149892

  4-2-8  108.88149892   5-3-7  108.88146655   5-3-9  108.88146655   6-2-8  108.12064679

  7-3-9  108.12116643

 NUCLEAR CHARGE:                   26
 NUMBER OF PRIMITIVE AOS:         117
 NUMBER OF SYMMETRY AOS:          114
 NUMBER OF CONTRACTIONS:           72   (  72A   )
 NUMBER OF CORE ORBITALS:           3   (   3A   )
 NUMBER OF VALENCE ORBITALS:       18   (  18A   )


 NUCLEAR REPULSION ENERGY   83.80024479


 Eigenvalues of metric

         1 0.907E-02 0.130E-01 0.293E-01 0.353E-01 0.441E-01 0.490E-01 0.499E-01 0.601E-01


 Contracted 2-electron integrals neglected if value below      1.0D-11
 AO integral compression algorithm  1   Integral accuracy      1.0D-11

     14.156 MB (compressed) written to integral file ( 45.3%)


 NUMBER OF SORTED TWO-ELECTRON INTEGRALS:    3454506.     BUFFER LENGTH:  32768
 NUMBER OF SEGMENTS:   1  SEGMENT LENGTH:    3454506      RECORD LENGTH: 524288

 Memory used in sort:       4.01 MW

 SORT1 READ     3931143. AND WROTE     2907067. INTEGRALS IN      9 RECORDS. CPU TIME:     0.05 SEC, REAL TIME:     0.14 SEC
 SORT2 READ     2907067. AND WROTE     3454506. INTEGRALS IN     54 RECORDS. CPU TIME:     0.13 SEC, REAL TIME:     0.17 SEC

 FILE SIZES:   FILE 1:    44.4 MBYTE,  FILE 4:    37.8 MBYTE,   TOTAL:     82.2 MBYTE

 OPERATOR DM      FOR CENTER  0  COORDINATES:    0.000000    0.000000    0.000000


 **********************************************************************************************************************************
 DATASETS  * FILE   NREC   LENGTH (MB)   RECORD NAMES
              1      19       42.45       500      610      700      900      950      970     1000      129      960     1100   
                                          VAR    BASINP    GEOM    SYMINP    ZMAT    AOBASIS   BASIS     P2S    ABASIS      S 
                                         1400     1410     1200     1210     1080     1600     1650     1300     1700   
                                           T        V       H0       H01     AOSYM     SMH    MOLCAS    ERIS     OPER   

 PROGRAMS   *        TOTAL       INT
 CPU TIMES  *         1.10      0.94
 REAL TIME  *         4.49 SEC
 DISK USED  *        82.64 MB      
 **********************************************************************************************************************************

 Density functional group VS99=VSXC
 Functional: VSXC(Automatically generated (new) VSXC)                          Gradient terms: 2
 Use grid at  1800.2

 Functional: VSXC                      Factor:  1.0000

 Generated new metagrid on record  1800.2 with target accuracy 1.0D-06 and 33732 points in CPU time    0.9
 Computed new grid on record 1800.1 in CPU time    1.0
  116061 words reserved for DFT integration

 PROGRAM * UKS-SCF (Unrestricted Kohn-Sham)     Authors: W. Meyer, H.-J. Werner, P.J. Knowles, 1993

 NUMBER OF ELECTRONS:      13+   13-    SPACE SYMMETRY=1    SPIN SYMMETRY: Singlet 
 CONVERGENCE THRESHOLDS:    1.00E-05 (Density)    1.00E-06 (Energy)
 MAX. NUMBER OF ITERATIONS:       60
 INTERPOLATION TYPE:            DIIS
 INTERPOLATION STEPS:              2 (START)      1 (STEP)
 LEVEL SHIFTS:                 -0.20 (ALPHA)  -0.20 (BETA) 



 Use fine grid record 1800.2 for energy threshold  1.0D-06
 Orbital guess generated from atomic densities. Full valence occupancy:   13

 Molecular orbital dump at record        2200.2

 Initial alpha occupation  13
 Initial beta  occupation  13

 ITERATION    DDIFF          GRAD             ENERGY        2-EL.EN.            DIPOLE MOMENTS         DIIS
    1      0.000D+00      0.000D+00      -154.26094263    323.196058    0.75390    0.00000    0.50490    0
    2      0.104D-01      0.477D-02      -154.32019024    314.358218    0.36956    0.00000    0.24823    1
    3      0.326D-02      0.221D-02      -154.32970746    316.652918    0.46241    0.00000    0.31054    2
    4      0.117D-02      0.474D-03      -154.33036311    316.405070    0.42713    0.00000    0.28696    3
    5      0.956D-03      0.197D-03      -154.33058866    316.350825    0.41750    0.00000    0.28057    4
    6      0.565D-03      0.662D-04      -154.33063107    316.329793    0.40748    0.00000    0.27387    5
    7      0.124D-03      0.166D-04      -154.33063325    316.327679    0.40747    0.00000    0.27387    6
    8      0.253D-04      0.305D-05      -154.33063333    316.327480    0.40692    0.00000    0.27350    7
    9      0.314D-05      0.588D-06      -154.33063333    316.327587    0.40699    0.00000    0.27355    6
   10      0.727D-06      0.177D-06      -154.33063333    316.327455    0.40697    0.00000    0.27353    6

 Final alpha occupancy:  13
 Final beta  occupancy:  13

 !UKS STATE 1.1 Energy               -154.330633333768
 Nuclear energy                        83.80024479
 One-electron energy                 -375.22558818
 Two-electron energy                  158.16372751
 Density functional                   -21.06901746     VSXC=-21.06901746
 Virial quotient                       -1.00754419
 !UKS STATE 1.1 Dipole moment           0.40696597     0.00000000     0.27353312
 Dipole moment /Debye                   1.03433656     0.00000000     0.69520631

 Orbital energies for positive spin:

         1.1          2.1          3.1          4.1          5.1          6.1          7.1          8.1          9.1         10.1
    -18.828515   -10.002464   -10.002081    -0.963786    -0.662698    -0.576868    -0.428644    -0.415426    -0.413813    -0.344046

        11.1         12.1         13.1         14.1         15.1
     -0.325943    -0.261055    -0.197998     0.055599     0.101313

 Orbital energies for negative spin:

         1.1          2.1          3.1          4.1          5.1          6.1          7.1          8.1          9.1         10.1
    -18.828515   -10.002464   -10.002081    -0.963785    -0.662698    -0.576867    -0.428644    -0.415426    -0.413813    -0.344046

        11.1         12.1         13.1         14.1         15.1
     -0.325943    -0.261054    -0.197997     0.055599     0.101313

 HOMO    -13.1    -0.197997 =      -5.3878eV
 LUMO    -14.1     0.055599 =       1.5129eV
 LUMO-HOMO         0.253596 =       6.9007eV

 EXPECTATION VALUE OF S**2:             0.00000000

 Occupation number threshold for canonical orbitals:  1.999000 (occupied),  0.001000 (virtual)

 Number of pseudo-canonical orbitals per symmetry:   13
 Number of active natural orbitals per symmetry:      0

 Natural orbitals saved to record    2200.2 (Orbital set 3)

 Orbital spaces for UNO-CAS (Min. occupation: 0.020  Max. occupation: 1.980):

 Closed:       13
 Active:        0


 **********************************************************************************************************************************
 DATASETS  * FILE   NREC   LENGTH (MB)   RECORD NAMES
              1      20       43.53       500      610      700      900      950      970     1000      129      960     1100   
                                          VAR    BASINP    GEOM    SYMINP    ZMAT    AOBASIS   BASIS     P2S    ABASIS      S 
                                         1400     1410     1200     1210     1080     1600     1650     1300     1700     1800   
                                           T        V       H0       H01     AOSYM     SMH    MOLCAS    ERIS     OPER     GRID   

              2       5        3.11       700     1000      520     1800     2200   
                                         GEOM     BASIS   MCVARS    GRID      UKS  

 PROGRAMS   *        TOTAL       UKS       INT
 CPU TIMES  *        27.97     26.87      0.94
 REAL TIME  *        39.58 SEC
 DISK USED  *        82.64 MB      
 **********************************************************************************************************************************


 PROGRAM * Intrinsic Basis Bonding Analysis (IBBA)          Author: G. Knizia

 Molecular orbitals read from record     2200.2  Type=UKS/ALPHA (state 1.1)
 Fock matrix read from record            2200.2  Type=UKS/TOTAL (state 1.1)
 Orbital energies read from record       2200.2  Type=UKS/ALPHA (state 1.1)
 Density matrix read from record         2200.2  Type=UKS/CHARGE (state 1.1)

 Number of core orbitals:           3 (   3 )
 Number of closed-shell orbitals:  10 (  10 )

 Basis set MINAO-AUTO-PP generated.      Number of basis functions:   21 

 Polarized AO type:                A = (O Ot + (1-O)(1-Ot)) P12
 Orthogonalization method:         Symmetric (Loewdin)
 Localization functional:          L = sum[A,i] <i|n_A|i>^4 -> max

 Localization group 1:  13 orbitals, occupancy  2.000
 Iterative localization: IB/PM,    7 iter; Final gradient 0.10E-09

 Bond order analysis:       [THRPRINT= 0.020]

   CEN ATOM   CEN ATOM     WIBERG.BO      RENORM.BO
     1   O  -   2   C       0.991510       1.023417
     1   O  -   3   C       0.991493       1.023389
     1   O  -   8   H       0.036892       0.022025
     1   O  -   6   H       0.036892       0.022025
     1   O  -   9   H       0.036849       0.022003
     1   O  -   7   H       0.036849       0.022003

     2   C  -   1   O       0.991510       1.023417
     2   C  -   4   H       0.957044       0.975880
     2   C  -   8   H       0.945938       0.930192
     2   C  -   6   H       0.945938       0.930192

     3   C  -   1   O       0.991493       1.023389
     3   C  -   5   H       0.957064       0.975875
     3   C  -   9   H       0.945949       0.930259
     3   C  -   7   H       0.945949       0.930259

     4   H  -   2   C       0.957044       0.975880

     5   H  -   3   C       0.957064       0.975875

     6   H  -   2   C       0.945938       0.930192
     6   H  -   1   O       0.036892       0.022025

     7   H  -   3   C       0.945949       0.930259
     7   H  -   1   O       0.036849       0.022003

     8   H  -   2   C       0.945938       0.930192
     8   H  -   1   O       0.036892       0.022025

     9   H  -   3   C       0.945949       0.930259
     9   H  -   1   O       0.036849       0.022003


 Valency analysis:

   CEN ATOM   TOT.VALENCE
     1   O       2.142619
     2   C       3.860781
     3   C       3.860801
     4   H       0.977677
     5   H       0.977689
     6   H       0.987999
     7   H       0.987962
     8   H       0.987999
     9   H       0.987962

 Total charge composition:

   CEN ATOM         s          p       ELECTRONS ->P.CHARGE
     1   O       3.59973    4.77578      8.37551   -0.37551
     2   C       3.03149    3.14926      6.18076   -0.18076
     3   C       3.03163    3.14942      6.18105   -0.18105
     4   H       0.85059                 0.85059    0.14941
     5   H       0.85063                 0.85063    0.14937
     6   H       0.89045                 0.89045    0.10955
     7   H       0.89028                 0.89028    0.10972
     8   H       0.89045                 0.89045    0.10955
     9   H       0.89028                 0.89028    0.10972

 Total charge composition, AO contributions:

   CEN ATOM SHL      SPHERICAL COMPONENTS
     1   O  1s       1.99712
     1   O  2s       1.60261
     1   O  2p       1.51671    1.89344    1.36562

     2   C  1s       1.99166
     2   C  2s       1.03983
     2   C  2p       1.18236    1.16415    0.80276

     3   C  1s       1.99166
     3   C  2s       1.03997
     3   C  2p       0.85769    1.16420    1.12754

     4   H  1s       0.85059

     5   H  1s       0.85063

     6   H  1s       0.89045

     7   H  1s       0.89028

     8   H  1s       0.89045

     9   H  1s       0.89028

 Summary of localized orbital composition:   [THRPRINT= 0.020]

   ORB  GRP  ORB.ENERGY      CENTERS/CHARGES
     1   1   -18.679369      O  1   2.000
     2   1    -9.893528      C  2   2.000
     3   1    -9.893124      C  3   2.000
     4   1    -0.705336      O  1   1.259   C  3   0.732
     5   1    -0.705334      O  1   1.259   C  2   0.732
     6   1    -0.489663      O  1   1.960   (other: 0.040)
     7   1    -0.469087      C  2   1.130   H  6   0.868
     8   1    -0.469087      C  2   1.130   H  8   0.868
     9   1    -0.468954      C  3   1.130   H  7   0.868
    10   1    -0.468954      C  3   1.130   H  9   0.868
    11   1    -0.468628      C  2   1.150   H  4   0.843
    12   1    -0.468547      C  3   1.150   H  5   0.843
    13   1    -0.243761      O  1   1.893   C  2   0.022   C  3   0.022   (other: 0.064)

 Localized orbitals saved to record      2200.2  (orbital set 4)


 **********************************************************************************************************************************
 DATASETS  * FILE   NREC   LENGTH (MB)   RECORD NAMES
              1      20       43.53       500      610      700      900      950      970     1000      129      960     1100   
                                          VAR    BASINP    GEOM    SYMINP    ZMAT    AOBASIS   BASIS     P2S    ABASIS      S 
                                         1400     1410     1200     1210     1080     1600     1650     1300     1700     1800   
                                           T        V       H0       H01     AOSYM     SMH    MOLCAS    ERIS     OPER     GRID   

              2       5        3.15       700     1000      520     1800     2200   
                                         GEOM     BASIS   MCVARS    GRID      UKS  

 PROGRAMS   *        TOTAL      IBBA       UKS       INT
 CPU TIMES  *        28.00      0.03     26.87      0.94
 REAL TIME  *        39.66 SEC
 DISK USED  *        82.64 MB      
 **********************************************************************************************************************************
 Molecular orbitals read from record     2200.2  Type=UKS/LOCAL(IBO)  
 Occupation numbers read from record     2200.2  Type=UKS/LOCAL(IBO)  
 Orbital energies read from record       2200.2  Type=UKS/LOCAL(IBO)  
 Redundancy group numbers read from rec  2200.2  Type=UKS/BETA (state 1.1)

 IBBA/SVP energy=      0.000000000000

        UKS-SCF 
   -154.33063333
 **********************************************************************************************************************************
 Molpro calculation terminated
