
 Primary working directories    : /tmp/sb13343
 Secondary working directories  : /tmp/sb13343
 Wavefunction directory         : /panfs/panasas01/chem/sb13343/wfu/
 Main file repository           : /tmp/sb13343/

 SHA1      : b4a5b34a9e711420743f49e6833241d17c61fb3c
 NAME      : 2099.9.b4a5b34
 ARCHNAME  : linux/x86_64_openmp
 FC        : /cm/shared/languages/GCC-6.1/bin/gfortran
 BLASLIB   : -lblas
 id        : simonbennie

 Nodes     nprocs
 node35-048    1

 Using customized tuning parameters: mindgm=1; mindgv=20; mindgc=4; mindgr=1; noblas=0; minvec=7
 default implementation of scratch files=df  

 memory,500,m
 geomtyp=xyz
 nosym
 noorient
 geometry={
 O          0.00000        0.00000        0.00000
 C          0.00000        0.00000        1.40986
 C          1.30431        0.00000       -0.53525
 H         -1.04418        0.00000        1.73410
 H          1.20786        0.00000       -1.62434
 H          0.50101        0.89295        1.81977
 H          1.87373        0.89295       -0.22737
 H          0.50101       -0.89295        1.81977
 H          1.87373       -0.89295       -0.22737
 }
 basis={ default,svp }
 {uks,SOGGA,direct;wf,26,1,0}
 {ibba,bonds=1}

 Variables initialized (895), CPU time= 0.01 sec
 Commands  initialized (725), CPU time= 0.01 sec, 591 directives.
 Default parameters read. Elapsed time= 1.75 sec

 Checking input...
 Passed
1


                                         ***  PROGRAM SYSTEM MOLPRO  ***
                                       Copyright, TTI GmbH Stuttgart, 2015
                                    Version 2099.9 linked May 26 2017 16:03:21


 **********************************************************************************************************************************
 LABEL *                                                                                 
  64 bit serial version                                                                  DATE: 07-Jun-17          TIME: 16:49:24  
 **********************************************************************************************************************************

 SHA1:             b4a5b34a9e711420743f49e6833241d17c61fb3c
 **********************************************************************************************************************************
 SETTING GEOMTYP        =    XYZ

 Variable memory set to  500000000 words,  buffer space 

 ZSYMEL=NOSYM

 SETTING BASIS          =    SVP


 Recomputing integrals since basis changed


 Using spherical harmonics

 Library entry O      S def2-SVP             selected for orbital group  1
 Library entry O      P def2-SVP             selected for orbital group  1
 Library entry O      D def2-SVP             selected for orbital group  1
 Library entry C      S def2-SVP             selected for orbital group  2
 Library entry C      P def2-SVP             selected for orbital group  2
 Library entry C      D def2-SVP             selected for orbital group  2
 Library entry H      S def2-SVP             selected for orbital group  3
 Library entry H      P def2-SVP             selected for orbital group  3


 PROGRAM * SEWARD (Integral evaluation for generally contracted gaussian basis sets)     Author: Roland Lindh, 1990

 Geometry written to block  1 of record 700


 Point group  C1  



 ATOMIC COORDINATES

 NR  ATOM    CHARGE       X              Y              Z

   1  O       8.00    0.000000000    0.000000000    0.000000000
   2  C       6.00    0.000000000    0.000000000    2.664249274
   3  C       6.00    2.464788682    0.000000000   -1.011475908
   4  H       1.00   -1.973214225    0.000000000    3.276974073
   5  H       1.00    2.282524597    0.000000000   -3.069557733
   6  H       1.00    0.946771686    1.687430943    3.438866910
   7  H       1.00    3.540836531    1.687430943   -0.429667029
   8  H       1.00    0.946771686   -1.687430943    3.438866910
   9  H       1.00    3.540836531   -1.687430943   -0.429667029

 Bond lengths in Bohr (Angstrom)

 1-2  2.664249274  1-3  2.664257262  2-4  2.066157316  2-6  2.084186243  2-8  2.084186243
     ( 1.409860000)     ( 1.409864227)     ( 1.093363366)     ( 1.102903863)     ( 1.102903863)

 3-5  2.066136732  3-7  2.084179391  3-9  2.084179391
     ( 1.093352473)     ( 1.102900237)     ( 1.102900237)

 Bond angles

  1-2-4  107.25067522   1-2-6  111.81829608   1-2-8  111.81829608   1-3-5  107.25086594

  1-3-7  111.81797398   1-3-9  111.81797398   2-1-3  112.31178693   4-2-6  108.88149892

  4-2-8  108.88149892   5-3-7  108.88146655   5-3-9  108.88146655   6-2-8  108.12064679

  7-3-9  108.12116643

 NUCLEAR CHARGE:                   26
 NUMBER OF PRIMITIVE AOS:         117
 NUMBER OF SYMMETRY AOS:          114
 NUMBER OF CONTRACTIONS:           72   (  72A   )
 NUMBER OF CORE ORBITALS:           3   (   3A   )
 NUMBER OF VALENCE ORBITALS:       18   (  18A   )


 NUCLEAR REPULSION ENERGY   83.80024479


 Eigenvalues of metric

         1 0.907E-02 0.130E-01 0.293E-01 0.353E-01 0.441E-01 0.490E-01 0.499E-01 0.601E-01


 Contracted 2-electron integrals neglected if value below      1.0D-11
 AO integral compression algorithm  1   Integral accuracy      1.0D-11

     14.156 MB (compressed) written to integral file ( 45.3%)


 NUMBER OF SORTED TWO-ELECTRON INTEGRALS:    3454506.     BUFFER LENGTH:  32768
 NUMBER OF SEGMENTS:   1  SEGMENT LENGTH:    3454506      RECORD LENGTH: 524288

 Memory used in sort:       4.01 MW

 SORT1 READ     3931143. AND WROTE     2907067. INTEGRALS IN      9 RECORDS. CPU TIME:     0.05 SEC, REAL TIME:     0.10 SEC
 SORT2 READ     2907067. AND WROTE     3454506. INTEGRALS IN     54 RECORDS. CPU TIME:     0.12 SEC, REAL TIME:     0.17 SEC

 FILE SIZES:   FILE 1:    44.4 MBYTE,  FILE 4:    37.8 MBYTE,   TOTAL:     82.2 MBYTE

 OPERATOR DM      FOR CENTER  0  COORDINATES:    0.000000    0.000000    0.000000


 **********************************************************************************************************************************
 DATASETS  * FILE   NREC   LENGTH (MB)   RECORD NAMES
              1      19       42.45       500      610      700      900      950      970     1000      129      960     1100   
                                          VAR    BASINP    GEOM    SYMINP    ZMAT    AOBASIS   BASIS     P2S    ABASIS      S 
                                         1400     1410     1200     1210     1080     1600     1650     1300     1700   
                                           T        V       H0       H01     AOSYM     SMH    MOLCAS    ERIS     OPER   

 PROGRAMS   *        TOTAL       INT
 CPU TIMES  *         1.10      0.95
 REAL TIME  *         3.35 SEC
 DISK USED  *        82.64 MB      
 **********************************************************************************************************************************

 Density functional group SOGGA=XC-SOGGA
 Functional: XC-SOGGA(via MFM 1.6)                                             Gradient terms: 1
 Use grid at  1800.2

 Functional: XC-SOGGA                  Factor:  1.0000

 Generated new metagrid on record  1800.2 with target accuracy 1.0D-06 and 33732 points in CPU time    0.9
 Computed new grid on record 1800.1 in CPU time    1.0
   61197 words reserved for DFT integration

 PROGRAM * UKS-SCF (Unrestricted Kohn-Sham)     Authors: W. Meyer, H.-J. Werner, P.J. Knowles, 1993

 NUMBER OF ELECTRONS:      13+   13-    SPACE SYMMETRY=1    SPIN SYMMETRY: Singlet 
 CONVERGENCE THRESHOLDS:    1.00E-05 (Density)    1.00E-06 (Energy)
 MAX. NUMBER OF ITERATIONS:       60
 INTERPOLATION TYPE:            DIIS
 INTERPOLATION STEPS:              2 (START)      1 (STEP)
 LEVEL SHIFTS:                 -0.20 (ALPHA)  -0.20 (BETA) 



 Use fine grid record 1800.2 for energy threshold  1.0D-06
 Orbital guess generated from atomic densities. Full valence occupancy:   13

 Molecular orbital dump at record        2200.2

 Initial alpha occupation  13
 Initial beta  occupation  13

 ITERATION    DDIFF          GRAD             ENERGY        2-EL.EN.            DIPOLE MOMENTS         DIIS
    1      0.000D+00      0.000D+00      -153.84910838    324.787461    0.76788    0.00000    0.51494    0
    2      0.132D-01      0.602D-02      -153.93712708    313.389340    0.35200    0.00000    0.23605    1
    3      0.451D-02      0.303D-02      -153.95591756    316.769737    0.45368    0.00000    0.30423    2
    4      0.124D-02      0.529D-03      -153.95665377    316.432212    0.41283    0.00000    0.27685    3
    5      0.889D-03      0.254D-03      -153.95692545    316.405674    0.40630    0.00000    0.27247    4
    6      0.665D-03      0.807D-04      -153.95698639    316.370934    0.39362    0.00000    0.26396    5
    7      0.152D-03      0.219D-04      -153.95698988    316.369845    0.39352    0.00000    0.26390    6
    8      0.317D-04      0.378D-05      -153.95699001    316.368835    0.39270    0.00000    0.26335    7
    9      0.442D-05      0.892D-06      -153.95699002    316.369087    0.39281    0.00000    0.26343    6
   10      0.123D-05      0.207D-06      -153.95699002    316.369033    0.39278    0.00000    0.26340    6

 Final alpha occupancy:  13
 Final beta  occupancy:  13

 !UKS STATE 1.1 Energy               -153.956990015987
 Nuclear energy                        83.80024479
 One-electron energy                 -375.28057612
 Two-electron energy                  158.18451636
 Density functional                   -20.66117505     XC-SOGGA=-20.66117505
 Virial quotient                       -1.00635828
 !UKS STATE 1.1 Dipole moment           0.39278024     0.00000000     0.26340324
 Dipole moment /Debye                   0.99828240     0.00000000     0.66946040

 Orbital energies for positive spin:

         1.1          2.1          3.1          4.1          5.1          6.1          7.1          8.1          9.1         10.1
    -18.675830    -9.865017    -9.864991    -0.926753    -0.641109    -0.556427    -0.425679    -0.411820    -0.408824    -0.339627

        11.1         12.1         13.1         14.1         15.1
     -0.322900    -0.261070    -0.198698     0.045102     0.092152

 Orbital energies for negative spin:

         1.1          2.1          3.1          4.1          5.1          6.1          7.1          8.1          9.1         10.1
    -18.675830    -9.865016    -9.864990    -0.926752    -0.641108    -0.556427    -0.425679    -0.411820    -0.408824    -0.339627

        11.1         12.1         13.1         14.1         15.1
     -0.322900    -0.261070    -0.198698     0.045102     0.092151

 HOMO    -13.1    -0.198698 =      -5.4068eV
 LUMO    -14.1     0.045102 =       1.2273eV
 LUMO-HOMO         0.243800 =       6.6341eV

 EXPECTATION VALUE OF S**2:             0.00000000

 Occupation number threshold for canonical orbitals:  1.999000 (occupied),  0.001000 (virtual)

 Number of pseudo-canonical orbitals per symmetry:   13
 Number of active natural orbitals per symmetry:      0

 Natural orbitals saved to record    2200.2 (Orbital set 3)

 Orbital spaces for UNO-CAS (Min. occupation: 0.020  Max. occupation: 1.980):

 Closed:       13
 Active:        0


 **********************************************************************************************************************************
 DATASETS  * FILE   NREC   LENGTH (MB)   RECORD NAMES
              1      20       43.53       500      610      700      900      950      970     1000      129      960     1100   
                                          VAR    BASINP    GEOM    SYMINP    ZMAT    AOBASIS   BASIS     P2S    ABASIS      S 
                                         1400     1410     1200     1210     1080     1600     1650     1300     1700     1800   
                                           T        V       H0       H01     AOSYM     SMH    MOLCAS    ERIS     OPER     GRID   

              2       5        3.11       700     1000      520     1800     2200   
                                         GEOM     BASIS   MCVARS    GRID      UKS  

 PROGRAMS   *        TOTAL       UKS       INT
 CPU TIMES  *         8.52      7.42      0.95
 REAL TIME  *        13.48 SEC
 DISK USED  *        82.64 MB      
 **********************************************************************************************************************************


 PROGRAM * Intrinsic Basis Bonding Analysis (IBBA)          Author: G. Knizia

 Molecular orbitals read from record     2200.2  Type=UKS/ALPHA (state 1.1)
 Fock matrix read from record            2200.2  Type=UKS/TOTAL (state 1.1)
 Orbital energies read from record       2200.2  Type=UKS/ALPHA (state 1.1)
 Density matrix read from record         2200.2  Type=UKS/CHARGE (state 1.1)

 Number of core orbitals:           3 (   3 )
 Number of closed-shell orbitals:  10 (  10 )

 Basis set MINAO-AUTO-PP generated.      Number of basis functions:   21 

 Polarized AO type:                A = (O Ot + (1-O)(1-Ot)) P12
 Orthogonalization method:         Symmetric (Loewdin)
 Localization functional:          L = sum[A,i] <i|n_A|i>^4 -> max

 Localization group 1:  13 orbitals, occupancy  2.000
 Iterative localization: IB/PM,    7 iter; Final gradient 0.18E-09

 Bond order analysis:       [THRPRINT= 0.020]

   CEN ATOM   CEN ATOM     WIBERG.BO      RENORM.BO
     1   O  -   2   C       0.999606       1.021927
     1   O  -   3   C       0.999600       1.021925
     1   O  -   8   H       0.037038       0.022323
     1   O  -   6   H       0.037038       0.022323
     1   O  -   9   H       0.037037       0.022322
     1   O  -   7   H       0.037037       0.022322

     2   C  -   1   O       0.999606       1.021927
     2   C  -   4   H       0.953274       0.975862
     2   C  -   8   H       0.943070       0.930724
     2   C  -   6   H       0.943070       0.930724

     3   C  -   1   O       0.999600       1.021925
     3   C  -   5   H       0.953278       0.975862
     3   C  -   9   H       0.943069       0.930727
     3   C  -   7   H       0.943069       0.930727

     4   H  -   2   C       0.953274       0.975862

     5   H  -   3   C       0.953278       0.975862

     6   H  -   2   C       0.943070       0.930724
     6   H  -   1   O       0.037038       0.022323

     7   H  -   3   C       0.943069       0.930727
     7   H  -   1   O       0.037037       0.022322

     8   H  -   2   C       0.943070       0.930724
     8   H  -   1   O       0.037038       0.022323

     9   H  -   3   C       0.943069       0.930727
     9   H  -   1   O       0.037037       0.022322


 Valency analysis:

   CEN ATOM   TOT.VALENCE
     1   O       2.160184
     2   C       3.859976
     3   C       3.859972
     4   H       0.975232
     5   H       0.975236
     6   H       0.985895
     7   H       0.985893
     8   H       0.985895
     9   H       0.985893

 Total charge composition:

   CEN ATOM         s          p       ELECTRONS ->P.CHARGE
     1   O       3.58483    4.75519      8.34002   -0.34002
     2   C       3.02121    3.20369      6.22490   -0.22490
     3   C       3.02121    3.20369      6.22490   -0.22490
     4   H       0.84262                 0.84262    0.15738
     5   H       0.84263                 0.84263    0.15737
     6   H       0.88123                 0.88123    0.11877
     7   H       0.88123                 0.88123    0.11877
     8   H       0.88123                 0.88123    0.11877
     9   H       0.88123                 0.88123    0.11877

 Total charge composition, AO contributions:

   CEN ATOM SHL      SPHERICAL COMPONENTS
     1   O  1s       1.99719
     1   O  2s       1.58764
     1   O  2p       1.50845    1.89350    1.35324

     2   C  1s       1.99222
     2   C  2s       1.02900
     2   C  2p       1.19861    1.18114    0.82394

     3   C  1s       1.99221
     3   C  2s       1.02899
     3   C  2p       0.87815    1.18115    1.14439

     4   H  1s       0.84262

     5   H  1s       0.84263

     6   H  1s       0.88123

     7   H  1s       0.88123

     8   H  1s       0.88123

     9   H  1s       0.88123

 Summary of localized orbital composition:   [THRPRINT= 0.020]

   ORB  GRP  ORB.ENERGY      CENTERS/CHARGES
     1   1   -18.534979      O  1   2.000
     2   1    -9.759658      C  2   2.000
     3   1    -9.759655      C  3   2.000
     4   1    -0.692815      O  1   1.241   C  2   0.751
     5   1    -0.692811      O  1   1.241   C  3   0.751
     6   1    -0.468909      O  1   1.961   (other: 0.039)
     7   1    -0.457861      C  2   1.139   H  6   0.859
     8   1    -0.457861      C  2   1.139   H  8   0.859
     9   1    -0.457860      C  3   1.139   H  7   0.859
    10   1    -0.457860      C  3   1.139   H  9   0.859
    11   1    -0.457360      C  3   1.158   H  5   0.834
    12   1    -0.457355      C  2   1.158   H  4   0.834
    13   1    -0.243773      O  1   1.893   C  2   0.021   C  3   0.021   (other: 0.065)

 Localized orbitals saved to record      2200.2  (orbital set 4)


 **********************************************************************************************************************************
 DATASETS  * FILE   NREC   LENGTH (MB)   RECORD NAMES
              1      20       43.53       500      610      700      900      950      970     1000      129      960     1100   
                                          VAR    BASINP    GEOM    SYMINP    ZMAT    AOBASIS   BASIS     P2S    ABASIS      S 
                                         1400     1410     1200     1210     1080     1600     1650     1300     1700     1800   
                                           T        V       H0       H01     AOSYM     SMH    MOLCAS    ERIS     OPER     GRID   

              2       5        3.15       700     1000      520     1800     2200   
                                         GEOM     BASIS   MCVARS    GRID      UKS  

 PROGRAMS   *        TOTAL      IBBA       UKS       INT
 CPU TIMES  *         8.55      0.03      7.42      0.95
 REAL TIME  *        14.06 SEC
 DISK USED  *        82.64 MB      
 **********************************************************************************************************************************
 Molecular orbitals read from record     2200.2  Type=UKS/LOCAL(IBO)  
 Occupation numbers read from record     2200.2  Type=UKS/LOCAL(IBO)  
 Orbital energies read from record       2200.2  Type=UKS/LOCAL(IBO)  
 Redundancy group numbers read from rec  2200.2  Type=UKS/BETA (state 1.1)

 IBBA/SVP energy=      0.000000000000

        UKS-SCF 
   -153.95699002
 **********************************************************************************************************************************
 Molpro calculation terminated
