
 Primary working directories    : /tmp/sb13343
 Secondary working directories  : /tmp/sb13343
 Wavefunction directory         : /panfs/panasas01/chem/sb13343/wfu/
 Main file repository           : /tmp/sb13343/

 SHA1      : b4a5b34a9e711420743f49e6833241d17c61fb3c
 NAME      : 2099.9.b4a5b34
 ARCHNAME  : linux/x86_64_openmp
 FC        : /cm/shared/languages/GCC-6.1/bin/gfortran
 BLASLIB   : -lblas
 id        : simonbennie

 Nodes     nprocs
 node32-036    1

 Using customized tuning parameters: mindgm=1; mindgv=20; mindgc=4; mindgr=1; noblas=0; minvec=7
 default implementation of scratch files=df  

 memory,500,m
 geomtyp=xyz
 nosym
 noorient
 geometry={
 O          0.00000        0.00000        0.00000
 C          0.00000        0.00000        1.40986
 C          1.30431        0.00000       -0.53525
 H         -1.04418        0.00000        1.73410
 H          1.20786        0.00000       -1.62434
 H          0.50101        0.89295        1.81977
 H          1.87373        0.89295       -0.22737
 H          0.50101       -0.89295        1.81977
 H          1.87373       -0.89295       -0.22737
 }
 basis={ default,svp }
 {ks,MM05,direct;wf,26,1,0}
 {ibba,bonds=1}

 Variables initialized (895), CPU time= 0.01 sec
 Commands  initialized (725), CPU time= 0.01 sec, 591 directives.
 Default parameters read. Elapsed time= 1.10 sec

 Checking input...
 Passed
1


                                         ***  PROGRAM SYSTEM MOLPRO  ***
                                       Copyright, TTI GmbH Stuttgart, 2015
                                    Version 2099.9 linked May 26 2017 16:03:21


 **********************************************************************************************************************************
 LABEL *                                                                                 
  64 bit serial version                                                                  DATE: 07-Jun-17          TIME: 16:06:43  
 **********************************************************************************************************************************

 SHA1:             b4a5b34a9e711420743f49e6833241d17c61fb3c
 **********************************************************************************************************************************
 SETTING GEOMTYP        =    XYZ

 Variable memory set to  500000000 words,  buffer space 

 ZSYMEL=NOSYM

 SETTING BASIS          =    SVP


 Recomputing integrals since basis changed


 Using spherical harmonics

 Library entry O      S def2-SVP             selected for orbital group  1
 Library entry O      P def2-SVP             selected for orbital group  1
 Library entry O      D def2-SVP             selected for orbital group  1
 Library entry C      S def2-SVP             selected for orbital group  2
 Library entry C      P def2-SVP             selected for orbital group  2
 Library entry C      D def2-SVP             selected for orbital group  2
 Library entry H      S def2-SVP             selected for orbital group  3
 Library entry H      P def2-SVP             selected for orbital group  3


 PROGRAM * SEWARD (Integral evaluation for generally contracted gaussian basis sets)     Author: Roland Lindh, 1990

 Geometry written to block  1 of record 700


 Point group  C1  



 ATOMIC COORDINATES

 NR  ATOM    CHARGE       X              Y              Z

   1  O       8.00    0.000000000    0.000000000    0.000000000
   2  C       6.00    0.000000000    0.000000000    2.664249274
   3  C       6.00    2.464788682    0.000000000   -1.011475908
   4  H       1.00   -1.973214225    0.000000000    3.276974073
   5  H       1.00    2.282524597    0.000000000   -3.069557733
   6  H       1.00    0.946771686    1.687430943    3.438866910
   7  H       1.00    3.540836531    1.687430943   -0.429667029
   8  H       1.00    0.946771686   -1.687430943    3.438866910
   9  H       1.00    3.540836531   -1.687430943   -0.429667029

 Bond lengths in Bohr (Angstrom)

 1-2  2.664249274  1-3  2.664257262  2-4  2.066157316  2-6  2.084186243  2-8  2.084186243
     ( 1.409860000)     ( 1.409864227)     ( 1.093363366)     ( 1.102903863)     ( 1.102903863)

 3-5  2.066136732  3-7  2.084179391  3-9  2.084179391
     ( 1.093352473)     ( 1.102900237)     ( 1.102900237)

 Bond angles

  1-2-4  107.25067522   1-2-6  111.81829608   1-2-8  111.81829608   1-3-5  107.25086594

  1-3-7  111.81797398   1-3-9  111.81797398   2-1-3  112.31178693   4-2-6  108.88149892

  4-2-8  108.88149892   5-3-7  108.88146655   5-3-9  108.88146655   6-2-8  108.12064679

  7-3-9  108.12116643

 NUCLEAR CHARGE:                   26
 NUMBER OF PRIMITIVE AOS:         117
 NUMBER OF SYMMETRY AOS:          114
 NUMBER OF CONTRACTIONS:           72   (  72A   )
 NUMBER OF CORE ORBITALS:           3   (   3A   )
 NUMBER OF VALENCE ORBITALS:       18   (  18A   )


 NUCLEAR REPULSION ENERGY   83.80024479


 Eigenvalues of metric

         1 0.907E-02 0.130E-01 0.293E-01 0.353E-01 0.441E-01 0.490E-01 0.499E-01 0.601E-01


 Contracted 2-electron integrals neglected if value below      1.0D-11
 AO integral compression algorithm  1   Integral accuracy      1.0D-11

     14.156 MB (compressed) written to integral file ( 45.3%)


 NUMBER OF SORTED TWO-ELECTRON INTEGRALS:    3454506.     BUFFER LENGTH:  32768
 NUMBER OF SEGMENTS:   1  SEGMENT LENGTH:    3454506      RECORD LENGTH: 524288

 Memory used in sort:       4.01 MW

 SORT1 READ     3931143. AND WROTE     2907067. INTEGRALS IN      9 RECORDS. CPU TIME:     0.05 SEC, REAL TIME:     0.09 SEC
 SORT2 READ     2907067. AND WROTE     3454506. INTEGRALS IN     54 RECORDS. CPU TIME:     0.11 SEC, REAL TIME:     0.14 SEC

 FILE SIZES:   FILE 1:    44.4 MBYTE,  FILE 4:    37.8 MBYTE,   TOTAL:     82.2 MBYTE

 OPERATOR DM      FOR CENTER  0  COORDINATES:    0.000000    0.000000    0.000000


 **********************************************************************************************************************************
 DATASETS  * FILE   NREC   LENGTH (MB)   RECORD NAMES
              1      19       42.45       500      610      700      900      950      970     1000      129      960     1100   
                                          VAR    BASINP    GEOM    SYMINP    ZMAT    AOBASIS   BASIS     P2S    ABASIS      S 
                                         1400     1410     1200     1210     1080     1600     1650     1300     1700   
                                           T        V       H0       H01     AOSYM     SMH    MOLCAS    ERIS     OPER   

 PROGRAMS   *        TOTAL       INT
 CPU TIMES  *         0.87      0.73
 REAL TIME  *         2.73 SEC
 DISK USED  *        82.64 MB      
 **********************************************************************************************************************************

 Density functional group MM05=M05X+M05C
 Functional: M05X(Automatically generated (new) M05X)                          Gradient terms: 2
 Functional: M05C(Automatically generated (new) M05C)                          Gradient terms: 2
 Use grid at  1800.2


 Exact exchange will be calculated, factor:  0.2800

 Functional: M05X                      Factor:  0.7200
 Functional: M05C                      Factor:  1.0000

 Generated new metagrid on record  1800.2 with target accuracy 1.0D-06 and 33732 points in CPU time    0.9
 Computed new grid on record 1800.1 in CPU time    1.0
  116061 words reserved for DFT integration

 PROGRAM * RKS-SCF (Restricted closed shell Kohn-Sham)     Authors: W. Meyer, H.-J. Werner, P.J. Knowles, 1993

 NUMBER OF ELECTRONS:      13+   13-    SPACE SYMMETRY=1    SPIN SYMMETRY: Singlet 
 CONVERGENCE THRESHOLDS:    1.00E-05 (Density)    1.00E-06 (Energy)
 MAX. NUMBER OF ITERATIONS:       60
 INTERPOLATION TYPE:            DIIS
 INTERPOLATION STEPS:              2 (START)      1 (STEP)
 LEVEL SHIFTS:                  0.00 (CLOSED)  0.00 (OPEN) 



 Use fine grid record 1800.2 for energy threshold  1.0D-06
 Orbital guess generated from atomic densities. Full valence occupancy:   13

 Molecular orbital dump at record        2100.2

 Initial occupancy:  13

 ITERATION    DDIFF          GRAD             ENERGY        2-EL.EN.            DIPOLE MOMENTS         DIIS   ORB.
    1      0.000D+00      0.000D+00      -154.73006464    311.583948    0.79880    0.00000    0.53558    0    start
    2      0.000D+00      0.890D-02      -154.71689717    297.882819   -0.04875    0.00000   -0.03400    1    diag
    3      0.193D-01      0.106D-01      -154.79655617    305.396331    0.46692    0.00000    0.31435    2    diag
    4      0.105D-01      0.147D-02      -154.79768073    305.225228    0.41791    0.00000    0.28191    3    diag
    5      0.116D-02      0.501D-03      -154.79782760    305.191774    0.43001    0.00000    0.29009    4    diag
    6      0.368D-03      0.775D-04      -154.79783169    305.217333    0.42820    0.00000    0.28888    5    diag
    7      0.673D-04      0.699D-05      -154.79783173    305.217957    0.42902    0.00000    0.28943    6    diag
    8      0.799D-05      0.150D-05      -154.79783173    305.217652    0.42875    0.00000    0.28924    0    orth

 Final occupancy:  13

 !RKS STATE 1.1 Energy               -154.797831727817
 Nuclear energy                        83.80024479
 One-electron energy                 -375.44349869
 Two-electron energy                  152.60882605
 SCF exchange energy                  -20.69320182     Factor= 0.2800
 Density functional                   -15.76340388     M05X=-20.72426493 M05C= -0.84193313
 Virial quotient                       -1.00902737
 !RKS STATE 1.1 Dipole moment           0.42874608     0.00000000     0.28923716
 Dipole moment /Debye                   1.08969246     0.00000000     0.73511938

 Orbital energies:

         1.1          2.1          3.1          4.1          5.1          6.1          7.1          8.1          9.1         10.1
    -19.174631   -10.260752   -10.260636    -1.045753    -0.731817    -0.645505    -0.489016    -0.481591    -0.480584    -0.403986

        11.1         12.1         13.1         14.1         15.1
     -0.385509    -0.328431    -0.267123     0.065837     0.110554

 HOMO     13.1    -0.267123 =      -7.2688eV
 LUMO     14.1     0.065837 =       1.7915eV
 LUMO-HOMO         0.332960 =       9.0603eV


 **********************************************************************************************************************************
 DATASETS  * FILE   NREC   LENGTH (MB)   RECORD NAMES
              1      20       43.53       500      610      700      900      950      970     1000      129      960     1100   
                                          VAR    BASINP    GEOM    SYMINP    ZMAT    AOBASIS   BASIS     P2S    ABASIS      S 
                                         1400     1410     1200     1210     1080     1600     1650     1300     1700     1800   
                                           T        V       H0       H01     AOSYM     SMH    MOLCAS    ERIS     OPER     GRID   

              2       5        3.00       700     1000      520     1800     2100   
                                         GEOM     BASIS   MCVARS    GRID      RKS  

 PROGRAMS   *        TOTAL        KS       INT
 CPU TIMES  *        12.56     11.68      0.73
 REAL TIME  *        14.68 SEC
 DISK USED  *        82.64 MB      
 **********************************************************************************************************************************


 PROGRAM * Intrinsic Basis Bonding Analysis (IBBA)          Author: G. Knizia

 Molecular orbitals read from record     2100.2  Type=RKS/CANONICAL (state 1.1)
 Fock matrix read from record            2100.2  Type=RKS/TOTAL (state 1.1)
 Orbital energies read from record       2100.2  Type=RKS/CANONICAL (state 1.1)
 Density matrix read from record         2100.2  Type=RKS/CHARGE (state 1.1)

 Number of core orbitals:           3 (   3 )
 Number of closed-shell orbitals:  10 (  10 )

 Basis set MINAO-AUTO-PP generated.      Number of basis functions:   21 

 Polarized AO type:                A = (O Ot + (1-O)(1-Ot)) P12
 Orthogonalization method:         Symmetric (Loewdin)
 Localization functional:          L = sum[A,i] <i|n_A|i>^4 -> max

 Localization group 1:  13 orbitals, occupancy  2.000
 Iterative localization: IB/PM,    7 iter; Final gradient 0.11E-09

 Bond order analysis:       [THRPRINT= 0.020]

   CEN ATOM   CEN ATOM     WIBERG.BO      RENORM.BO
     1   O  -   2   C       0.986708       1.021059
     1   O  -   3   C       0.986682       1.021037
     1   O  -   8   H       0.034083       0.020286
     1   O  -   6   H       0.034083       0.020286
     1   O  -   9   H       0.033989       0.020232
     1   O  -   7   H       0.033989       0.020232

     2   C  -   1   O       0.986708       1.021059
     2   C  -   4   H       0.958381       0.977520
     2   C  -   8   H       0.949052       0.936110
     2   C  -   6   H       0.949052       0.936110

     3   C  -   1   O       0.986682       1.021037
     3   C  -   5   H       0.958560       0.977490
     3   C  -   9   H       0.949123       0.936268
     3   C  -   7   H       0.949123       0.936268

     4   H  -   2   C       0.958381       0.977520

     5   H  -   3   C       0.958560       0.977490

     6   H  -   2   C       0.949052       0.936110
     6   H  -   1   O       0.034083       0.020286

     7   H  -   3   C       0.949123       0.936268
     7   H  -   1   O       0.033989       0.020232

     8   H  -   2   C       0.949052       0.936110
     8   H  -   1   O       0.034083       0.020286

     9   H  -   3   C       0.949123       0.936268
     9   H  -   1   O       0.033989       0.020232


 Valency analysis:

   CEN ATOM   TOT.VALENCE
     1   O       2.121174
     2   C       3.861918
     3   C       3.862191
     4   H       0.978136
     5   H       0.978328
     6   H       0.987710
     7   H       0.987685
     8   H       0.987710
     9   H       0.987685

 Total charge composition:

   CEN ATOM         s          p       ELECTRONS ->P.CHARGE
     1   O       3.59249    4.79397      8.38646   -0.38646
     2   C       3.02319    3.15319      6.17638   -0.17638
     3   C       3.02302    3.15290      6.17591   -0.17591
     4   H       0.85214                 0.85214    0.14786
     5   H       0.85278                 0.85278    0.14722
     6   H       0.88914                 0.88914    0.11086
     7   H       0.88903                 0.88903    0.11097
     8   H       0.88914                 0.88914    0.11086
     9   H       0.88903                 0.88903    0.11097

 Total charge composition, AO contributions:

   CEN ATOM SHL      SPHERICAL COMPONENTS
     1   O  1s       1.99701
     1   O  2s       1.59548
     1   O  2p       1.52287    1.90295    1.36815

     2   C  1s       1.99155
     2   C  2s       1.03163
     2   C  2p       1.18404    1.16465    0.80451

     3   C  1s       1.99155
     3   C  2s       1.03147
     3   C  2p       0.85994    1.16467    1.12828

     4   H  1s       0.85214

     5   H  1s       0.85278

     6   H  1s       0.88914

     7   H  1s       0.88903

     8   H  1s       0.88914

     9   H  1s       0.88903

 Summary of localized orbital composition:   [THRPRINT= 0.020]

   ORB  GRP  ORB.ENERGY      CENTERS/CHARGES
     1   1   -19.021485      O  1   2.000
     2   1   -10.150513      C  2   2.000
     3   1   -10.150401      C  3   2.000
     4   1    -0.777211      O  1   1.259   C  3   0.733
     5   1    -0.777151      O  1   1.259   C  2   0.733
     6   1    -0.570327      O  1   1.963   (other: 0.037)
     7   1    -0.531612      C  3   1.130   H  7   0.869
     8   1    -0.531612      C  3   1.130   H  9   0.869
     9   1    -0.531545      C  2   1.130   H  6   0.869
    10   1    -0.531545      C  2   1.130   H  8   0.869
    11   1    -0.531362      C  2   1.149   H  4   0.845
    12   1    -0.530971      C  3   1.148   H  5   0.846
    13   1    -0.319601      O  1   1.903   (other: 0.097)

 Localized orbitals saved to record      2100.2  (orbital set 2)


 **********************************************************************************************************************************
 DATASETS  * FILE   NREC   LENGTH (MB)   RECORD NAMES
              1      20       43.53       500      610      700      900      950      970     1000      129      960     1100   
                                          VAR    BASINP    GEOM    SYMINP    ZMAT    AOBASIS   BASIS     P2S    ABASIS      S 
                                         1400     1410     1200     1210     1080     1600     1650     1300     1700     1800   
                                           T        V       H0       H01     AOSYM     SMH    MOLCAS    ERIS     OPER     GRID   

              2       5        3.04       700     1000      520     1800     2100   
                                         GEOM     BASIS   MCVARS    GRID      RKS  

 PROGRAMS   *        TOTAL      IBBA        KS       INT
 CPU TIMES  *        12.59      0.03     11.68      0.73
 REAL TIME  *        14.77 SEC
 DISK USED  *        82.64 MB      
 **********************************************************************************************************************************
 Molecular orbitals read from record     2100.2  Type=RKS/LOCAL(IBO)  
 Occupation numbers read from record     2100.2  Type=RKS/LOCAL(IBO)  
 Orbital energies read from record       2100.2  Type=RKS/LOCAL(IBO)  
 Redundancy group numbers read from rec  2100.2  Type=RKS/LOCAL(IBO)  

 IBBA/SVP energy=      0.000000000000

        KS-SCF  
   -154.79783173
 **********************************************************************************************************************************
 Molpro calculation terminated
