
 Primary working directories    : /tmp/sb13343
 Secondary working directories  : /tmp/sb13343
 Wavefunction directory         : /panfs/panasas01/chem/sb13343/wfu/
 Main file repository           : /tmp/sb13343/

 SHA1      : b4a5b34a9e711420743f49e6833241d17c61fb3c
 NAME      : 2099.9.b4a5b34
 ARCHNAME  : linux/x86_64_openmp
 FC        : /cm/shared/languages/GCC-6.1/bin/gfortran
 BLASLIB   : -lblas
 id        : simonbennie

 Nodes     nprocs
 node32-013    1

 Using customized tuning parameters: mindgm=1; mindgv=20; mindgc=4; mindgr=1; noblas=0; minvec=7
 default implementation of scratch files=df  

 memory,500,m
 geomtyp=xyz
 nosym
 noorient
 geometry={
 O          0.00000        0.00000        0.00000
 C          0.00000        0.00000        1.40986
 C          1.30431        0.00000       -0.53525
 H         -1.04418        0.00000        1.73410
 H          1.20786        0.00000       -1.62434
 H          0.50101        0.89295        1.81977
 H          1.87373        0.89295       -0.22737
 H          0.50101       -0.89295        1.81977
 H          1.87373       -0.89295       -0.22737
 }
 basis={ default,svp }
 {ks,B-P,direct;wf,26,1,0}
 {ibba,bonds=1}

 Variables initialized (895), CPU time= 0.01 sec
 Commands  initialized (725), CPU time= 0.01 sec, 591 directives.
 Default parameters read. Elapsed time= 1.28 sec

 Checking input...
 Passed
1


                                         ***  PROGRAM SYSTEM MOLPRO  ***
                                       Copyright, TTI GmbH Stuttgart, 2015
                                    Version 2099.9 linked May 26 2017 16:03:21


 **********************************************************************************************************************************
 LABEL *                                                                                 
  64 bit serial version                                                                  DATE: 07-Jun-17          TIME: 16:33:55  
 **********************************************************************************************************************************

 SHA1:             b4a5b34a9e711420743f49e6833241d17c61fb3c
 **********************************************************************************************************************************
 SETTING GEOMTYP        =    XYZ

 Variable memory set to  500000000 words,  buffer space 

 ZSYMEL=NOSYM

 SETTING BASIS          =    SVP


 Recomputing integrals since basis changed


 Using spherical harmonics

 Library entry O      S def2-SVP             selected for orbital group  1
 Library entry O      P def2-SVP             selected for orbital group  1
 Library entry O      D def2-SVP             selected for orbital group  1
 Library entry C      S def2-SVP             selected for orbital group  2
 Library entry C      P def2-SVP             selected for orbital group  2
 Library entry C      D def2-SVP             selected for orbital group  2
 Library entry H      S def2-SVP             selected for orbital group  3
 Library entry H      P def2-SVP             selected for orbital group  3


 PROGRAM * SEWARD (Integral evaluation for generally contracted gaussian basis sets)     Author: Roland Lindh, 1990

 Geometry written to block  1 of record 700


 Point group  C1  



 ATOMIC COORDINATES

 NR  ATOM    CHARGE       X              Y              Z

   1  O       8.00    0.000000000    0.000000000    0.000000000
   2  C       6.00    0.000000000    0.000000000    2.664249274
   3  C       6.00    2.464788682    0.000000000   -1.011475908
   4  H       1.00   -1.973214225    0.000000000    3.276974073
   5  H       1.00    2.282524597    0.000000000   -3.069557733
   6  H       1.00    0.946771686    1.687430943    3.438866910
   7  H       1.00    3.540836531    1.687430943   -0.429667029
   8  H       1.00    0.946771686   -1.687430943    3.438866910
   9  H       1.00    3.540836531   -1.687430943   -0.429667029

 Bond lengths in Bohr (Angstrom)

 1-2  2.664249274  1-3  2.664257262  2-4  2.066157316  2-6  2.084186243  2-8  2.084186243
     ( 1.409860000)     ( 1.409864227)     ( 1.093363366)     ( 1.102903863)     ( 1.102903863)

 3-5  2.066136732  3-7  2.084179391  3-9  2.084179391
     ( 1.093352473)     ( 1.102900237)     ( 1.102900237)

 Bond angles

  1-2-4  107.25067522   1-2-6  111.81829608   1-2-8  111.81829608   1-3-5  107.25086594

  1-3-7  111.81797398   1-3-9  111.81797398   2-1-3  112.31178693   4-2-6  108.88149892

  4-2-8  108.88149892   5-3-7  108.88146655   5-3-9  108.88146655   6-2-8  108.12064679

  7-3-9  108.12116643

 NUCLEAR CHARGE:                   26
 NUMBER OF PRIMITIVE AOS:         117
 NUMBER OF SYMMETRY AOS:          114
 NUMBER OF CONTRACTIONS:           72   (  72A   )
 NUMBER OF CORE ORBITALS:           3   (   3A   )
 NUMBER OF VALENCE ORBITALS:       18   (  18A   )


 NUCLEAR REPULSION ENERGY   83.80024479


 Eigenvalues of metric

         1 0.907E-02 0.130E-01 0.293E-01 0.353E-01 0.441E-01 0.490E-01 0.499E-01 0.601E-01


 Contracted 2-electron integrals neglected if value below      1.0D-11
 AO integral compression algorithm  1   Integral accuracy      1.0D-11

     14.156 MB (compressed) written to integral file ( 45.3%)


 NUMBER OF SORTED TWO-ELECTRON INTEGRALS:    3454506.     BUFFER LENGTH:  32768
 NUMBER OF SEGMENTS:   1  SEGMENT LENGTH:    3454506      RECORD LENGTH: 524288

 Memory used in sort:       4.01 MW

 SORT1 READ     3931143. AND WROTE     2907067. INTEGRALS IN      9 RECORDS. CPU TIME:     0.04 SEC, REAL TIME:     0.07 SEC
 SORT2 READ     2907067. AND WROTE     3454506. INTEGRALS IN     54 RECORDS. CPU TIME:     0.11 SEC, REAL TIME:     0.13 SEC

 FILE SIZES:   FILE 1:    44.4 MBYTE,  FILE 4:    37.8 MBYTE,   TOTAL:     82.2 MBYTE

 OPERATOR DM      FOR CENTER  0  COORDINATES:    0.000000    0.000000    0.000000


 **********************************************************************************************************************************
 DATASETS  * FILE   NREC   LENGTH (MB)   RECORD NAMES
              1      19       42.45       500      610      700      900      950      970     1000      129      960     1100   
                                          VAR    BASINP    GEOM    SYMINP    ZMAT    AOBASIS   BASIS     P2S    ABASIS      S 
                                         1400     1410     1200     1210     1080     1600     1650     1300     1700   
                                           T        V       H0       H01     AOSYM     SMH    MOLCAS    ERIS     OPER   

 PROGRAMS   *        TOTAL       INT
 CPU TIMES  *         0.85      0.71
 REAL TIME  *         2.46 SEC
 DISK USED  *        82.64 MB      
 **********************************************************************************************************************************

 Density functional group B-P=B88+P86
 Functional: B88(Automatically generated (new) B88)                            Gradient terms: 1
 Functional: P86(Automatically generated (new) P86)                            Gradient terms: 1
 Use grid at  1800.2

 Functional: B88                       Factor:  1.0000
 Functional: P86                       Factor:  1.0000

 Generated new metagrid on record  1800.2 with target accuracy 1.0D-06 and 33732 points in CPU time    0.9
 Computed new grid on record 1800.1 in CPU time    0.9
   61197 words reserved for DFT integration

 PROGRAM * RKS-SCF (Restricted closed shell Kohn-Sham)     Authors: W. Meyer, H.-J. Werner, P.J. Knowles, 1993

 NUMBER OF ELECTRONS:      13+   13-    SPACE SYMMETRY=1    SPIN SYMMETRY: Singlet 
 CONVERGENCE THRESHOLDS:    1.00E-05 (Density)    1.00E-06 (Energy)
 MAX. NUMBER OF ITERATIONS:       60
 INTERPOLATION TYPE:            DIIS
 INTERPOLATION STEPS:              2 (START)      1 (STEP)
 LEVEL SHIFTS:                  0.00 (CLOSED)  0.00 (OPEN) 



 Use fine grid record 1800.2 for energy threshold  1.0D-06
 Orbital guess generated from atomic densities. Full valence occupancy:   13

 Molecular orbital dump at record        2100.2

 Initial occupancy:  13

 ITERATION    DDIFF          GRAD             ENERGY        2-EL.EN.            DIPOLE MOMENTS         DIIS   ORB.
    1      0.000D+00      0.000D+00      -154.79892629    325.373360    0.77649    0.00000    0.52070    0    start
    2      0.000D+00      0.115D-01      -154.67093764    303.570255   -0.42715    0.00000   -0.28638    1    diag
    3      0.305D-01      0.175D-01      -154.90667726    317.280158    0.50760    0.00000    0.34040    2    diag
    4      0.208D-01      0.287D-02      -154.91119670    316.738287    0.37903    0.00000    0.25419    3    diag
    5      0.230D-02      0.876D-03      -154.91165519    316.628730    0.39118    0.00000    0.26234    4    diag
    6      0.626D-03      0.112D-03      -154.91166345    316.653301    0.38790    0.00000    0.26013    5    diag
    7      0.864D-04      0.171D-04      -154.91166370    316.661371    0.39020    0.00000    0.26168    6    diag
    8      0.210D-04      0.363D-05      -154.91166371    316.662475    0.38983    0.00000    0.26143    7    diag
    9      0.362D-05      0.267D-06      -154.91166371    316.662631    0.38984    0.00000    0.26144    0    orth

 Final occupancy:  13

 !RKS STATE 1.1 Energy               -154.911663709626
 Nuclear energy                        83.80024479
 One-electron energy                 -375.38912489
 Two-electron energy                  158.33131574
 Density functional                   -21.65409935     B88=-20.72412032 P86= -0.92997903
 Virial quotient                       -1.01035342
 !RKS STATE 1.1 Dipole moment           0.38983935     0.00000000     0.26143613
 Dipole moment /Debye                   0.99080789     0.00000000     0.66446085

 Orbital energies:

         1.1          2.1          3.1          4.1          5.1          6.1          7.1          8.1          9.1         10.1
    -18.774983    -9.950692    -9.950671    -0.934366    -0.649164    -0.566844    -0.432026    -0.419434    -0.416841    -0.350001

        11.1         12.1         13.1         14.1         15.1
     -0.333409    -0.270113    -0.208392     0.042037     0.088438

 HOMO     13.1    -0.208392 =      -5.6706eV
 LUMO     14.1     0.042037 =       1.1439eV
 LUMO-HOMO         0.250429 =       6.8145eV


 **********************************************************************************************************************************
 DATASETS  * FILE   NREC   LENGTH (MB)   RECORD NAMES
              1      20       43.53       500      610      700      900      950      970     1000      129      960     1100   
                                          VAR    BASINP    GEOM    SYMINP    ZMAT    AOBASIS   BASIS     P2S    ABASIS      S 
                                         1400     1410     1200     1210     1080     1600     1650     1300     1700     1800   
                                           T        V       H0       H01     AOSYM     SMH    MOLCAS    ERIS     OPER     GRID   

              2       5        3.00       700     1000      520     1800     2100   
                                         GEOM     BASIS   MCVARS    GRID      RKS  

 PROGRAMS   *        TOTAL        KS       INT
 CPU TIMES  *         5.04      4.19      0.71
 REAL TIME  *         7.10 SEC
 DISK USED  *        82.64 MB      
 **********************************************************************************************************************************


 PROGRAM * Intrinsic Basis Bonding Analysis (IBBA)          Author: G. Knizia

 Molecular orbitals read from record     2100.2  Type=RKS/CANONICAL (state 1.1)
 Fock matrix read from record            2100.2  Type=RKS/TOTAL (state 1.1)
 Orbital energies read from record       2100.2  Type=RKS/CANONICAL (state 1.1)
 Density matrix read from record         2100.2  Type=RKS/CHARGE (state 1.1)

 Number of core orbitals:           3 (   3 )
 Number of closed-shell orbitals:  10 (  10 )

 Basis set MINAO-AUTO-PP generated.      Number of basis functions:   21 

 Polarized AO type:                A = (O Ot + (1-O)(1-Ot)) P12
 Orthogonalization method:         Symmetric (Loewdin)
 Localization functional:          L = sum[A,i] <i|n_A|i>^4 -> max

 Localization group 1:  13 orbitals, occupancy  2.000
 Iterative localization: IB/PM,    7 iter; Final gradient 0.12E-09

 Bond order analysis:       [THRPRINT= 0.020]

   CEN ATOM   CEN ATOM     WIBERG.BO      RENORM.BO
     1   O  -   2   C       0.997004       1.022370
     1   O  -   3   C       0.997002       1.022369
     1   O  -   8   H       0.036452       0.021781
     1   O  -   6   H       0.036452       0.021781
     1   O  -   9   H       0.036451       0.021780
     1   O  -   7   H       0.036451       0.021780

     2   C  -   1   O       0.997004       1.022370
     2   C  -   4   H       0.956433       0.976347
     2   C  -   8   H       0.945854       0.931601
     2   C  -   6   H       0.945854       0.931601

     3   C  -   1   O       0.997002       1.022369
     3   C  -   5   H       0.956437       0.976347
     3   C  -   9   H       0.945854       0.931602
     3   C  -   7   H       0.945854       0.931602

     4   H  -   2   C       0.956433       0.976347

     5   H  -   3   C       0.956437       0.976347

     6   H  -   2   C       0.945854       0.931601
     6   H  -   1   O       0.036452       0.021781

     7   H  -   3   C       0.945854       0.931602
     7   H  -   1   O       0.036451       0.021780

     8   H  -   2   C       0.945854       0.931601
     8   H  -   1   O       0.036452       0.021781

     9   H  -   3   C       0.945854       0.931602
     9   H  -   1   O       0.036451       0.021780


 Valency analysis:

   CEN ATOM   TOT.VALENCE
     1   O       2.152147
     2   C       3.865470
     3   C       3.865472
     4   H       0.977519
     5   H       0.977522
     6   H       0.987595
     7   H       0.987594
     8   H       0.987595
     9   H       0.987594

 Total charge composition:

   CEN ATOM         s          p       ELECTRONS ->P.CHARGE
     1   O       3.59025    4.76113      8.35138   -0.35138
     2   C       3.02135    3.17565      6.19700   -0.19700
     3   C       3.02135    3.17564      6.19699   -0.19699
     4   H       0.85006                 0.85006    0.14994
     5   H       0.85007                 0.85007    0.14993
     6   H       0.88862                 0.88862    0.11138
     7   H       0.88862                 0.88862    0.11138
     8   H       0.88862                 0.88862    0.11138
     9   H       0.88862                 0.88862    0.11138

 Total charge composition, AO contributions:

   CEN ATOM SHL      SPHERICAL COMPONENTS
     1   O  1s       1.99708
     1   O  2s       1.59317
     1   O  2p       1.51054    1.89506    1.35553

     2   C  1s       1.99187
     2   C  2s       1.02949
     2   C  2p       1.18843    1.17051    0.81671

     3   C  1s       1.99187
     3   C  2s       1.02948
     3   C  2p       0.87045    1.17051    1.13468

     4   H  1s       0.85006

     5   H  1s       0.85007

     6   H  1s       0.88862

     7   H  1s       0.88862

     8   H  1s       0.88862

     9   H  1s       0.88862

 Summary of localized orbital composition:   [THRPRINT= 0.020]

   ORB  GRP  ORB.ENERGY      CENTERS/CHARGES
     1   1   -18.630618      O  1   2.000
     2   1    -9.844255      C  3   2.000
     3   1    -9.844252      C  2   2.000
     4   1    -0.697693      O  1   1.246   C  2   0.746
     5   1    -0.697689      O  1   1.246   C  3   0.746
     6   1    -0.481086      O  1   1.961   (other: 0.039)
     7   1    -0.468393      C  3   1.131   H  7   0.867
     8   1    -0.468393      C  3   1.131   H  9   0.867
     9   1    -0.468389      C  2   1.131   H  8   0.867
    10   1    -0.468389      C  2   1.131   H  6   0.867
    11   1    -0.468158      C  3   1.151   H  5   0.842
    12   1    -0.468150      C  2   1.151   H  4   0.842
    13   1    -0.251474      O  1   1.895   C  2   0.021   C  3   0.021   (other: 0.063)

 Localized orbitals saved to record      2100.2  (orbital set 2)


 **********************************************************************************************************************************
 DATASETS  * FILE   NREC   LENGTH (MB)   RECORD NAMES
              1      20       43.53       500      610      700      900      950      970     1000      129      960     1100   
                                          VAR    BASINP    GEOM    SYMINP    ZMAT    AOBASIS   BASIS     P2S    ABASIS      S 
                                         1400     1410     1200     1210     1080     1600     1650     1300     1700     1800   
                                           T        V       H0       H01     AOSYM     SMH    MOLCAS    ERIS     OPER     GRID   

              2       5        3.04       700     1000      520     1800     2100   
                                         GEOM     BASIS   MCVARS    GRID      RKS  

 PROGRAMS   *        TOTAL      IBBA        KS       INT
 CPU TIMES  *         5.07      0.03      4.19      0.71
 REAL TIME  *         8.19 SEC
 DISK USED  *        82.64 MB      
 **********************************************************************************************************************************
 Molecular orbitals read from record     2100.2  Type=RKS/LOCAL(IBO)  
 Occupation numbers read from record     2100.2  Type=RKS/LOCAL(IBO)  
 Orbital energies read from record       2100.2  Type=RKS/LOCAL(IBO)  
 Redundancy group numbers read from rec  2100.2  Type=RKS/LOCAL(IBO)  

 IBBA/SVP energy=      0.000000000000

        KS-SCF  
   -154.91166371
 **********************************************************************************************************************************
 Molpro calculation terminated
