
 Primary working directories    : /tmp/sb13343
 Secondary working directories  : /tmp/sb13343
 Wavefunction directory         : /panfs/panasas01/chem/sb13343/wfu/
 Main file repository           : /tmp/sb13343/

 SHA1      : b4a5b34a9e711420743f49e6833241d17c61fb3c
 NAME      : 2099.9.b4a5b34
 ARCHNAME  : linux/x86_64_openmp
 FC        : /cm/shared/languages/GCC-6.1/bin/gfortran
 BLASLIB   : -lblas
 id        : simonbennie

 Nodes     nprocs
 node35-048    1

 Using customized tuning parameters: mindgm=1; mindgv=20; mindgc=4; mindgr=1; noblas=0; minvec=7
 default implementation of scratch files=df  

 memory,500,m
 geomtyp=xyz
 nosym
 noorient
 geometry={
 O          0.00000        0.00000        0.00000
 C          0.00000        0.00000        1.40986
 C          1.30431        0.00000       -0.53525
 H         -1.04418        0.00000        1.73410
 H          1.20786        0.00000       -1.62434
 H          0.50101        0.89295        1.81977
 H          1.87373        0.89295       -0.22737
 H          0.50101       -0.89295        1.81977
 H          1.87373       -0.89295       -0.22737
 }
 basis={ default,svp }
 {ks,PBEREV,direct;wf,26,1,0}
 {ibba,bonds=1}

 Variables initialized (895), CPU time= 0.00 sec
 Commands  initialized (725), CPU time= 0.02 sec, 591 directives.
 Default parameters read. Elapsed time= 1.82 sec

 Checking input...
 Passed
1


                                         ***  PROGRAM SYSTEM MOLPRO  ***
                                       Copyright, TTI GmbH Stuttgart, 2015
                                    Version 2099.9 linked May 26 2017 16:03:21


 **********************************************************************************************************************************
 LABEL *                                                                                 
  64 bit serial version                                                                  DATE: 07-Jun-17          TIME: 16:43:33  
 **********************************************************************************************************************************

 SHA1:             b4a5b34a9e711420743f49e6833241d17c61fb3c
 **********************************************************************************************************************************
 SETTING GEOMTYP        =    XYZ

 Variable memory set to  500000000 words,  buffer space 

 ZSYMEL=NOSYM

 SETTING BASIS          =    SVP


 Recomputing integrals since basis changed


 Using spherical harmonics

 Library entry O      S def2-SVP             selected for orbital group  1
 Library entry O      P def2-SVP             selected for orbital group  1
 Library entry O      D def2-SVP             selected for orbital group  1
 Library entry C      S def2-SVP             selected for orbital group  2
 Library entry C      P def2-SVP             selected for orbital group  2
 Library entry C      D def2-SVP             selected for orbital group  2
 Library entry H      S def2-SVP             selected for orbital group  3
 Library entry H      P def2-SVP             selected for orbital group  3


 PROGRAM * SEWARD (Integral evaluation for generally contracted gaussian basis sets)     Author: Roland Lindh, 1990

 Geometry written to block  1 of record 700


 Point group  C1  



 ATOMIC COORDINATES

 NR  ATOM    CHARGE       X              Y              Z

   1  O       8.00    0.000000000    0.000000000    0.000000000
   2  C       6.00    0.000000000    0.000000000    2.664249274
   3  C       6.00    2.464788682    0.000000000   -1.011475908
   4  H       1.00   -1.973214225    0.000000000    3.276974073
   5  H       1.00    2.282524597    0.000000000   -3.069557733
   6  H       1.00    0.946771686    1.687430943    3.438866910
   7  H       1.00    3.540836531    1.687430943   -0.429667029
   8  H       1.00    0.946771686   -1.687430943    3.438866910
   9  H       1.00    3.540836531   -1.687430943   -0.429667029

 Bond lengths in Bohr (Angstrom)

 1-2  2.664249274  1-3  2.664257262  2-4  2.066157316  2-6  2.084186243  2-8  2.084186243
     ( 1.409860000)     ( 1.409864227)     ( 1.093363366)     ( 1.102903863)     ( 1.102903863)

 3-5  2.066136732  3-7  2.084179391  3-9  2.084179391
     ( 1.093352473)     ( 1.102900237)     ( 1.102900237)

 Bond angles

  1-2-4  107.25067522   1-2-6  111.81829608   1-2-8  111.81829608   1-3-5  107.25086594

  1-3-7  111.81797398   1-3-9  111.81797398   2-1-3  112.31178693   4-2-6  108.88149892

  4-2-8  108.88149892   5-3-7  108.88146655   5-3-9  108.88146655   6-2-8  108.12064679

  7-3-9  108.12116643

 NUCLEAR CHARGE:                   26
 NUMBER OF PRIMITIVE AOS:         117
 NUMBER OF SYMMETRY AOS:          114
 NUMBER OF CONTRACTIONS:           72   (  72A   )
 NUMBER OF CORE ORBITALS:           3   (   3A   )
 NUMBER OF VALENCE ORBITALS:       18   (  18A   )


 NUCLEAR REPULSION ENERGY   83.80024479


 Eigenvalues of metric

         1 0.907E-02 0.130E-01 0.293E-01 0.353E-01 0.441E-01 0.490E-01 0.499E-01 0.601E-01


 Contracted 2-electron integrals neglected if value below      1.0D-11
 AO integral compression algorithm  1   Integral accuracy      1.0D-11

     14.156 MB (compressed) written to integral file ( 45.3%)


 NUMBER OF SORTED TWO-ELECTRON INTEGRALS:    3454506.     BUFFER LENGTH:  32768
 NUMBER OF SEGMENTS:   1  SEGMENT LENGTH:    3454506      RECORD LENGTH: 524288

 Memory used in sort:       4.01 MW

 SORT1 READ     3931143. AND WROTE     2907067. INTEGRALS IN      9 RECORDS. CPU TIME:     0.04 SEC, REAL TIME:     0.11 SEC
 SORT2 READ     2907067. AND WROTE     3454506. INTEGRALS IN     54 RECORDS. CPU TIME:     0.13 SEC, REAL TIME:     0.16 SEC

 FILE SIZES:   FILE 1:    44.4 MBYTE,  FILE 4:    37.8 MBYTE,   TOTAL:     82.2 MBYTE

 OPERATOR DM      FOR CENTER  0  COORDINATES:    0.000000    0.000000    0.000000


 **********************************************************************************************************************************
 DATASETS  * FILE   NREC   LENGTH (MB)   RECORD NAMES
              1      19       42.45       500      610      700      900      950      970     1000      129      960     1100   
                                          VAR    BASINP    GEOM    SYMINP    ZMAT    AOBASIS   BASIS     P2S    ABASIS      S 
                                         1400     1410     1200     1210     1080     1600     1650     1300     1700   
                                           T        V       H0       H01     AOSYM     SMH    MOLCAS    ERIS     OPER   

 PROGRAMS   *        TOTAL       INT
 CPU TIMES  *         1.08      0.93
 REAL TIME  *         3.45 SEC
 DISK USED  *        82.64 MB      
 **********************************************************************************************************************************

 Density functional group PBEREV=PBEXREV+PBEC
 Functional: PBEXREV(Automatically generated (new) PBEXREV)                    Gradient terms: 1
 Functional: PBEC(Automatically generated (new) PBEC)                          Gradient terms: 1
 Use grid at  1800.2

 Functional: PBEXREV                   Factor:  1.0000
 Functional: PBEC                      Factor:  1.0000

 Generated new metagrid on record  1800.2 with target accuracy 1.0D-06 and 33732 points in CPU time    0.9
 Computed new grid on record 1800.1 in CPU time    1.0
   61197 words reserved for DFT integration

 PROGRAM * RKS-SCF (Restricted closed shell Kohn-Sham)     Authors: W. Meyer, H.-J. Werner, P.J. Knowles, 1993

 NUMBER OF ELECTRONS:      13+   13-    SPACE SYMMETRY=1    SPIN SYMMETRY: Singlet 
 CONVERGENCE THRESHOLDS:    1.00E-05 (Density)    1.00E-06 (Energy)
 MAX. NUMBER OF ITERATIONS:       60
 INTERPOLATION TYPE:            DIIS
 INTERPOLATION STEPS:              2 (START)      1 (STEP)
 LEVEL SHIFTS:                  0.00 (CLOSED)  0.00 (OPEN) 



 Use fine grid record 1800.2 for energy threshold  1.0D-06
 Orbital guess generated from atomic densities. Full valence occupancy:   13

 Molecular orbital dump at record        2100.2

 Initial occupancy:  13

 ITERATION    DDIFF          GRAD             ENERGY        2-EL.EN.            DIPOLE MOMENTS         DIIS   ORB.
    1      0.000D+00      0.000D+00      -154.75203273    324.910784    0.75415    0.00000    0.50573    0    start
    2      0.000D+00      0.109D-01      -154.63163914    303.903585   -0.43350    0.00000   -0.29069    1    diag
    3      0.310D-01      0.167D-01      -154.85104079    317.162832    0.49572    0.00000    0.33242    2    diag
    4      0.212D-01      0.272D-02      -154.85514373    316.653671    0.37078    0.00000    0.24864    3    diag
    5      0.219D-02      0.853D-03      -154.85557759    316.563381    0.38472    0.00000    0.25799    4    diag
    6      0.597D-03      0.107D-03      -154.85558509    316.586032    0.38150    0.00000    0.25584    5    diag
    7      0.791D-04      0.145D-04      -154.85558526    316.591640    0.38376    0.00000    0.25735    6    diag
    8      0.209D-04      0.372D-05      -154.85558528    316.592106    0.38330    0.00000    0.25704    7    diag
    9      0.396D-05      0.310D-06      -154.85558528    316.592006    0.38331    0.00000    0.25705    0    orth

 Final occupancy:  13

 !RKS STATE 1.1 Energy               -154.855585277485
 Nuclear energy                        83.80024479
 One-electron energy                 -375.35045902
 Two-electron energy                  158.29600310
 Density functional                   -21.60137415     PBEXREV=-20.75548863 PBEC= -0.84588552
 Virial quotient                       -1.00985256
 !RKS STATE 1.1 Dipole moment           0.38330571     0.00000000     0.25704818
 Dipole moment /Debye                   0.97420214     0.00000000     0.65330851

 Orbital energies:

         1.1          2.1          3.1          4.1          5.1          6.1          7.1          8.1          9.1         10.1
    -18.765503    -9.944370    -9.944350    -0.931962    -0.645976    -0.563341    -0.427411    -0.414497    -0.411783    -0.345606

        11.1         12.1         13.1         14.1         15.1
     -0.329099    -0.265668    -0.203540     0.042928     0.086037

 HOMO     13.1    -0.203540 =      -5.5386eV
 LUMO     14.1     0.042928 =       1.1681eV
 LUMO-HOMO         0.246468 =       6.7067eV


 **********************************************************************************************************************************
 DATASETS  * FILE   NREC   LENGTH (MB)   RECORD NAMES
              1      20       43.53       500      610      700      900      950      970     1000      129      960     1100   
                                          VAR    BASINP    GEOM    SYMINP    ZMAT    AOBASIS   BASIS     P2S    ABASIS      S 
                                         1400     1410     1200     1210     1080     1600     1650     1300     1700     1800   
                                           T        V       H0       H01     AOSYM     SMH    MOLCAS    ERIS     OPER     GRID   

              2       5        3.00       700     1000      520     1800     2100   
                                         GEOM     BASIS   MCVARS    GRID      RKS  

 PROGRAMS   *        TOTAL        KS       INT
 CPU TIMES  *         5.49      4.41      0.93
 REAL TIME  *         8.47 SEC
 DISK USED  *        82.64 MB      
 **********************************************************************************************************************************


 PROGRAM * Intrinsic Basis Bonding Analysis (IBBA)          Author: G. Knizia

 Molecular orbitals read from record     2100.2  Type=RKS/CANONICAL (state 1.1)
 Fock matrix read from record            2100.2  Type=RKS/TOTAL (state 1.1)
 Orbital energies read from record       2100.2  Type=RKS/CANONICAL (state 1.1)
 Density matrix read from record         2100.2  Type=RKS/CHARGE (state 1.1)

 Number of core orbitals:           3 (   3 )
 Number of closed-shell orbitals:  10 (  10 )

 Basis set MINAO-AUTO-PP generated.      Number of basis functions:   21 

 Polarized AO type:                A = (O Ot + (1-O)(1-Ot)) P12
 Orthogonalization method:         Symmetric (Loewdin)
 Localization functional:          L = sum[A,i] <i|n_A|i>^4 -> max

 Localization group 1:  13 orbitals, occupancy  2.000
 Iterative localization: IB/PM,    7 iter; Final gradient 0.11E-09

 Bond order analysis:       [THRPRINT= 0.020]

   CEN ATOM   CEN ATOM     WIBERG.BO      RENORM.BO
     1   O  -   2   C       0.998231       1.022938
     1   O  -   3   C       0.998227       1.022937
     1   O  -   8   H       0.036682       0.021870
     1   O  -   6   H       0.036682       0.021870
     1   O  -   9   H       0.036681       0.021869
     1   O  -   7   H       0.036681       0.021869

     2   C  -   1   O       0.998231       1.022938
     2   C  -   4   H       0.957524       0.976155
     2   C  -   8   H       0.946267       0.930976
     2   C  -   6   H       0.946267       0.930976

     3   C  -   1   O       0.998227       1.022937
     3   C  -   5   H       0.957527       0.976155
     3   C  -   9   H       0.946267       0.930978
     3   C  -   7   H       0.946267       0.930978

     4   H  -   2   C       0.957524       0.976155

     5   H  -   3   C       0.957527       0.976155

     6   H  -   2   C       0.946267       0.930976
     6   H  -   1   O       0.036682       0.021870

     7   H  -   3   C       0.946267       0.930978
     7   H  -   1   O       0.036681       0.021869

     8   H  -   2   C       0.946267       0.930976
     8   H  -   1   O       0.036682       0.021870

     9   H  -   3   C       0.946267       0.930978
     9   H  -   1   O       0.036681       0.021869


 Valency analysis:

   CEN ATOM   TOT.VALENCE
     1   O       2.155516
     2   C       3.868582
     3   C       3.868580
     4   H       0.978563
     5   H       0.978566
     6   H       0.988136
     7   H       0.988135
     8   H       0.988136
     9   H       0.988135

 Total charge composition:

   CEN ATOM         s          p       ELECTRONS ->P.CHARGE
     1   O       3.59257    4.75563      8.34820   -0.34820
     2   C       3.02294    3.16722      6.19016   -0.19016
     3   C       3.02294    3.16722      6.19016   -0.19016
     4   H       0.85358                 0.85358    0.14642
     5   H       0.85360                 0.85360    0.14640
     6   H       0.89108                 0.89108    0.10892
     7   H       0.89107                 0.89107    0.10893
     8   H       0.89108                 0.89108    0.10892
     9   H       0.89107                 0.89107    0.10893

 Total charge composition, AO contributions:

   CEN ATOM SHL      SPHERICAL COMPONENTS
     1   O  1s       1.99707
     1   O  2s       1.59550
     1   O  2p       1.50797    1.89396    1.35369

     2   C  1s       1.99179
     2   C  2s       1.03115
     2   C  2p       1.18397    1.16704    0.81621

     3   C  1s       1.99179
     3   C  2s       1.03115
     3   C  2p       0.86980    1.16705    1.13037

     4   H  1s       0.85358

     5   H  1s       0.85360

     6   H  1s       0.89108

     7   H  1s       0.89107

     8   H  1s       0.89108

     9   H  1s       0.89107

 Summary of localized orbital composition:   [THRPRINT= 0.020]

   ORB  GRP  ORB.ENERGY      CENTERS/CHARGES
     1   1   -18.620382      O  1   2.000
     2   1    -9.837728      C  3   2.000
     3   1    -9.837727      C  2   2.000
     4   1    -0.692966      O  1   1.245   C  2   0.746
     5   1    -0.692963      O  1   1.245   C  3   0.746
     6   1    -0.479996      O  1   1.961   (other: 0.039)
     7   1    -0.464176      C  3   1.147   H  5   0.846
     8   1    -0.464169      C  2   1.147   H  4   0.846
     9   1    -0.464155      C  3   1.129   H  7   0.869
    10   1    -0.464155      C  3   1.129   H  9   0.869
    11   1    -0.464154      C  2   1.129   H  8   0.869
    12   1    -0.464154      C  2   1.129   H  6   0.869
    13   1    -0.246382      O  1   1.894   C  2   0.021   C  3   0.021   (other: 0.064)

 Localized orbitals saved to record      2100.2  (orbital set 2)


 **********************************************************************************************************************************
 DATASETS  * FILE   NREC   LENGTH (MB)   RECORD NAMES
              1      20       43.53       500      610      700      900      950      970     1000      129      960     1100   
                                          VAR    BASINP    GEOM    SYMINP    ZMAT    AOBASIS   BASIS     P2S    ABASIS      S 
                                         1400     1410     1200     1210     1080     1600     1650     1300     1700     1800   
                                           T        V       H0       H01     AOSYM     SMH    MOLCAS    ERIS     OPER     GRID   

              2       5        3.04       700     1000      520     1800     2100   
                                         GEOM     BASIS   MCVARS    GRID      RKS  

 PROGRAMS   *        TOTAL      IBBA        KS       INT
 CPU TIMES  *         5.52      0.02      4.41      0.93
 REAL TIME  *         8.56 SEC
 DISK USED  *        82.64 MB      
 **********************************************************************************************************************************
 Molecular orbitals read from record     2100.2  Type=RKS/LOCAL(IBO)  
 Occupation numbers read from record     2100.2  Type=RKS/LOCAL(IBO)  
 Orbital energies read from record       2100.2  Type=RKS/LOCAL(IBO)  
 Redundancy group numbers read from rec  2100.2  Type=RKS/LOCAL(IBO)  

 IBBA/SVP energy=      0.000000000000

        KS-SCF  
   -154.85558528
 **********************************************************************************************************************************
 Molpro calculation terminated
