
 Primary working directories    : /tmp/sb13343
 Secondary working directories  : /tmp/sb13343
 Wavefunction directory         : /panfs/panasas01/chem/sb13343/wfu/
 Main file repository           : /tmp/sb13343/

 SHA1      : b4a5b34a9e711420743f49e6833241d17c61fb3c
 NAME      : 2099.9.b4a5b34
 ARCHNAME  : linux/x86_64_openmp
 FC        : /cm/shared/languages/GCC-6.1/bin/gfortran
 BLASLIB   : -lblas
 id        : simonbennie

 Nodes     nprocs
 node35-048    1

 Using customized tuning parameters: mindgm=1; mindgv=20; mindgc=4; mindgr=1; noblas=0; minvec=7
 default implementation of scratch files=df  

 memory,500,m
 geomtyp=xyz
 nosym
 noorient
 geometry={
 O          0.00000        0.00000        0.00000
 C          0.00000        0.00000        1.40986
 C          1.30431        0.00000       -0.53525
 H         -1.04418        0.00000        1.73410
 H          1.20786        0.00000       -1.62434
 H          0.50101        0.89295        1.81977
 H          1.87373        0.89295       -0.22737
 H          0.50101       -0.89295        1.81977
 H          1.87373       -0.89295       -0.22737
 }
 basis={ default,sto-3g }
 {uks,M11-L,direct;wf,26,1,0}
 {ibba,bonds=1}

 Variables initialized (895), CPU time= 0.00 sec
 Commands  initialized (725), CPU time= 0.02 sec, 591 directives.
 Default parameters read. Elapsed time= 2.00 sec

 Checking input...
 Passed
1


                                         ***  PROGRAM SYSTEM MOLPRO  ***
                                       Copyright, TTI GmbH Stuttgart, 2015
                                    Version 2099.9 linked May 26 2017 16:03:21


 **********************************************************************************************************************************
 LABEL *                                                                                 
  64 bit serial version                                                                  DATE: 07-Jun-17          TIME: 16:32:20  
 **********************************************************************************************************************************

 SHA1:             b4a5b34a9e711420743f49e6833241d17c61fb3c
 **********************************************************************************************************************************
 SETTING GEOMTYP        =    XYZ

 Variable memory set to  500000000 words,  buffer space 

 ZSYMEL=NOSYM

 SETTING BASIS          =    STO-3G


 Recomputing integrals since basis changed


 Using spherical harmonics

 Library entry O      S STO-3G               selected for orbital group  1
 Library entry O      P STO-3G               selected for orbital group  1
 Library entry C      S STO-3G               selected for orbital group  2
 Library entry C      P STO-3G               selected for orbital group  2
 Library entry H      S STO-3G               selected for orbital group  3


 PROGRAM * SEWARD (Integral evaluation for generally contracted gaussian basis sets)     Author: Roland Lindh, 1990

 Geometry written to block  1 of record 700


 Point group  C1  



 ATOMIC COORDINATES

 NR  ATOM    CHARGE       X              Y              Z

   1  O       8.00    0.000000000    0.000000000    0.000000000
   2  C       6.00    0.000000000    0.000000000    2.664249274
   3  C       6.00    2.464788682    0.000000000   -1.011475908
   4  H       1.00   -1.973214225    0.000000000    3.276974073
   5  H       1.00    2.282524597    0.000000000   -3.069557733
   6  H       1.00    0.946771686    1.687430943    3.438866910
   7  H       1.00    3.540836531    1.687430943   -0.429667029
   8  H       1.00    0.946771686   -1.687430943    3.438866910
   9  H       1.00    3.540836531   -1.687430943   -0.429667029

 Bond lengths in Bohr (Angstrom)

 1-2  2.664249274  1-3  2.664257262  2-4  2.066157316  2-6  2.084186243  2-8  2.084186243
     ( 1.409860000)     ( 1.409864227)     ( 1.093363366)     ( 1.102903863)     ( 1.102903863)

 3-5  2.066136732  3-7  2.084179391  3-9  2.084179391
     ( 1.093352473)     ( 1.102900237)     ( 1.102900237)

 Bond angles

  1-2-4  107.25067522   1-2-6  111.81829608   1-2-8  111.81829608   1-3-5  107.25086594

  1-3-7  111.81797398   1-3-9  111.81797398   2-1-3  112.31178693   4-2-6  108.88149892

  4-2-8  108.88149892   5-3-7  108.88146655   5-3-9  108.88146655   6-2-8  108.12064679

  7-3-9  108.12116643

 NUCLEAR CHARGE:                   26
 NUMBER OF PRIMITIVE AOS:          63
 NUMBER OF SYMMETRY AOS:           63
 NUMBER OF CONTRACTIONS:           21   (  21A   )
 NUMBER OF CORE ORBITALS:           3   (   3A   )
 NUMBER OF VALENCE ORBITALS:       18   (  18A   )


 NUCLEAR REPULSION ENERGY   83.80024479


 Eigenvalues of metric

         1 0.234E+00 0.235E+00 0.359E+00 0.371E+00 0.377E+00 0.378E+00 0.398E+00 0.479E+00


 Contracted 2-electron integrals neglected if value below      1.0D-11
 AO integral compression algorithm  1   Integral accuracy      1.0D-11

     0.262 MB (compressed) written to integral file (100.0%)


 NUMBER OF SORTED TWO-ELECTRON INTEGRALS:      26796.     BUFFER LENGTH:  32768
 NUMBER OF SEGMENTS:   1  SEGMENT LENGTH:      26796      RECORD LENGTH: 524288

 Memory used in sort:       0.58 MW

 SORT1 READ       32133. AND WROTE       21402. INTEGRALS IN      1 RECORDS. CPU TIME:     0.00 SEC, REAL TIME:     0.00 SEC
 SORT2 READ       21402. AND WROTE       26796. INTEGRALS IN      1 RECORDS. CPU TIME:     0.01 SEC, REAL TIME:     0.00 SEC

 FILE SIZES:   FILE 1:    30.4 MBYTE,  FILE 4:     4.2 MBYTE,   TOTAL:     34.6 MBYTE

 OPERATOR DM      FOR CENTER  0  COORDINATES:    0.000000    0.000000    0.000000


 **********************************************************************************************************************************
 DATASETS  * FILE   NREC   LENGTH (MB)   RECORD NAMES
              1      19       30.21       500      610      700      900      950      970     1000      129      960     1100   
                                          VAR    BASINP    GEOM    SYMINP    ZMAT    AOBASIS   BASIS     P2S    ABASIS      S 
                                         1400     1410     1200     1210     1080     1600     1650     1300     1700   
                                           T        V       H0       H01     AOSYM     SMH    MOLCAS    ERIS     OPER   

 PROGRAMS   *        TOTAL       INT
 CPU TIMES  *         0.38      0.24
 REAL TIME  *         2.88 SEC
 DISK USED  *        34.99 MB      
 **********************************************************************************************************************************

 Density functional group M11-L=XC-M11-L
 Functional: XC-M11-L(via MFM 1.6)                                             Gradient terms: 1
 Use grid at  1800.2

 Functional: XC-M11-L                  Factor:  1.0000

 Generated new metagrid on record  1800.2 with target accuracy 1.0D-06 and 33732 points in CPU time    1.0
 Computed new grid on record 1800.1 in CPU time    1.0
   20895 words reserved for DFT integration

 PROGRAM * UKS-SCF (Unrestricted Kohn-Sham)     Authors: W. Meyer, H.-J. Werner, P.J. Knowles, 1993

 NUMBER OF ELECTRONS:      13+   13-    SPACE SYMMETRY=1    SPIN SYMMETRY: Singlet 
 CONVERGENCE THRESHOLDS:    1.00E-05 (Density)    1.00E-06 (Energy)
 MAX. NUMBER OF ITERATIONS:       60
 INTERPOLATION TYPE:            DIIS
 INTERPOLATION STEPS:              2 (START)      1 (STEP)
 LEVEL SHIFTS:                 -0.20 (ALPHA)  -0.20 (BETA) 



 Use fine grid record 1800.2 for energy threshold  1.0D-06
 Orbital guess generated from atomic densities. Full valence occupancy:   13

 Molecular orbital dump at record        2200.2

 Initial alpha occupation  13
 Initial beta  occupation  13

 ITERATION    DDIFF          GRAD             ENERGY        2-EL.EN.            DIPOLE MOMENTS         DIIS
    1      0.000D+00      0.000D+00      -152.42237769    324.948385    1.02330    0.00000    0.68627    0
    2      0.592D-01      0.193D-01      -152.54987835    316.831234    0.21952    0.00000    0.14818    1
    3      0.667D-02      0.302D-02      -152.55227291    317.531757    0.34997    0.00000    0.23528    2
    4      0.135D-02      0.438D-03      -152.55234408    317.515657    0.34489    0.00000    0.23173    3
    5      0.442D-03      0.134D-03      -152.55235267    317.512211    0.34692    0.00000    0.23301    4
    6      0.191D-03      0.341D-04      -152.55235355    317.513074    0.34675    0.00000    0.23287    5
    7      0.240D-04      0.427D-05      -152.55235356    317.512675    0.34676    0.00000    0.23289    5
    8      0.305D-05      0.599D-06      -152.55235356    317.512793    0.34676    0.00000    0.23288    5
    9      0.474D-06      0.120D-06      -152.55235356    317.512749    0.34675    0.00000    0.23288    5

 Final alpha occupancy:  13
 Final beta  occupancy:  13

 !UKS STATE 1.1 Energy               -152.552353564637
 Nuclear energy                        83.80024479
 One-electron energy                 -373.84021318
 Two-electron energy                  158.75637458
 Density functional                   -21.26875975     XC-M11-L=-21.26875975
 Virial quotient                       -1.01088846
 !UKS STATE 1.1 Dipole moment           0.34675311     0.00000000     0.23288033
 Dipole moment /Debye                   0.88130078     0.00000000     0.59188398

 Orbital energies for positive spin:

         1.1          2.1          3.1          4.1          5.1          6.1          7.1          8.1          9.1         10.1
    -18.937117   -10.084684   -10.084517    -0.984922    -0.658542    -0.578083    -0.400178    -0.393200    -0.392064    -0.333596

        11.1         12.1         13.1         14.1         15.1
     -0.312870    -0.206973    -0.130172     0.293584     0.369798

 Orbital energies for negative spin:

         1.1          2.1          3.1          4.1          5.1          6.1          7.1          8.1          9.1         10.1
    -18.937117   -10.084684   -10.084517    -0.984922    -0.658542    -0.578083    -0.400178    -0.393200    -0.392064    -0.333596

        11.1         12.1         13.1         14.1         15.1
     -0.312870    -0.206973    -0.130172     0.293584     0.369798

 HOMO     13.1    -0.130172 =      -3.5422eV
 LUMO     14.1     0.293584 =       7.9888eV
 LUMO-HOMO         0.423756 =      11.5310eV

 EXPECTATION VALUE OF S**2:             0.00000000

 Natural orbitals saved to record    2200.2 (Orbital set 3)

 Orbital spaces for UNO-CAS (Min. occupation: 0.020  Max. occupation: 1.980):

 Closed:       13
 Active:        0


 **********************************************************************************************************************************
 DATASETS  * FILE   NREC   LENGTH (MB)   RECORD NAMES
              1      20       31.29       500      610      700      900      950      970     1000      129      960     1100   
                                          VAR    BASINP    GEOM    SYMINP    ZMAT    AOBASIS   BASIS     P2S    ABASIS      S 
                                         1400     1410     1200     1210     1080     1600     1650     1300     1700     1800   
                                           T        V       H0       H01     AOSYM     SMH    MOLCAS    ERIS     OPER     GRID   

              2       5        2.91       700     1000      520     1800     2200   
                                         GEOM     BASIS   MCVARS    GRID      UKS  

 PROGRAMS   *        TOTAL       UKS       INT
 CPU TIMES  *         5.09      4.70      0.24
 REAL TIME  *        10.06 SEC
 DISK USED  *        34.99 MB      
 **********************************************************************************************************************************


 PROGRAM * Intrinsic Basis Bonding Analysis (IBBA)          Author: G. Knizia

 Molecular orbitals read from record     2200.2  Type=UKS/ALPHA (state 1.1)
 Fock matrix read from record            2200.2  Type=UKS/TOTAL (state 1.1)
 Orbital energies read from record       2200.2  Type=UKS/ALPHA (state 1.1)
 Density matrix read from record         2200.2  Type=UKS/CHARGE (state 1.1)

 Number of core orbitals:           3 (   3 )
 Number of closed-shell orbitals:  10 (  10 )

 Basis set MINAO-AUTO-PP generated.      Number of basis functions:   21 

 Polarized AO type:                A = (O Ot + (1-O)(1-Ot)) P12
 Orthogonalization method:         Symmetric (Loewdin)
 Localization functional:          L = sum[A,i] <i|n_A|i>^4 -> max

 Localization group 1:  13 orbitals, occupancy  2.000
 Iterative localization: IB/PM,    7 iter; Final gradient 0.66E-10

 Bond order analysis:       [THRPRINT= 0.020]

   CEN ATOM   CEN ATOM     WIBERG.BO      RENORM.BO
     1   O  -   3   C       1.015146       1.018018
     1   O  -   2   C       1.015136       1.017985
     1   O  -   9   H       0.029152       0.017268
     1   O  -   7   H       0.029152       0.017268
     1   O  -   8   H       0.029114       0.017247
     1   O  -   6   H       0.029114       0.017247

     2   C  -   1   O       1.015136       1.017985
     2   C  -   4   H       0.960420       0.974406
     2   C  -   8   H       0.956639       0.946508
     2   C  -   6   H       0.956639       0.946508

     3   C  -   1   O       1.015146       1.018018
     3   C  -   5   H       0.960443       0.974415
     3   C  -   9   H       0.956603       0.946449
     3   C  -   7   H       0.956603       0.946449

     4   H  -   2   C       0.960420       0.974406

     5   H  -   3   C       0.960443       0.974415

     6   H  -   2   C       0.956639       0.946508
     6   H  -   1   O       0.029114       0.017247

     7   H  -   3   C       0.956603       0.946449
     7   H  -   1   O       0.029152       0.017268

     8   H  -   2   C       0.956639       0.946508
     8   H  -   1   O       0.029114       0.017247

     9   H  -   3   C       0.956603       0.946449
     9   H  -   1   O       0.029152       0.017268


 Valency analysis:

   CEN ATOM   TOT.VALENCE
     1   O       2.158860
     2   C       3.909001
     3   C       3.908969
     4   H       0.982913
     5   H       0.982934
     6   H       0.988644
     7   H       0.988641
     8   H       0.988644
     9   H       0.988641

 Total charge composition:

   CEN ATOM         s          p       ELECTRONS ->P.CHARGE
     1   O       3.66916    4.56723      8.23638   -0.23638
     2   C       3.02930    3.19637      6.22567   -0.22567
     3   C       3.02934    3.19624      6.22559   -0.22559
     4   H       0.86928                 0.86928    0.13072
     5   H       0.86936                 0.86936    0.13064
     6   H       0.89344                 0.89344    0.10656
     7   H       0.89342                 0.89342    0.10658
     8   H       0.89344                 0.89344    0.10656
     9   H       0.89342                 0.89342    0.10658

 Total charge composition, AO contributions:

   CEN ATOM SHL      SPHERICAL COMPONENTS
     1   O  1s       1.99699
     1   O  2s       1.67217
     1   O  2p       1.39337    1.91269    1.26118

     2   C  1s       1.99102
     2   C  2s       1.03828
     2   C  2p       1.16746    1.15743    0.87148

     3   C  1s       1.99102
     3   C  2s       1.03832
     3   C  2p       0.91394    1.15748    1.12483

     4   H  1s       0.86928

     5   H  1s       0.86936

     6   H  1s       0.89344

     7   H  1s       0.89342

     8   H  1s       0.89344

     9   H  1s       0.89342

 Summary of localized orbital composition:   [THRPRINT= 0.020]

   ORB  GRP  ORB.ENERGY      CENTERS/CHARGES
     1   1   -18.755726      O  1   2.000
     2   1    -9.973714      C  2   2.000
     3   1    -9.973696      C  3   2.000
     4   1    -0.654591      O  1   1.173   C  2   0.817
     5   1    -0.654514      O  1   1.173   C  3   0.817
     6   1    -0.552363      O  1   1.972   (other: 0.028)
     7   1    -0.461303      C  2   1.131   H  4   0.861
     8   1    -0.461214      C  3   1.131   H  5   0.861
     9   1    -0.460300      C  2   1.123   H  6   0.876
    10   1    -0.460300      C  2   1.123   H  8   0.876
    11   1    -0.460280      C  3   1.123   H  9   0.876
    12   1    -0.460280      C  3   1.123   H  7   0.876
    13   1    -0.168647      O  1   1.912   (other: 0.088)

 Localized orbitals saved to record      2200.2  (orbital set 4)


 **********************************************************************************************************************************
 DATASETS  * FILE   NREC   LENGTH (MB)   RECORD NAMES
              1      20       31.29       500      610      700      900      950      970     1000      129      960     1100   
                                          VAR    BASINP    GEOM    SYMINP    ZMAT    AOBASIS   BASIS     P2S    ABASIS      S 
                                         1400     1410     1200     1210     1080     1600     1650     1300     1700     1800   
                                           T        V       H0       H01     AOSYM     SMH    MOLCAS    ERIS     OPER     GRID   

              2       5        2.92       700     1000      520     1800     2200   
                                         GEOM     BASIS   MCVARS    GRID      UKS  

 PROGRAMS   *        TOTAL      IBBA       UKS       INT
 CPU TIMES  *         5.12      0.04      4.70      0.24
 REAL TIME  *        11.82 SEC
 DISK USED  *        34.99 MB      
 **********************************************************************************************************************************
 Molecular orbitals read from record     2200.2  Type=UKS/LOCAL(IBO)  
 Occupation numbers read from record     2200.2  Type=UKS/LOCAL(IBO)  
 Orbital energies read from record       2200.2  Type=UKS/LOCAL(IBO)  
 Redundancy group numbers read from rec  2200.2  Type=UKS/BETA (state 1.1)

 IBBA/STO-3G energy=      0.000000000000

        UKS-SCF 
   -152.55235356
 **********************************************************************************************************************************
 Molpro calculation terminated
