
 Primary working directories    : /tmp/sb13343
 Secondary working directories  : /tmp/sb13343
 Wavefunction directory         : /panfs/panasas01/chem/sb13343/wfu/
 Main file repository           : /tmp/sb13343/

 SHA1      : b4a5b34a9e711420743f49e6833241d17c61fb3c
 NAME      : 2099.9.b4a5b34
 ARCHNAME  : linux/x86_64_openmp
 FC        : /cm/shared/languages/GCC-6.1/bin/gfortran
 BLASLIB   : -lblas
 id        : simonbennie

 Nodes     nprocs
 node32-010    1

 Using customized tuning parameters: mindgm=1; mindgv=20; mindgc=4; mindgr=1; noblas=0; minvec=7
 default implementation of scratch files=df  

 memory,500,m
 geomtyp=xyz
 nosym
 noorient
 geometry={
 O          0.00000        0.00000        0.00000
 C          0.00000        0.00000        1.40986
 C          1.30431        0.00000       -0.53525
 H         -1.04418        0.00000        1.73410
 H          1.20786        0.00000       -1.62434
 H          0.50101        0.89295        1.81977
 H          1.87373        0.89295       -0.22737
 H          0.50101       -0.89295        1.81977
 H          1.87373       -0.89295       -0.22737
 }
 basis={ default,svp }
 {ks,MM06-L,direct;wf,26,1,0}
 {ibba,bonds=1}

 Variables initialized (895), CPU time= 0.00 sec
 Commands  initialized (725), CPU time= 0.01 sec, 591 directives.
 Default parameters read. Elapsed time= 1.29 sec

 Checking input...
 Passed
1


                                         ***  PROGRAM SYSTEM MOLPRO  ***
                                       Copyright, TTI GmbH Stuttgart, 2015
                                    Version 2099.9 linked May 26 2017 16:03:21


 **********************************************************************************************************************************
 LABEL *                                                                                 
  64 bit serial version                                                                  DATE: 07-Jun-17          TIME: 16:38:12  
 **********************************************************************************************************************************

 SHA1:             b4a5b34a9e711420743f49e6833241d17c61fb3c
 **********************************************************************************************************************************
 SETTING GEOMTYP        =    XYZ

 Variable memory set to  500000000 words,  buffer space 

 ZSYMEL=NOSYM

 SETTING BASIS          =    SVP


 Recomputing integrals since basis changed


 Using spherical harmonics

 Library entry O      S def2-SVP             selected for orbital group  1
 Library entry O      P def2-SVP             selected for orbital group  1
 Library entry O      D def2-SVP             selected for orbital group  1
 Library entry C      S def2-SVP             selected for orbital group  2
 Library entry C      P def2-SVP             selected for orbital group  2
 Library entry C      D def2-SVP             selected for orbital group  2
 Library entry H      S def2-SVP             selected for orbital group  3
 Library entry H      P def2-SVP             selected for orbital group  3


 PROGRAM * SEWARD (Integral evaluation for generally contracted gaussian basis sets)     Author: Roland Lindh, 1990

 Geometry written to block  1 of record 700


 Point group  C1  



 ATOMIC COORDINATES

 NR  ATOM    CHARGE       X              Y              Z

   1  O       8.00    0.000000000    0.000000000    0.000000000
   2  C       6.00    0.000000000    0.000000000    2.664249274
   3  C       6.00    2.464788682    0.000000000   -1.011475908
   4  H       1.00   -1.973214225    0.000000000    3.276974073
   5  H       1.00    2.282524597    0.000000000   -3.069557733
   6  H       1.00    0.946771686    1.687430943    3.438866910
   7  H       1.00    3.540836531    1.687430943   -0.429667029
   8  H       1.00    0.946771686   -1.687430943    3.438866910
   9  H       1.00    3.540836531   -1.687430943   -0.429667029

 Bond lengths in Bohr (Angstrom)

 1-2  2.664249274  1-3  2.664257262  2-4  2.066157316  2-6  2.084186243  2-8  2.084186243
     ( 1.409860000)     ( 1.409864227)     ( 1.093363366)     ( 1.102903863)     ( 1.102903863)

 3-5  2.066136732  3-7  2.084179391  3-9  2.084179391
     ( 1.093352473)     ( 1.102900237)     ( 1.102900237)

 Bond angles

  1-2-4  107.25067522   1-2-6  111.81829608   1-2-8  111.81829608   1-3-5  107.25086594

  1-3-7  111.81797398   1-3-9  111.81797398   2-1-3  112.31178693   4-2-6  108.88149892

  4-2-8  108.88149892   5-3-7  108.88146655   5-3-9  108.88146655   6-2-8  108.12064679

  7-3-9  108.12116643

 NUCLEAR CHARGE:                   26
 NUMBER OF PRIMITIVE AOS:         117
 NUMBER OF SYMMETRY AOS:          114
 NUMBER OF CONTRACTIONS:           72   (  72A   )
 NUMBER OF CORE ORBITALS:           3   (   3A   )
 NUMBER OF VALENCE ORBITALS:       18   (  18A   )


 NUCLEAR REPULSION ENERGY   83.80024479


 Eigenvalues of metric

         1 0.907E-02 0.130E-01 0.293E-01 0.353E-01 0.441E-01 0.490E-01 0.499E-01 0.601E-01


 Contracted 2-electron integrals neglected if value below      1.0D-11
 AO integral compression algorithm  1   Integral accuracy      1.0D-11

     14.156 MB (compressed) written to integral file ( 45.3%)


 NUMBER OF SORTED TWO-ELECTRON INTEGRALS:    3454506.     BUFFER LENGTH:  32768
 NUMBER OF SEGMENTS:   1  SEGMENT LENGTH:    3454506      RECORD LENGTH: 524288

 Memory used in sort:       4.01 MW

 SORT1 READ     3931143. AND WROTE     2907067. INTEGRALS IN      9 RECORDS. CPU TIME:     0.05 SEC, REAL TIME:     0.09 SEC
 SORT2 READ     2907067. AND WROTE     3454506. INTEGRALS IN     54 RECORDS. CPU TIME:     0.12 SEC, REAL TIME:     0.14 SEC

 FILE SIZES:   FILE 1:    44.4 MBYTE,  FILE 4:    37.8 MBYTE,   TOTAL:     82.2 MBYTE

 OPERATOR DM      FOR CENTER  0  COORDINATES:    0.000000    0.000000    0.000000


 **********************************************************************************************************************************
 DATASETS  * FILE   NREC   LENGTH (MB)   RECORD NAMES
              1      19       42.45       500      610      700      900      950      970     1000      129      960     1100   
                                          VAR    BASINP    GEOM    SYMINP    ZMAT    AOBASIS   BASIS     P2S    ABASIS      S 
                                         1400     1410     1200     1210     1080     1600     1650     1300     1700   
                                           T        V       H0       H01     AOSYM     SMH    MOLCAS    ERIS     OPER   

 PROGRAMS   *        TOTAL       INT
 CPU TIMES  *         1.03      0.88
 REAL TIME  *         2.85 SEC
 DISK USED  *        82.64 MB      
 **********************************************************************************************************************************

 Density functional group MM06-L=M06LX+M06LC
 Functional: M06LX(Automatically generated (new) M06LX)                        Gradient terms: 2
 Functional: M06LC(Automatically generated (new) M06LC)                        Gradient terms: 2
 Use grid at  1800.2

 Functional: M06LX                     Factor:  1.0000
 Functional: M06LC                     Factor:  1.0000

 Generated new metagrid on record  1800.2 with target accuracy 1.0D-06 and 33732 points in CPU time    0.9
 Computed new grid on record 1800.1 in CPU time    1.0
  116061 words reserved for DFT integration

 PROGRAM * RKS-SCF (Restricted closed shell Kohn-Sham)     Authors: W. Meyer, H.-J. Werner, P.J. Knowles, 1993

 NUMBER OF ELECTRONS:      13+   13-    SPACE SYMMETRY=1    SPIN SYMMETRY: Singlet 
 CONVERGENCE THRESHOLDS:    1.00E-05 (Density)    1.00E-06 (Energy)
 MAX. NUMBER OF ITERATIONS:       60
 INTERPOLATION TYPE:            DIIS
 INTERPOLATION STEPS:              2 (START)      1 (STEP)
 LEVEL SHIFTS:                  0.00 (CLOSED)  0.00 (OPEN) 



 Use fine grid record 1800.2 for energy threshold  1.0D-06
 Orbital guess generated from atomic densities. Full valence occupancy:   13

 Molecular orbital dump at record        2100.2

 Initial occupancy:  13

 ITERATION    DDIFF          GRAD             ENERGY        2-EL.EN.            DIPOLE MOMENTS         DIIS   ORB.
    1      0.000D+00      0.000D+00      -154.79616763    324.242929    0.78821    0.00000    0.52847    0    start
    2      0.000D+00      0.103D-01      -154.72092571    306.271228   -0.29721    0.00000   -0.20177    1    diag
    3      0.236D-01      0.147D-01      -154.87938246    317.086681    0.50481    0.00000    0.33997    2    diag
    4      0.156D-01      0.215D-02      -154.88196640    316.816071    0.40657    0.00000    0.27460    3    diag
    5      0.172D-02      0.728D-03      -154.88229786    316.714831    0.41798    0.00000    0.28229    4    diag
    6      0.519D-03      0.890D-04      -154.88230290    316.731331    0.41636    0.00000    0.28115    5    diag
    7      0.993D-04      0.153D-04      -154.88230308    316.728158    0.41816    0.00000    0.28236    6    diag
    8      0.181D-04      0.412D-05      -154.88230310    316.727351    0.41759    0.00000    0.28194    7    diag
    9      0.490D-05      0.759D-06      -154.88230310    316.727150    0.41765    0.00000    0.28202    0    orth

 Final occupancy:  13

 !RKS STATE 1.1 Energy               -154.882303097437
 Nuclear energy                        83.80024479
 One-electron energy                 -375.39055522
 Two-electron energy                  158.36357504
 Density functional                   -21.65556770     M06LX=-20.73054855 M06LC= -0.92501916
 Virial quotient                       -1.00912007
 !RKS STATE 1.1 Dipole moment           0.41764590     0.00000000     0.28201717
 Dipole moment /Debye                   1.06148045     0.00000000     0.71676921

 Orbital energies:

         1.1          2.1          3.1          4.1          5.1          6.1          7.1          8.1          9.1         10.1
    -18.967130   -10.100633   -10.100277    -0.989235    -0.672372    -0.590679    -0.441372    -0.428101    -0.426474    -0.357361

        11.1         12.1         13.1         14.1         15.1
     -0.339514    -0.280083    -0.218600     0.070836     0.116772

 HOMO     13.1    -0.218600 =      -5.9484eV
 LUMO     14.1     0.070836 =       1.9275eV
 LUMO-HOMO         0.289436 =       7.8759eV


 **********************************************************************************************************************************
 DATASETS  * FILE   NREC   LENGTH (MB)   RECORD NAMES
              1      20       43.53       500      610      700      900      950      970     1000      129      960     1100   
                                          VAR    BASINP    GEOM    SYMINP    ZMAT    AOBASIS   BASIS     P2S    ABASIS      S 
                                         1400     1410     1200     1210     1080     1600     1650     1300     1700     1800   
                                           T        V       H0       H01     AOSYM     SMH    MOLCAS    ERIS     OPER     GRID   

              2       5        3.00       700     1000      520     1800     2100   
                                         GEOM     BASIS   MCVARS    GRID      RKS  

 PROGRAMS   *        TOTAL        KS       INT
 CPU TIMES  *        14.13     13.10      0.88
 REAL TIME  *        17.60 SEC
 DISK USED  *        82.64 MB      
 **********************************************************************************************************************************


 PROGRAM * Intrinsic Basis Bonding Analysis (IBBA)          Author: G. Knizia

 Molecular orbitals read from record     2100.2  Type=RKS/CANONICAL (state 1.1)
 Fock matrix read from record            2100.2  Type=RKS/TOTAL (state 1.1)
 Orbital energies read from record       2100.2  Type=RKS/CANONICAL (state 1.1)
 Density matrix read from record         2100.2  Type=RKS/CHARGE (state 1.1)

 Number of core orbitals:           3 (   3 )
 Number of closed-shell orbitals:  10 (  10 )

 Basis set MINAO-AUTO-PP generated.      Number of basis functions:   21 

 Polarized AO type:                A = (O Ot + (1-O)(1-Ot)) P12
 Orthogonalization method:         Symmetric (Loewdin)
 Localization functional:          L = sum[A,i] <i|n_A|i>^4 -> max

 Localization group 1:  13 orbitals, occupancy  2.000
 Iterative localization: IB/PM,    7 iter; Final gradient 0.10E-09

 Bond order analysis:       [THRPRINT= 0.020]

   CEN ATOM   CEN ATOM     WIBERG.BO      RENORM.BO
     1   O  -   3   C       0.989153       1.022049
     1   O  -   2   C       0.989129       1.022106
     1   O  -   8   H       0.035420       0.021140
     1   O  -   6   H       0.035420       0.021140
     1   O  -   9   H       0.035312       0.021081
     1   O  -   7   H       0.035312       0.021081

     2   C  -   1   O       0.989129       1.022106
     2   C  -   4   H       0.957242       0.975639
     2   C  -   8   H       0.948135       0.933558
     2   C  -   6   H       0.948135       0.933558

     3   C  -   1   O       0.989153       1.022049
     3   C  -   5   H       0.957426       0.975604
     3   C  -   9   H       0.948192       0.933742
     3   C  -   7   H       0.948192       0.933742

     4   H  -   2   C       0.957242       0.975639

     5   H  -   3   C       0.957426       0.975604

     6   H  -   2   C       0.948135       0.933558
     6   H  -   1   O       0.035420       0.021140

     7   H  -   3   C       0.948192       0.933742
     7   H  -   1   O       0.035312       0.021081

     8   H  -   2   C       0.948135       0.933558
     8   H  -   1   O       0.035420       0.021140

     9   H  -   3   C       0.948192       0.933742
     9   H  -   1   O       0.035312       0.021081


 Valency analysis:

   CEN ATOM   TOT.VALENCE
     1   O       2.132314
     2   C       3.862598
     3   C       3.862897
     4   H       0.977864
     5   H       0.978059
     6   H       0.987794
     7   H       0.987742
     8   H       0.987794
     9   H       0.987742

 Total charge composition:

   CEN ATOM         s          p       ELECTRONS ->P.CHARGE
     1   O       3.61121    4.76735      8.37856   -0.37856
     2   C       3.03239    3.14802      6.18041   -0.18041
     3   C       3.03233    3.14799      6.18033   -0.18033
     4   H       0.85122                 0.85122    0.14878
     5   H       0.85187                 0.85187    0.14813
     6   H       0.88952                 0.88952    0.11048
     7   H       0.88928                 0.88928    0.11072
     8   H       0.88952                 0.88952    0.11048
     9   H       0.88928                 0.88928    0.11072

 Total charge composition, AO contributions:

   CEN ATOM SHL      SPHERICAL COMPONENTS
     1   O  1s       1.99697
     1   O  2s       1.61424
     1   O  2p       1.51135    1.89709    1.35891

     2   C  1s       1.99150
     2   C  2s       1.04089
     2   C  2p       1.18021    1.16183    0.80597

     3   C  1s       1.99150
     3   C  2s       1.04083
     3   C  2p       0.86036    1.16195    1.12569

     4   H  1s       0.85122

     5   H  1s       0.85187

     6   H  1s       0.88952

     7   H  1s       0.88928

     8   H  1s       0.88952

     9   H  1s       0.88928

 Summary of localized orbital composition:   [THRPRINT= 0.020]

   ORB  GRP  ORB.ENERGY      CENTERS/CHARGES
     1   1   -18.812428      O  1   2.000
     2   1    -9.990775      C  2   2.000
     3   1    -9.990415      C  3   2.000
     4   1    -0.719706      O  1   1.258   C  2   0.733
     5   1    -0.719694      O  1   1.258   C  3   0.734
     6   1    -0.528798      O  1   1.963   (other: 0.037)
     7   1    -0.480915      C  2   1.130   H  6   0.868
     8   1    -0.480915      C  2   1.130   H  8   0.868
     9   1    -0.480851      C  3   1.130   H  7   0.868
    10   1    -0.480851      C  3   1.130   H  9   0.868
    11   1    -0.480667      C  2   1.149   H  4   0.844
    12   1    -0.480187      C  3   1.149   H  5   0.844
    13   1    -0.265630      O  1   1.897   C  2   0.021   C  3   0.021   (other: 0.062)

 Localized orbitals saved to record      2100.2  (orbital set 2)


 **********************************************************************************************************************************
 DATASETS  * FILE   NREC   LENGTH (MB)   RECORD NAMES
              1      20       43.53       500      610      700      900      950      970     1000      129      960     1100   
                                          VAR    BASINP    GEOM    SYMINP    ZMAT    AOBASIS   BASIS     P2S    ABASIS      S 
                                         1400     1410     1200     1210     1080     1600     1650     1300     1700     1800   
                                           T        V       H0       H01     AOSYM     SMH    MOLCAS    ERIS     OPER     GRID   

              2       5        3.04       700     1000      520     1800     2100   
                                         GEOM     BASIS   MCVARS    GRID      RKS  

 PROGRAMS   *        TOTAL      IBBA        KS       INT
 CPU TIMES  *        14.15      0.02     13.10      0.88
 REAL TIME  *        17.71 SEC
 DISK USED  *        82.64 MB      
 **********************************************************************************************************************************
 Molecular orbitals read from record     2100.2  Type=RKS/LOCAL(IBO)  
 Occupation numbers read from record     2100.2  Type=RKS/LOCAL(IBO)  
 Orbital energies read from record       2100.2  Type=RKS/LOCAL(IBO)  
 Redundancy group numbers read from rec  2100.2  Type=RKS/LOCAL(IBO)  

 IBBA/SVP energy=      0.000000000000

        KS-SCF  
   -154.88230310
 **********************************************************************************************************************************
 Molpro calculation terminated
