
 Primary working directories    : /tmp/sb13343
 Secondary working directories  : /tmp/sb13343
 Wavefunction directory         : /panfs/panasas01/chem/sb13343/wfu/
 Main file repository           : /tmp/sb13343/

 SHA1      : b4a5b34a9e711420743f49e6833241d17c61fb3c
 NAME      : 2099.9.b4a5b34
 ARCHNAME  : linux/x86_64_openmp
 FC        : /cm/shared/languages/GCC-6.1/bin/gfortran
 BLASLIB   : -lblas
 id        : simonbennie

 Nodes     nprocs
 node32-017    1

 Using customized tuning parameters: mindgm=1; mindgv=20; mindgc=4; mindgr=1; noblas=0; minvec=7
 default implementation of scratch files=df  

 memory,500,m
 geomtyp=xyz
 nosym
 noorient
 geometry={
 O          0.00000        0.00000        0.00000
 C          0.00000        0.00000        1.40986
 C          1.30431        0.00000       -0.53525
 H         -1.04418        0.00000        1.73410
 H          1.20786        0.00000       -1.62434
 H          0.50101        0.89295        1.81977
 H          1.87373        0.89295       -0.22737
 H          0.50101       -0.89295        1.81977
 H          1.87373       -0.89295       -0.22737
 }
 basis={ default,sto-3g }
 {ks,LDA,direct;wf,26,1,0}
 {ibba,bonds=1}

 Variables initialized (895), CPU time= 0.00 sec
 Commands  initialized (725), CPU time= 0.01 sec, 591 directives.
 Default parameters read. Elapsed time= 1.37 sec

 Checking input...
 Passed
1


                                         ***  PROGRAM SYSTEM MOLPRO  ***
                                       Copyright, TTI GmbH Stuttgart, 2015
                                    Version 2099.9 linked May 26 2017 16:03:21


 **********************************************************************************************************************************
 LABEL *                                                                                 
  64 bit serial version                                                                  DATE: 07-Jun-17          TIME: 16:20:36  
 **********************************************************************************************************************************

 SHA1:             b4a5b34a9e711420743f49e6833241d17c61fb3c
 **********************************************************************************************************************************
 SETTING GEOMTYP        =    XYZ

 Variable memory set to  500000000 words,  buffer space 

 ZSYMEL=NOSYM

 SETTING BASIS          =    STO-3G


 Recomputing integrals since basis changed


 Using spherical harmonics

 Library entry O      S STO-3G               selected for orbital group  1
 Library entry O      P STO-3G               selected for orbital group  1
 Library entry C      S STO-3G               selected for orbital group  2
 Library entry C      P STO-3G               selected for orbital group  2
 Library entry H      S STO-3G               selected for orbital group  3


 PROGRAM * SEWARD (Integral evaluation for generally contracted gaussian basis sets)     Author: Roland Lindh, 1990

 Geometry written to block  1 of record 700


 Point group  C1  



 ATOMIC COORDINATES

 NR  ATOM    CHARGE       X              Y              Z

   1  O       8.00    0.000000000    0.000000000    0.000000000
   2  C       6.00    0.000000000    0.000000000    2.664249274
   3  C       6.00    2.464788682    0.000000000   -1.011475908
   4  H       1.00   -1.973214225    0.000000000    3.276974073
   5  H       1.00    2.282524597    0.000000000   -3.069557733
   6  H       1.00    0.946771686    1.687430943    3.438866910
   7  H       1.00    3.540836531    1.687430943   -0.429667029
   8  H       1.00    0.946771686   -1.687430943    3.438866910
   9  H       1.00    3.540836531   -1.687430943   -0.429667029

 Bond lengths in Bohr (Angstrom)

 1-2  2.664249274  1-3  2.664257262  2-4  2.066157316  2-6  2.084186243  2-8  2.084186243
     ( 1.409860000)     ( 1.409864227)     ( 1.093363366)     ( 1.102903863)     ( 1.102903863)

 3-5  2.066136732  3-7  2.084179391  3-9  2.084179391
     ( 1.093352473)     ( 1.102900237)     ( 1.102900237)

 Bond angles

  1-2-4  107.25067522   1-2-6  111.81829608   1-2-8  111.81829608   1-3-5  107.25086594

  1-3-7  111.81797398   1-3-9  111.81797398   2-1-3  112.31178693   4-2-6  108.88149892

  4-2-8  108.88149892   5-3-7  108.88146655   5-3-9  108.88146655   6-2-8  108.12064679

  7-3-9  108.12116643

 NUCLEAR CHARGE:                   26
 NUMBER OF PRIMITIVE AOS:          63
 NUMBER OF SYMMETRY AOS:           63
 NUMBER OF CONTRACTIONS:           21   (  21A   )
 NUMBER OF CORE ORBITALS:           3   (   3A   )
 NUMBER OF VALENCE ORBITALS:       18   (  18A   )


 NUCLEAR REPULSION ENERGY   83.80024479


 Eigenvalues of metric

         1 0.234E+00 0.235E+00 0.359E+00 0.371E+00 0.377E+00 0.378E+00 0.398E+00 0.479E+00


 Contracted 2-electron integrals neglected if value below      1.0D-11
 AO integral compression algorithm  1   Integral accuracy      1.0D-11

     0.262 MB (compressed) written to integral file (100.0%)


 NUMBER OF SORTED TWO-ELECTRON INTEGRALS:      26796.     BUFFER LENGTH:  32768
 NUMBER OF SEGMENTS:   1  SEGMENT LENGTH:      26796      RECORD LENGTH: 524288

 Memory used in sort:       0.58 MW

 SORT1 READ       32133. AND WROTE       21402. INTEGRALS IN      1 RECORDS. CPU TIME:     0.00 SEC, REAL TIME:     0.01 SEC
 SORT2 READ       21402. AND WROTE       26796. INTEGRALS IN      1 RECORDS. CPU TIME:     0.00 SEC, REAL TIME:     0.01 SEC

 FILE SIZES:   FILE 1:    30.4 MBYTE,  FILE 4:     4.2 MBYTE,   TOTAL:     34.6 MBYTE

 OPERATOR DM      FOR CENTER  0  COORDINATES:    0.000000    0.000000    0.000000


 **********************************************************************************************************************************
 DATASETS  * FILE   NREC   LENGTH (MB)   RECORD NAMES
              1      19       30.21       500      610      700      900      950      970     1000      129      960     1100   
                                          VAR    BASINP    GEOM    SYMINP    ZMAT    AOBASIS   BASIS     P2S    ABASIS      S 
                                         1400     1410     1200     1210     1080     1600     1650     1300     1700   
                                           T        V       H0       H01     AOSYM     SMH    MOLCAS    ERIS     OPER   

 PROGRAMS   *        TOTAL       INT
 CPU TIMES  *         0.37      0.23
 REAL TIME  *         2.17 SEC
 DISK USED  *        34.99 MB      
 **********************************************************************************************************************************

 Density functional group LDA=DIRAC+VWN5
 Functional: DIRAC(Automatically generated (new) DIRAC)                        Gradient terms: 0
 Functional: VWN5(Automatically generated (new) VWN5)                          Gradient terms: 0
 Use grid at  1800.2

 Functional: DIRAC                     Factor:  1.0000
 Functional: VWN5                      Factor:  1.0000

 Generated new metagrid on record  1800.2 with target accuracy 1.0D-06 and 33732 points in CPU time    0.9
 Computed new grid on record 1800.1 in CPU time    0.9
   12894 words reserved for DFT integration

 PROGRAM * RKS-SCF (Restricted closed shell Kohn-Sham)     Authors: W. Meyer, H.-J. Werner, P.J. Knowles, 1993

 NUMBER OF ELECTRONS:      13+   13-    SPACE SYMMETRY=1    SPIN SYMMETRY: Singlet 
 CONVERGENCE THRESHOLDS:    1.00E-05 (Density)    1.00E-06 (Energy)
 MAX. NUMBER OF ITERATIONS:       60
 INTERPOLATION TYPE:            DIIS
 INTERPOLATION STEPS:              2 (START)      1 (STEP)
 LEVEL SHIFTS:                  0.00 (CLOSED)  0.00 (OPEN) 



 Use fine grid record 1800.2 for energy threshold  1.0D-06
 Orbital guess generated from atomic densities. Full valence occupancy:   13

 Molecular orbital dump at record        2100.2

 Initial occupancy:  13

 ITERATION    DDIFF          GRAD             ENERGY        2-EL.EN.            DIPOLE MOMENTS         DIIS   ORB.
    1      0.000D+00      0.000D+00      -151.56200991    325.827624    1.01475    0.00000    0.68046    0    start
    2      0.000D+00      0.310D-01      -151.52589013    309.886160   -0.57375    0.00000   -0.38475    1    diag
    3      0.120D+00      0.357D-01      -151.70150821    317.873591    0.45381    0.00000    0.30430    2    diag
    4      0.655D-01      0.544D-02      -151.70487026    317.985517    0.34853    0.00000    0.23371    3    diag
    5      0.966D-02      0.114D-02      -151.70502171    317.963978    0.35658    0.00000    0.23910    4    diag
    6      0.168D-02      0.647D-04      -151.70502253    317.965588    0.35967    0.00000    0.24117    5    diag
    7      0.159D-03      0.286D-05      -151.70502254    317.965957    0.35968    0.00000    0.24118    6    diag
    8      0.480D-05      0.377D-06      -151.70502254    317.966102    0.35970    0.00000    0.24120    0    orth

 Final occupancy:  13

 !RKS STATE 1.1 Energy               -151.705022536074
 Nuclear energy                        83.80024479
 One-electron energy                 -374.09196304
 Two-electron energy                  158.98305100
 Density functional                   -20.39635529     DIRAC=-18.73055912 VWN5= -1.66579617
 Virial quotient                       -1.00799834
 !RKS STATE 1.1 Dipole moment           0.35970398     0.00000000     0.24119934
 Dipole moment /Debye                   0.91421645     0.00000000     0.61302742

 Orbital energies:

         1.1          2.1          3.1          4.1          5.1          6.1          7.1          8.1          9.1         10.1
    -18.342288    -9.625579    -9.625175    -0.873832    -0.599773    -0.521083    -0.367069    -0.364543    -0.361431    -0.304049

        11.1         12.1         13.1         14.1         15.1
     -0.281981    -0.147934    -0.069975     0.262830     0.348959

 HOMO     13.1    -0.069975 =      -1.9041eV
 LUMO     14.1     0.262830 =       7.1520eV
 LUMO-HOMO         0.332805 =       9.0561eV


 **********************************************************************************************************************************
 DATASETS  * FILE   NREC   LENGTH (MB)   RECORD NAMES
              1      20       31.29       500      610      700      900      950      970     1000      129      960     1100   
                                          VAR    BASINP    GEOM    SYMINP    ZMAT    AOBASIS   BASIS     P2S    ABASIS      S 
                                         1400     1410     1200     1210     1080     1600     1650     1300     1700     1800   
                                           T        V       H0       H01     AOSYM     SMH    MOLCAS    ERIS     OPER     GRID   

              2       5        2.90       700     1000      520     1800     2100   
                                         GEOM     BASIS   MCVARS    GRID      RKS  

 PROGRAMS   *        TOTAL        KS       INT
 CPU TIMES  *         2.05      1.67      0.23
 REAL TIME  *         3.95 SEC
 DISK USED  *        34.99 MB      
 **********************************************************************************************************************************


 PROGRAM * Intrinsic Basis Bonding Analysis (IBBA)          Author: G. Knizia

 Molecular orbitals read from record     2100.2  Type=RKS/CANONICAL (state 1.1)
 Fock matrix read from record            2100.2  Type=RKS/TOTAL (state 1.1)
 Orbital energies read from record       2100.2  Type=RKS/CANONICAL (state 1.1)
 Density matrix read from record         2100.2  Type=RKS/CHARGE (state 1.1)

 Number of core orbitals:           3 (   3 )
 Number of closed-shell orbitals:  10 (  10 )

 Basis set MINAO-AUTO-PP generated.      Number of basis functions:   21 

 Polarized AO type:                A = (O Ot + (1-O)(1-Ot)) P12
 Orthogonalization method:         Symmetric (Loewdin)
 Localization functional:          L = sum[A,i] <i|n_A|i>^4 -> max

 Localization group 1:  13 orbitals, occupancy  2.000
 Iterative localization: IB/PM,    7 iter; Final gradient 0.38E-09

 Bond order analysis:       [THRPRINT= 0.020]

   CEN ATOM   CEN ATOM     WIBERG.BO      RENORM.BO
     1   O  -   2   C       1.023009       1.018231
     1   O  -   3   C       1.023005       1.018230
     1   O  -   8   H       0.033325       0.020282
     1   O  -   6   H       0.033325       0.020282
     1   O  -   9   H       0.033324       0.020281
     1   O  -   7   H       0.033324       0.020281

     2   C  -   1   O       1.023009       1.018231
     2   C  -   4   H       0.949521       0.972774
     2   C  -   8   H       0.945540       0.940494
     2   C  -   6   H       0.945540       0.940494

     3   C  -   1   O       1.023005       1.018230
     3   C  -   5   H       0.949522       0.972774
     3   C  -   9   H       0.945541       0.940496
     3   C  -   7   H       0.945541       0.940496

     4   H  -   2   C       0.949521       0.972774

     5   H  -   3   C       0.949522       0.972774

     6   H  -   2   C       0.945540       0.940494
     6   H  -   1   O       0.033325       0.020282

     7   H  -   3   C       0.945541       0.940496
     7   H  -   1   O       0.033324       0.020281

     8   H  -   2   C       0.945540       0.940494
     8   H  -   1   O       0.033325       0.020282

     9   H  -   3   C       0.945541       0.940496
     9   H  -   1   O       0.033324       0.020281


 Valency analysis:

   CEN ATOM   TOT.VALENCE
     1   O       2.196065
     2   C       3.883881
     3   C       3.883881
     4   H       0.975989
     5   H       0.975990
     6   H       0.983842
     7   H       0.983842
     8   H       0.983842
     9   H       0.983842

 Total charge composition:

   CEN ATOM         s          p       ELECTRONS ->P.CHARGE
     1   O       3.64407    4.55549      8.19956   -0.19956
     2   C       3.00787    3.30153      6.30940   -0.30940
     3   C       3.00786    3.30153      6.30940   -0.30940
     4   H       0.84505                 0.84505    0.15495
     5   H       0.84505                 0.84505    0.15495
     6   H       0.87289                 0.87289    0.12711
     7   H       0.87289                 0.87289    0.12711
     8   H       0.87289                 0.87289    0.12711
     9   H       0.87289                 0.87289    0.12711

 Total charge composition, AO contributions:

   CEN ATOM SHL      SPHERICAL COMPONENTS
     1   O  1s       1.99744
     1   O  2s       1.64663
     1   O  2p       1.39617    1.89955    1.25976

     2   C  1s       1.99333
     2   C  2s       1.01454
     2   C  2p       1.20866    1.19882    0.89405

     3   C  1s       1.99333
     3   C  2s       1.01453
     3   C  2p       0.93968    1.19882    1.16304

     4   H  1s       0.84505

     5   H  1s       0.84505

     6   H  1s       0.87289

     7   H  1s       0.87289

     8   H  1s       0.87289

     9   H  1s       0.87289

 Summary of localized orbital composition:   [THRPRINT= 0.020]

   ORB  GRP  ORB.ENERGY      CENTERS/CHARGES
     1   1   -18.188734      O  1   2.000
     2   1    -9.522131      C  3   2.000
     3   1    -9.522128      C  2   2.000
     4   1    -0.601090      O  1   1.162   C  2   0.828
     5   1    -0.601086      O  1   1.162   C  3   0.828
     6   1    -0.424822      C  3   1.157   H  5   0.834
     7   1    -0.424813      C  2   1.157   H  4   0.834
     8   1    -0.422432      C  3   1.146   H  9   0.852
     9   1    -0.422432      C  3   1.146   H  7   0.852
    10   1    -0.422428      C  2   1.146   H  8   0.852
    11   1    -0.422428      C  2   1.146   H  6   0.852
    12   1    -0.406524      O  1   1.969   (other: 0.031)
    13   1    -0.103662      O  1   1.899   (other: 0.101)

 Localized orbitals saved to record      2100.2  (orbital set 2)


 **********************************************************************************************************************************
 DATASETS  * FILE   NREC   LENGTH (MB)   RECORD NAMES
              1      20       31.29       500      610      700      900      950      970     1000      129      960     1100   
                                          VAR    BASINP    GEOM    SYMINP    ZMAT    AOBASIS   BASIS     P2S    ABASIS      S 
                                         1400     1410     1200     1210     1080     1600     1650     1300     1700     1800   
                                           T        V       H0       H01     AOSYM     SMH    MOLCAS    ERIS     OPER     GRID   

              2       5        2.90       700     1000      520     1800     2100   
                                         GEOM     BASIS   MCVARS    GRID      RKS  

 PROGRAMS   *        TOTAL      IBBA        KS       INT
 CPU TIMES  *         2.07      0.02      1.67      0.23
 REAL TIME  *         4.03 SEC
 DISK USED  *        34.99 MB      
 **********************************************************************************************************************************
 Molecular orbitals read from record     2100.2  Type=RKS/LOCAL(IBO)  
 Occupation numbers read from record     2100.2  Type=RKS/LOCAL(IBO)  
 Orbital energies read from record       2100.2  Type=RKS/LOCAL(IBO)  
 Redundancy group numbers read from rec  2100.2  Type=RKS/LOCAL(IBO)  

 IBBA/STO-3G energy=      0.000000000000

        KS-SCF  
   -151.70502254
 **********************************************************************************************************************************
 Molpro calculation terminated
