
 Primary working directories    : /tmp/sb13343
 Secondary working directories  : /tmp/sb13343
 Wavefunction directory         : /panfs/panasas01/chem/sb13343/wfu/
 Main file repository           : /tmp/sb13343/

 SHA1      : b4a5b34a9e711420743f49e6833241d17c61fb3c
 NAME      : 2099.9.b4a5b34
 ARCHNAME  : linux/x86_64_openmp
 FC        : /cm/shared/languages/GCC-6.1/bin/gfortran
 BLASLIB   : -lblas
 id        : simonbennie

 Nodes     nprocs
 node32-013    1

 Using customized tuning parameters: mindgm=1; mindgv=20; mindgc=4; mindgr=1; noblas=0; minvec=7
 default implementation of scratch files=df  

 memory,500,m
 geomtyp=xyz
 nosym
 noorient
 geometry={
 O          0.00000        0.00000        0.00000
 C          0.00000        0.00000        1.40986
 C          1.30431        0.00000       -0.53525
 H         -1.04418        0.00000        1.73410
 H          1.20786        0.00000       -1.62434
 H          0.50101        0.89295        1.81977
 H          1.87373        0.89295       -0.22737
 H          0.50101       -0.89295        1.81977
 H          1.87373       -0.89295       -0.22737
 }
 basis={ default,sto-3g }
 {ks,MM05-2X,direct;wf,26,1,0}
 {ibba,bonds=1}

 Variables initialized (895), CPU time= 0.00 sec
 Commands  initialized (725), CPU time= 0.02 sec, 591 directives.
 Default parameters read. Elapsed time= 1.41 sec

 Checking input...
 Passed
1


                                         ***  PROGRAM SYSTEM MOLPRO  ***
                                       Copyright, TTI GmbH Stuttgart, 2015
                                    Version 2099.9 linked May 26 2017 16:03:21


 **********************************************************************************************************************************
 LABEL *                                                                                 
  64 bit serial version                                                                  DATE: 07-Jun-17          TIME: 16:23:16  
 **********************************************************************************************************************************

 SHA1:             b4a5b34a9e711420743f49e6833241d17c61fb3c
 **********************************************************************************************************************************
 SETTING GEOMTYP        =    XYZ

 Variable memory set to  500000000 words,  buffer space 

 ZSYMEL=NOSYM

 SETTING BASIS          =    STO-3G


 Recomputing integrals since basis changed


 Using spherical harmonics

 Library entry O      S STO-3G               selected for orbital group  1
 Library entry O      P STO-3G               selected for orbital group  1
 Library entry C      S STO-3G               selected for orbital group  2
 Library entry C      P STO-3G               selected for orbital group  2
 Library entry H      S STO-3G               selected for orbital group  3


 PROGRAM * SEWARD (Integral evaluation for generally contracted gaussian basis sets)     Author: Roland Lindh, 1990

 Geometry written to block  1 of record 700


 Point group  C1  



 ATOMIC COORDINATES

 NR  ATOM    CHARGE       X              Y              Z

   1  O       8.00    0.000000000    0.000000000    0.000000000
   2  C       6.00    0.000000000    0.000000000    2.664249274
   3  C       6.00    2.464788682    0.000000000   -1.011475908
   4  H       1.00   -1.973214225    0.000000000    3.276974073
   5  H       1.00    2.282524597    0.000000000   -3.069557733
   6  H       1.00    0.946771686    1.687430943    3.438866910
   7  H       1.00    3.540836531    1.687430943   -0.429667029
   8  H       1.00    0.946771686   -1.687430943    3.438866910
   9  H       1.00    3.540836531   -1.687430943   -0.429667029

 Bond lengths in Bohr (Angstrom)

 1-2  2.664249274  1-3  2.664257262  2-4  2.066157316  2-6  2.084186243  2-8  2.084186243
     ( 1.409860000)     ( 1.409864227)     ( 1.093363366)     ( 1.102903863)     ( 1.102903863)

 3-5  2.066136732  3-7  2.084179391  3-9  2.084179391
     ( 1.093352473)     ( 1.102900237)     ( 1.102900237)

 Bond angles

  1-2-4  107.25067522   1-2-6  111.81829608   1-2-8  111.81829608   1-3-5  107.25086594

  1-3-7  111.81797398   1-3-9  111.81797398   2-1-3  112.31178693   4-2-6  108.88149892

  4-2-8  108.88149892   5-3-7  108.88146655   5-3-9  108.88146655   6-2-8  108.12064679

  7-3-9  108.12116643

 NUCLEAR CHARGE:                   26
 NUMBER OF PRIMITIVE AOS:          63
 NUMBER OF SYMMETRY AOS:           63
 NUMBER OF CONTRACTIONS:           21   (  21A   )
 NUMBER OF CORE ORBITALS:           3   (   3A   )
 NUMBER OF VALENCE ORBITALS:       18   (  18A   )


 NUCLEAR REPULSION ENERGY   83.80024479


 Eigenvalues of metric

         1 0.234E+00 0.235E+00 0.359E+00 0.371E+00 0.377E+00 0.378E+00 0.398E+00 0.479E+00


 Contracted 2-electron integrals neglected if value below      1.0D-11
 AO integral compression algorithm  1   Integral accuracy      1.0D-11

     0.262 MB (compressed) written to integral file (100.0%)


 NUMBER OF SORTED TWO-ELECTRON INTEGRALS:      26796.     BUFFER LENGTH:  32768
 NUMBER OF SEGMENTS:   1  SEGMENT LENGTH:      26796      RECORD LENGTH: 524288

 Memory used in sort:       0.58 MW

 SORT1 READ       32133. AND WROTE       21402. INTEGRALS IN      1 RECORDS. CPU TIME:     0.00 SEC, REAL TIME:     0.01 SEC
 SORT2 READ       21402. AND WROTE       26796. INTEGRALS IN      1 RECORDS. CPU TIME:     0.01 SEC, REAL TIME:     0.01 SEC

 FILE SIZES:   FILE 1:    30.4 MBYTE,  FILE 4:     4.2 MBYTE,   TOTAL:     34.6 MBYTE

 OPERATOR DM      FOR CENTER  0  COORDINATES:    0.000000    0.000000    0.000000


 **********************************************************************************************************************************
 DATASETS  * FILE   NREC   LENGTH (MB)   RECORD NAMES
              1      19       30.21       500      610      700      900      950      970     1000      129      960     1100   
                                          VAR    BASINP    GEOM    SYMINP    ZMAT    AOBASIS   BASIS     P2S    ABASIS      S 
                                         1400     1410     1200     1210     1080     1600     1650     1300     1700   
                                           T        V       H0       H01     AOSYM     SMH    MOLCAS    ERIS     OPER   

 PROGRAMS   *        TOTAL       INT
 CPU TIMES  *         0.36      0.22
 REAL TIME  *         2.04 SEC
 DISK USED  *        34.99 MB      
 **********************************************************************************************************************************

 Density functional group MM05-2X=M052XX+M052XC
 Functional: M052XX(Automatically generated (new) M052XX)                      Gradient terms: 2
 Functional: M052XC(Automatically generated (new) M052XC)                      Gradient terms: 2
 Use grid at  1800.2


 Exact exchange will be calculated, factor:  0.5600

 Functional: M052XX                    Factor:  0.4400
 Functional: M052XC                    Factor:  1.0000

 Generated new metagrid on record  1800.2 with target accuracy 1.0D-06 and 33732 points in CPU time    0.9
 Computed new grid on record 1800.1 in CPU time    1.0
   36897 words reserved for DFT integration

 PROGRAM * RKS-SCF (Restricted closed shell Kohn-Sham)     Authors: W. Meyer, H.-J. Werner, P.J. Knowles, 1993

 NUMBER OF ELECTRONS:      13+   13-    SPACE SYMMETRY=1    SPIN SYMMETRY: Singlet 
 CONVERGENCE THRESHOLDS:    1.00E-05 (Density)    1.00E-06 (Energy)
 MAX. NUMBER OF ITERATIONS:       60
 INTERPOLATION TYPE:            DIIS
 INTERPOLATION STEPS:              2 (START)      1 (STEP)
 LEVEL SHIFTS:                  0.00 (CLOSED)  0.00 (OPEN) 



 Use fine grid record 1800.2 for energy threshold  1.0D-06
 Orbital guess generated from atomic densities. Full valence occupancy:   13

 Molecular orbital dump at record        2100.2

 Initial occupancy:  13

 ITERATION    DDIFF          GRAD             ENERGY        2-EL.EN.            DIPOLE MOMENTS         DIIS   ORB.
    1      0.000D+00      0.000D+00      -152.98718154    300.288806    0.98325    0.00000    0.65913    0    start
    2      0.000D+00      0.254D-01      -153.06039042    291.728655    0.03375    0.00000    0.02097    1    diag
    3      0.673D-01      0.133D-01      -153.08469431    294.326134    0.40017    0.00000    0.26762    2    diag
    4      0.225D-01      0.141D-02      -153.08494843    294.418251    0.38156    0.00000    0.25497    3    diag
    5      0.289D-02      0.426D-03      -153.08497503    294.390932    0.38372    0.00000    0.25636    4    diag
    6      0.758D-03      0.275D-04      -153.08497531    294.390811    0.38389    0.00000    0.25647    5    diag
    7      0.114D-03      0.343D-05      -153.08497531    294.390762    0.38386    0.00000    0.25645    6    diag
    8      0.127D-04      0.474D-06      -153.08497531    294.390783    0.38386    0.00000    0.25645    7    diag
    9      0.136D-05      0.646D-07      -153.08497531    294.390786    0.38386    0.00000    0.25645    0    orth

 Final occupancy:  13

 !RKS STATE 1.1 Energy               -153.084975312825
 Nuclear energy                        83.80024479
 One-electron energy                 -373.95870704
 Two-electron energy                  147.19539290
 SCF exchange energy                  -20.83224048     Factor= 0.5600
 Density functional                   -10.12190597     M052XX=-20.91171224 M052XC= -0.92075258
 Virial quotient                       -1.01608431
 !RKS STATE 1.1 Dipole moment           0.38386479     0.00000000     0.25645431
 Dipole moment /Debye                   0.97562308     0.00000000     0.65179914

 Orbital energies:

         1.1          2.1          3.1          4.1          5.1          6.1          7.1          8.1          9.1         10.1
    -19.435228   -10.450182   -10.449875    -1.095315    -0.775427    -0.691535    -0.505400    -0.502884    -0.490912    -0.432881

        11.1         12.1         13.1         14.1         15.1
     -0.403037    -0.291874    -0.226527     0.387834     0.479482

 HOMO     13.1    -0.226527 =      -6.1641eV
 LUMO     14.1     0.387834 =      10.5535eV
 LUMO-HOMO         0.614361 =      16.7176eV


 **********************************************************************************************************************************
 DATASETS  * FILE   NREC   LENGTH (MB)   RECORD NAMES
              1      20       31.29       500      610      700      900      950      970     1000      129      960     1100   
                                          VAR    BASINP    GEOM    SYMINP    ZMAT    AOBASIS   BASIS     P2S    ABASIS      S 
                                         1400     1410     1200     1210     1080     1600     1650     1300     1700     1800   
                                           T        V       H0       H01     AOSYM     SMH    MOLCAS    ERIS     OPER     GRID   

              2       5        2.90       700     1000      520     1800     2100   
                                         GEOM     BASIS   MCVARS    GRID      RKS  

 PROGRAMS   *        TOTAL        KS       INT
 CPU TIMES  *         3.76      3.40      0.22
 REAL TIME  *         5.73 SEC
 DISK USED  *        34.99 MB      
 **********************************************************************************************************************************


 PROGRAM * Intrinsic Basis Bonding Analysis (IBBA)          Author: G. Knizia

 Molecular orbitals read from record     2100.2  Type=RKS/CANONICAL (state 1.1)
 Fock matrix read from record            2100.2  Type=RKS/TOTAL (state 1.1)
 Orbital energies read from record       2100.2  Type=RKS/CANONICAL (state 1.1)
 Density matrix read from record         2100.2  Type=RKS/CHARGE (state 1.1)

 Number of core orbitals:           3 (   3 )
 Number of closed-shell orbitals:  10 (  10 )

 Basis set MINAO-AUTO-PP generated.      Number of basis functions:   21 

 Polarized AO type:                A = (O Ot + (1-O)(1-Ot)) P12
 Orthogonalization method:         Symmetric (Loewdin)
 Localization functional:          L = sum[A,i] <i|n_A|i>^4 -> max

 Localization group 1:  13 orbitals, occupancy  2.000
 Iterative localization: IB/PM,    7 iter; Final gradient 0.33E-09

 Bond order analysis:       [THRPRINT= 0.020]

   CEN ATOM   CEN ATOM     WIBERG.BO      RENORM.BO
     1   O  -   2   C       1.012244       1.013732
     1   O  -   3   C       1.012134       1.013723
     1   O  -   8   H       0.024843       0.014778
     1   O  -   6   H       0.024843       0.014778
     1   O  -   7   H       0.024829       0.014772
     1   O  -   9   H       0.024829       0.014772

     2   C  -   1   O       1.012244       1.013732
     2   C  -   8   H       0.957924       0.955700
     2   C  -   6   H       0.957924       0.955700
     2   C  -   4   H       0.957483       0.977607

     3   C  -   1   O       1.012134       1.013723
     3   C  -   9   H       0.957916       0.955728
     3   C  -   7   H       0.957916       0.955728
     3   C  -   5   H       0.957451       0.977605

     4   H  -   2   C       0.957483       0.977607

     5   H  -   3   C       0.957451       0.977605

     6   H  -   2   C       0.957924       0.955700
     6   H  -   1   O       0.024843       0.014778

     7   H  -   3   C       0.957916       0.955728
     7   H  -   1   O       0.024829       0.014772

     8   H  -   2   C       0.957924       0.955700
     8   H  -   1   O       0.024843       0.014778

     9   H  -   3   C       0.957916       0.955728
     9   H  -   1   O       0.024829       0.014772


 Valency analysis:

   CEN ATOM   TOT.VALENCE
     1   O       2.135916
     2   C       3.903189
     3   C       3.903031
     4   H       0.979732
     5   H       0.979714
     6   H       0.986503
     7   H       0.986489
     8   H       0.986503
     9   H       0.986489

 Total charge composition:

   CEN ATOM         s          p       ELECTRONS ->P.CHARGE
     1   O       3.63765    4.58431      8.22195   -0.22195
     2   C       3.00164    3.26225      6.26389   -0.26389
     3   C       3.00154    3.26224      6.26378   -0.26378
     4   H       0.85763                 0.85763    0.14237
     5   H       0.85757                 0.85757    0.14243
     6   H       0.88382                 0.88382    0.11618
     7   H       0.88376                 0.88376    0.11624
     8   H       0.88382                 0.88382    0.11618
     9   H       0.88376                 0.88376    0.11624

 Total charge composition, AO contributions:

   CEN ATOM SHL      SPHERICAL COMPONENTS
     1   O  1s       1.99715
     1   O  2s       1.64050
     1   O  2p       1.40046    1.92765    1.25620

     2   C  1s       1.99210
     2   C  2s       1.00953
     2   C  2p       1.19105    1.17549    0.89571

     3   C  1s       1.99210
     3   C  2s       1.00944
     3   C  2p       0.93775    1.17559    1.14890

     4   H  1s       0.85763

     5   H  1s       0.85757

     6   H  1s       0.88382

     7   H  1s       0.88376

     8   H  1s       0.88382

     9   H  1s       0.88376

 Summary of localized orbital composition:   [THRPRINT= 0.020]

   ORB  GRP  ORB.ENERGY      CENTERS/CHARGES
     1   1   -19.258569      O  1   2.000
     2   1   -10.339070      C  3   2.000
     3   1   -10.338954      C  2   2.000
     4   1    -0.756746      O  1   1.157   C  3   0.835
     5   1    -0.756646      O  1   1.157   C  2   0.835
     6   1    -0.620691      O  1   1.976   (other: 0.024)
     7   1    -0.568745      C  3   1.144   H  5   0.849
     8   1    -0.568575      C  2   1.144   H  4   0.849
     9   1    -0.567336      C  3   1.130   H  7   0.869
    10   1    -0.567336      C  3   1.130   H  9   0.869
    11   1    -0.567225      C  2   1.130   H  6   0.869
    12   1    -0.567225      C  2   1.130   H  8   0.869
    13   1    -0.273958      O  1   1.927   (other: 0.073)

 Localized orbitals saved to record      2100.2  (orbital set 2)


 **********************************************************************************************************************************
 DATASETS  * FILE   NREC   LENGTH (MB)   RECORD NAMES
              1      20       31.29       500      610      700      900      950      970     1000      129      960     1100   
                                          VAR    BASINP    GEOM    SYMINP    ZMAT    AOBASIS   BASIS     P2S    ABASIS      S 
                                         1400     1410     1200     1210     1080     1600     1650     1300     1700     1800   
                                           T        V       H0       H01     AOSYM     SMH    MOLCAS    ERIS     OPER     GRID   

              2       5        2.90       700     1000      520     1800     2100   
                                         GEOM     BASIS   MCVARS    GRID      RKS  

 PROGRAMS   *        TOTAL      IBBA        KS       INT
 CPU TIMES  *         3.79      0.02      3.40      0.22
 REAL TIME  *         5.80 SEC
 DISK USED  *        34.99 MB      
 **********************************************************************************************************************************
 Molecular orbitals read from record     2100.2  Type=RKS/LOCAL(IBO)  
 Occupation numbers read from record     2100.2  Type=RKS/LOCAL(IBO)  
 Orbital energies read from record       2100.2  Type=RKS/LOCAL(IBO)  
 Redundancy group numbers read from rec  2100.2  Type=RKS/LOCAL(IBO)  

 IBBA/STO-3G energy=      0.000000000000

        KS-SCF  
   -153.08497531
 **********************************************************************************************************************************
 Molpro calculation terminated
