
 Primary working directories    : /tmp/sb13343
 Secondary working directories  : /tmp/sb13343
 Wavefunction directory         : /panfs/panasas01/chem/sb13343/wfu/
 Main file repository           : /tmp/sb13343/

 SHA1      : b4a5b34a9e711420743f49e6833241d17c61fb3c
 NAME      : 2099.9.b4a5b34
 ARCHNAME  : linux/x86_64_openmp
 FC        : /cm/shared/languages/GCC-6.1/bin/gfortran
 BLASLIB   : -lblas
 id        : simonbennie

 Nodes     nprocs
 node33-023    1

 Using customized tuning parameters: mindgm=1; mindgv=20; mindgc=4; mindgr=1; noblas=0; minvec=7
 default implementation of scratch files=df  

 memory,500,m
 geomtyp=xyz
 nosym
 noorient
 geometry={
 O          0.00000        0.00000        0.00000
 C          0.00000        0.00000        1.40986
 C          1.30431        0.00000       -0.53525
 H         -1.04418        0.00000        1.73410
 H          1.20786        0.00000       -1.62434
 H          0.50101        0.89295        1.81977
 H          1.87373        0.89295       -0.22737
 H          0.50101       -0.89295        1.81977
 H          1.87373       -0.89295       -0.22737
 }
 basis={ default,svp }
 {ks,M06-2X,direct;wf,26,1,0}
 {ibba,bonds=1}

 Variables initialized (895), CPU time= 0.01 sec
 Commands  initialized (725), CPU time= 0.01 sec, 591 directives.
 Default parameters read. Elapsed time= 1.86 sec

 Checking input...
 Passed
1


                                         ***  PROGRAM SYSTEM MOLPRO  ***
                                       Copyright, TTI GmbH Stuttgart, 2015
                                    Version 2099.9 linked May 26 2017 16:03:21


 **********************************************************************************************************************************
 LABEL *                                                                                 
  64 bit serial version                                                                  DATE: 07-Jun-17          TIME: 16:46:12  
 **********************************************************************************************************************************

 SHA1:             b4a5b34a9e711420743f49e6833241d17c61fb3c
 **********************************************************************************************************************************
 SETTING GEOMTYP        =    XYZ

 Variable memory set to  500000000 words,  buffer space 

 ZSYMEL=NOSYM

 SETTING BASIS          =    SVP


 Recomputing integrals since basis changed


 Using spherical harmonics

 Library entry O      S def2-SVP             selected for orbital group  1
 Library entry O      P def2-SVP             selected for orbital group  1
 Library entry O      D def2-SVP             selected for orbital group  1
 Library entry C      S def2-SVP             selected for orbital group  2
 Library entry C      P def2-SVP             selected for orbital group  2
 Library entry C      D def2-SVP             selected for orbital group  2
 Library entry H      S def2-SVP             selected for orbital group  3
 Library entry H      P def2-SVP             selected for orbital group  3


 PROGRAM * SEWARD (Integral evaluation for generally contracted gaussian basis sets)     Author: Roland Lindh, 1990

 Geometry written to block  1 of record 700


 Point group  C1  



 ATOMIC COORDINATES

 NR  ATOM    CHARGE       X              Y              Z

   1  O       8.00    0.000000000    0.000000000    0.000000000
   2  C       6.00    0.000000000    0.000000000    2.664249274
   3  C       6.00    2.464788682    0.000000000   -1.011475908
   4  H       1.00   -1.973214225    0.000000000    3.276974073
   5  H       1.00    2.282524597    0.000000000   -3.069557733
   6  H       1.00    0.946771686    1.687430943    3.438866910
   7  H       1.00    3.540836531    1.687430943   -0.429667029
   8  H       1.00    0.946771686   -1.687430943    3.438866910
   9  H       1.00    3.540836531   -1.687430943   -0.429667029

 Bond lengths in Bohr (Angstrom)

 1-2  2.664249274  1-3  2.664257262  2-4  2.066157316  2-6  2.084186243  2-8  2.084186243
     ( 1.409860000)     ( 1.409864227)     ( 1.093363366)     ( 1.102903863)     ( 1.102903863)

 3-5  2.066136732  3-7  2.084179391  3-9  2.084179391
     ( 1.093352473)     ( 1.102900237)     ( 1.102900237)

 Bond angles

  1-2-4  107.25067522   1-2-6  111.81829608   1-2-8  111.81829608   1-3-5  107.25086594

  1-3-7  111.81797398   1-3-9  111.81797398   2-1-3  112.31178693   4-2-6  108.88149892

  4-2-8  108.88149892   5-3-7  108.88146655   5-3-9  108.88146655   6-2-8  108.12064679

  7-3-9  108.12116643

 NUCLEAR CHARGE:                   26
 NUMBER OF PRIMITIVE AOS:         117
 NUMBER OF SYMMETRY AOS:          114
 NUMBER OF CONTRACTIONS:           72   (  72A   )
 NUMBER OF CORE ORBITALS:           3   (   3A   )
 NUMBER OF VALENCE ORBITALS:       18   (  18A   )


 NUCLEAR REPULSION ENERGY   83.80024479


 Eigenvalues of metric

         1 0.907E-02 0.130E-01 0.293E-01 0.353E-01 0.441E-01 0.490E-01 0.499E-01 0.601E-01


 Contracted 2-electron integrals neglected if value below      1.0D-11
 AO integral compression algorithm  1   Integral accuracy      1.0D-11

     14.156 MB (compressed) written to integral file ( 45.3%)


 NUMBER OF SORTED TWO-ELECTRON INTEGRALS:    3454506.     BUFFER LENGTH:  32768
 NUMBER OF SEGMENTS:   1  SEGMENT LENGTH:    3454506      RECORD LENGTH: 524288

 Memory used in sort:       4.01 MW

 SORT1 READ     3931143. AND WROTE     2907067. INTEGRALS IN      9 RECORDS. CPU TIME:     0.04 SEC, REAL TIME:     0.09 SEC
 SORT2 READ     2907067. AND WROTE     3454506. INTEGRALS IN     54 RECORDS. CPU TIME:     0.12 SEC, REAL TIME:     0.15 SEC

 FILE SIZES:   FILE 1:    44.4 MBYTE,  FILE 4:    37.8 MBYTE,   TOTAL:     82.2 MBYTE

 OPERATOR DM      FOR CENTER  0  COORDINATES:    0.000000    0.000000    0.000000


 **********************************************************************************************************************************
 DATASETS  * FILE   NREC   LENGTH (MB)   RECORD NAMES
              1      19       42.45       500      610      700      900      950      970     1000      129      960     1100   
                                          VAR    BASINP    GEOM    SYMINP    ZMAT    AOBASIS   BASIS     P2S    ABASIS      S 
                                         1400     1410     1200     1210     1080     1600     1650     1300     1700   
                                           T        V       H0       H01     AOSYM     SMH    MOLCAS    ERIS     OPER   

 PROGRAMS   *        TOTAL       INT
 CPU TIMES  *         0.91      0.77
 REAL TIME  *         3.18 SEC
 DISK USED  *        82.64 MB      
 **********************************************************************************************************************************

 Density functional group M06-2X=XC-M06-2X
 Functional: XC-M06-2X(via MFM 1.6)                                            Gradient terms: 1
 Use grid at  1800.2


 Exact exchange will be calculated, factor:  0.5400

 Functional: XC-M06-2X                 Factor:  1.0000

 Generated new metagrid on record  1800.2 with target accuracy 1.0D-06 and 33732 points in CPU time    0.9
 Computed new grid on record 1800.1 in CPU time    0.9
   61197 words reserved for DFT integration

 PROGRAM * RKS-SCF (Restricted closed shell Kohn-Sham)     Authors: W. Meyer, H.-J. Werner, P.J. Knowles, 1993

 NUMBER OF ELECTRONS:      13+   13-    SPACE SYMMETRY=1    SPIN SYMMETRY: Singlet 
 CONVERGENCE THRESHOLDS:    1.00E-05 (Density)    1.00E-06 (Energy)
 MAX. NUMBER OF ITERATIONS:       60
 INTERPOLATION TYPE:            DIIS
 INTERPOLATION STEPS:              2 (START)      1 (STEP)
 LEVEL SHIFTS:                  0.00 (CLOSED)  0.00 (OPEN) 



 Use fine grid record 1800.2 for energy threshold  1.0D-06
 Orbital guess generated from atomic densities. Full valence occupancy:   13

 Molecular orbital dump at record        2100.2

 Initial occupancy:  13

 ITERATION    DDIFF          GRAD             ENERGY        2-EL.EN.            DIPOLE MOMENTS         DIIS   ORB.
    1      0.000D+00      0.000D+00      -154.79007775    298.080629    0.76800    0.00000    0.51507    0    start
    2      0.000D+00      0.658D-02      -154.80307963    290.736996    0.21584    0.00000    0.14524    1    diag
    3      0.102D-01      0.582D-02      -154.82394965    294.399464    0.47472    0.00000    0.31941    2    diag
    4      0.494D-02      0.101D-02      -154.82446474    294.265717    0.44981    0.00000    0.30294    3    diag
    5      0.760D-03      0.305D-03      -154.82452945    294.189932    0.45357    0.00000    0.30557    4    diag
    6      0.253D-03      0.694D-04      -154.82453296    294.212726    0.45213    0.00000    0.30463    5    diag
    7      0.642D-04      0.538D-05      -154.82453299    294.212024    0.45244    0.00000    0.30485    6    diag
    8      0.674D-05      0.906D-06      -154.82453299    294.211996    0.45233    0.00000    0.30478    0    orth

 Final occupancy:  13

 !RKS STATE 1.1 Energy               -154.824532988904
 Nuclear energy                        83.80024479
 One-electron energy                 -375.33152339
 Two-electron energy                  147.10599811
 SCF exchange energy                  -20.68648604     Factor= 0.5400
 Density functional                   -10.39925250     XC-M06-2X=-10.39925250
 Virial quotient                       -1.00984286
 !RKS STATE 1.1 Dipole moment           0.45233332     0.00000000     0.30477843
 Dipole moment /Debye                   1.14964133     0.00000000     0.77461876

 Orbital energies:

         1.1          2.1          3.1          4.1          5.1          6.1          7.1          8.1          9.1         10.1
    -19.624706   -10.592339   -10.592253    -1.134712    -0.804598    -0.714352    -0.544342    -0.544028    -0.542542    -0.457201

        11.1         12.1         13.1         14.1         15.1
     -0.437088    -0.384037    -0.324981     0.101218     0.148400

 HOMO     13.1    -0.324981 =      -8.8432eV
 LUMO     14.1     0.101218 =       2.7543eV
 LUMO-HOMO         0.426199 =      11.5975eV


 **********************************************************************************************************************************
 DATASETS  * FILE   NREC   LENGTH (MB)   RECORD NAMES
              1      20       43.53       500      610      700      900      950      970     1000      129      960     1100   
                                          VAR    BASINP    GEOM    SYMINP    ZMAT    AOBASIS   BASIS     P2S    ABASIS      S 
                                         1400     1410     1200     1210     1080     1600     1650     1300     1700     1800   
                                           T        V       H0       H01     AOSYM     SMH    MOLCAS    ERIS     OPER     GRID   

              2       5        3.00       700     1000      520     1800     2100   
                                         GEOM     BASIS   MCVARS    GRID      RKS  

 PROGRAMS   *        TOTAL        KS       INT
 CPU TIMES  *         9.69      8.77      0.77
 REAL TIME  *        12.42 SEC
 DISK USED  *        82.64 MB      
 **********************************************************************************************************************************


 PROGRAM * Intrinsic Basis Bonding Analysis (IBBA)          Author: G. Knizia

 Molecular orbitals read from record     2100.2  Type=RKS/CANONICAL (state 1.1)
 Fock matrix read from record            2100.2  Type=RKS/TOTAL (state 1.1)
 Orbital energies read from record       2100.2  Type=RKS/CANONICAL (state 1.1)
 Density matrix read from record         2100.2  Type=RKS/CHARGE (state 1.1)

 Number of core orbitals:           3 (   3 )
 Number of closed-shell orbitals:  10 (  10 )

 Basis set MINAO-AUTO-PP generated.      Number of basis functions:   21 

 Polarized AO type:                A = (O Ot + (1-O)(1-Ot)) P12
 Orthogonalization method:         Symmetric (Loewdin)
 Localization functional:          L = sum[A,i] <i|n_A|i>^4 -> max

 Localization group 1:  13 orbitals, occupancy  2.000
 Iterative localization: IB/PM,    7 iter; Final gradient 0.17E-09

 Bond order analysis:       [THRPRINT= 0.020]

   CEN ATOM   CEN ATOM     WIBERG.BO      RENORM.BO
     1   O  -   3   C       0.984435       1.018466
     1   O  -   2   C       0.984371       1.018450
     1   O  -   9   H       0.030433       0.017997
     1   O  -   7   H       0.030433       0.017997
     1   O  -   8   H       0.030430       0.017996
     1   O  -   6   H       0.030430       0.017996

     2   C  -   1   O       0.984371       1.018450
     2   C  -   4   H       0.959389       0.979209
     2   C  -   8   H       0.953405       0.943538
     2   C  -   6   H       0.953405       0.943538

     3   C  -   1   O       0.984435       1.018466
     3   C  -   5   H       0.959462       0.979175
     3   C  -   9   H       0.953407       0.943542
     3   C  -   7   H       0.953407       0.943542

     4   H  -   2   C       0.959389       0.979209

     5   H  -   3   C       0.959462       0.979175

     6   H  -   2   C       0.953405       0.943538
     6   H  -   1   O       0.030430       0.017996

     7   H  -   3   C       0.953407       0.943542
     7   H  -   1   O       0.030433       0.017997

     8   H  -   2   C       0.953405       0.943538
     8   H  -   1   O       0.030430       0.017996

     9   H  -   3   C       0.953407       0.943542
     9   H  -   1   O       0.030433       0.017997


 Valency analysis:

   CEN ATOM   TOT.VALENCE
     1   O       2.101359
     2   C       3.867935
     3   C       3.868065
     4   H       0.978256
     5   H       0.978344
     6   H       0.988081
     7   H       0.988088
     8   H       0.988081
     9   H       0.988088

 Total charge composition:

   CEN ATOM         s          p       ELECTRONS ->P.CHARGE
     1   O       3.58188    4.80433      8.38621   -0.38621
     2   C       3.00986    3.16279      6.17265   -0.17265
     3   C       3.00976    3.16263      6.17239   -0.17239
     4   H       0.85254                 0.85254    0.14746
     5   H       0.85284                 0.85284    0.14716
     6   H       0.89083                 0.89083    0.10917
     7   H       0.89086                 0.89086    0.10914
     8   H       0.89083                 0.89083    0.10917
     9   H       0.89086                 0.89086    0.10914

 Total charge composition, AO contributions:

   CEN ATOM SHL      SPHERICAL COMPONENTS
     1   O  1s       1.99688
     1   O  2s       1.58499
     1   O  2p       1.52462    1.91416    1.36556

     2   C  1s       1.99130
     2   C  2s       1.01857
     2   C  2p       1.18608    1.16334    0.81337

     3   C  1s       1.99130
     3   C  2s       1.01846
     3   C  2p       0.86666    1.16346    1.13251

     4   H  1s       0.85254

     5   H  1s       0.85284

     6   H  1s       0.89083

     7   H  1s       0.89086

     8   H  1s       0.89083

     9   H  1s       0.89086

 Summary of localized orbital composition:   [THRPRINT= 0.020]

   ORB  GRP  ORB.ENERGY      CENTERS/CHARGES
     1   1   -19.467811      O  1   2.000
     2   1   -10.480158      C  2   2.000
     3   1   -10.480079      C  3   2.000
     4   1    -0.849973      O  1   1.251   C  2   0.741
     5   1    -0.849969      O  1   1.251   C  3   0.741
     6   1    -0.638429      O  1   1.967   (other: 0.033)
     7   1    -0.590978      C  2   1.125   H  8   0.873
     8   1    -0.590978      C  2   1.125   H  6   0.873
     9   1    -0.590968      C  3   1.125   H  7   0.873
    10   1    -0.590968      C  3   1.125   H  9   0.873
    11   1    -0.590620      C  2   1.149   H  4   0.845
    12   1    -0.590462      C  3   1.148   H  5   0.846
    13   1    -0.385784      O  1   1.914   (other: 0.086)

 Localized orbitals saved to record      2100.2  (orbital set 2)


 **********************************************************************************************************************************
 DATASETS  * FILE   NREC   LENGTH (MB)   RECORD NAMES
              1      20       43.53       500      610      700      900      950      970     1000      129      960     1100   
                                          VAR    BASINP    GEOM    SYMINP    ZMAT    AOBASIS   BASIS     P2S    ABASIS      S 
                                         1400     1410     1200     1210     1080     1600     1650     1300     1700     1800   
                                           T        V       H0       H01     AOSYM     SMH    MOLCAS    ERIS     OPER     GRID   

              2       5        3.04       700     1000      520     1800     2100   
                                         GEOM     BASIS   MCVARS    GRID      RKS  

 PROGRAMS   *        TOTAL      IBBA        KS       INT
 CPU TIMES  *         9.72      0.02      8.77      0.77
 REAL TIME  *        12.50 SEC
 DISK USED  *        82.64 MB      
 **********************************************************************************************************************************
 Molecular orbitals read from record     2100.2  Type=RKS/LOCAL(IBO)  
 Occupation numbers read from record     2100.2  Type=RKS/LOCAL(IBO)  
 Orbital energies read from record       2100.2  Type=RKS/LOCAL(IBO)  
 Redundancy group numbers read from rec  2100.2  Type=RKS/LOCAL(IBO)  

 IBBA/SVP energy=      0.000000000000

        KS-SCF  
   -154.82453299
 **********************************************************************************************************************************
 Molpro calculation terminated
