
 Primary working directories    : /tmp/sb13343
 Secondary working directories  : /tmp/sb13343
 Wavefunction directory         : /panfs/panasas01/chem/sb13343/wfu/
 Main file repository           : /tmp/sb13343/

 SHA1      : b4a5b34a9e711420743f49e6833241d17c61fb3c
 NAME      : 2099.9.b4a5b34
 ARCHNAME  : linux/x86_64_openmp
 FC        : /cm/shared/languages/GCC-6.1/bin/gfortran
 BLASLIB   : -lblas
 id        : simonbennie

 Nodes     nprocs
 node32-014    1

 Using customized tuning parameters: mindgm=1; mindgv=20; mindgc=4; mindgr=1; noblas=0; minvec=7
 default implementation of scratch files=df  

 memory,500,m
 geomtyp=xyz
 nosym
 noorient
 geometry={
 O          0.00000        0.00000        0.00000
 C          0.00000        0.00000        1.40986
 C          1.30431        0.00000       -0.53525
 H         -1.04418        0.00000        1.73410
 H          1.20786        0.00000       -1.62434
 H          0.50101        0.89295        1.81977
 H          1.87373        0.89295       -0.22737
 H          0.50101       -0.89295        1.81977
 H          1.87373       -0.89295       -0.22737
 }
 basis={ default,sto-3g }
 {ks,CS,direct;wf,26,1,0}
 {ibba,bonds=1}

 Variables initialized (895), CPU time= 0.00 sec
 Commands  initialized (725), CPU time= 0.01 sec, 591 directives.
 Default parameters read. Elapsed time= 1.76 sec

 Checking input...
 Passed
1


                                         ***  PROGRAM SYSTEM MOLPRO  ***
                                       Copyright, TTI GmbH Stuttgart, 2015
                                    Version 2099.9 linked May 26 2017 16:03:21


 **********************************************************************************************************************************
 LABEL *                                                                                 
  64 bit serial version                                                                  DATE: 07-Jun-17          TIME: 16:19:33  
 **********************************************************************************************************************************

 SHA1:             b4a5b34a9e711420743f49e6833241d17c61fb3c
 **********************************************************************************************************************************
 SETTING GEOMTYP        =    XYZ

 Variable memory set to  500000000 words,  buffer space 

 ZSYMEL=NOSYM

 SETTING BASIS          =    STO-3G


 Recomputing integrals since basis changed


 Using spherical harmonics

 Library entry O      S STO-3G               selected for orbital group  1
 Library entry O      P STO-3G               selected for orbital group  1
 Library entry C      S STO-3G               selected for orbital group  2
 Library entry C      P STO-3G               selected for orbital group  2
 Library entry H      S STO-3G               selected for orbital group  3


 PROGRAM * SEWARD (Integral evaluation for generally contracted gaussian basis sets)     Author: Roland Lindh, 1990

 Geometry written to block  1 of record 700


 Point group  C1  



 ATOMIC COORDINATES

 NR  ATOM    CHARGE       X              Y              Z

   1  O       8.00    0.000000000    0.000000000    0.000000000
   2  C       6.00    0.000000000    0.000000000    2.664249274
   3  C       6.00    2.464788682    0.000000000   -1.011475908
   4  H       1.00   -1.973214225    0.000000000    3.276974073
   5  H       1.00    2.282524597    0.000000000   -3.069557733
   6  H       1.00    0.946771686    1.687430943    3.438866910
   7  H       1.00    3.540836531    1.687430943   -0.429667029
   8  H       1.00    0.946771686   -1.687430943    3.438866910
   9  H       1.00    3.540836531   -1.687430943   -0.429667029

 Bond lengths in Bohr (Angstrom)

 1-2  2.664249274  1-3  2.664257262  2-4  2.066157316  2-6  2.084186243  2-8  2.084186243
     ( 1.409860000)     ( 1.409864227)     ( 1.093363366)     ( 1.102903863)     ( 1.102903863)

 3-5  2.066136732  3-7  2.084179391  3-9  2.084179391
     ( 1.093352473)     ( 1.102900237)     ( 1.102900237)

 Bond angles

  1-2-4  107.25067522   1-2-6  111.81829608   1-2-8  111.81829608   1-3-5  107.25086594

  1-3-7  111.81797398   1-3-9  111.81797398   2-1-3  112.31178693   4-2-6  108.88149892

  4-2-8  108.88149892   5-3-7  108.88146655   5-3-9  108.88146655   6-2-8  108.12064679

  7-3-9  108.12116643

 NUCLEAR CHARGE:                   26
 NUMBER OF PRIMITIVE AOS:          63
 NUMBER OF SYMMETRY AOS:           63
 NUMBER OF CONTRACTIONS:           21   (  21A   )
 NUMBER OF CORE ORBITALS:           3   (   3A   )
 NUMBER OF VALENCE ORBITALS:       18   (  18A   )


 NUCLEAR REPULSION ENERGY   83.80024479


 Eigenvalues of metric

         1 0.234E+00 0.235E+00 0.359E+00 0.371E+00 0.377E+00 0.378E+00 0.398E+00 0.479E+00


 Contracted 2-electron integrals neglected if value below      1.0D-11
 AO integral compression algorithm  1   Integral accuracy      1.0D-11

     0.262 MB (compressed) written to integral file (100.0%)


 NUMBER OF SORTED TWO-ELECTRON INTEGRALS:      26796.     BUFFER LENGTH:  32768
 NUMBER OF SEGMENTS:   1  SEGMENT LENGTH:      26796      RECORD LENGTH: 524288

 Memory used in sort:       0.58 MW

 SORT1 READ       32133. AND WROTE       21402. INTEGRALS IN      1 RECORDS. CPU TIME:     0.00 SEC, REAL TIME:     0.01 SEC
 SORT2 READ       21402. AND WROTE       26796. INTEGRALS IN      1 RECORDS. CPU TIME:     0.01 SEC, REAL TIME:     0.01 SEC

 FILE SIZES:   FILE 1:    30.4 MBYTE,  FILE 4:     4.2 MBYTE,   TOTAL:     34.6 MBYTE

 OPERATOR DM      FOR CENTER  0  COORDINATES:    0.000000    0.000000    0.000000


 **********************************************************************************************************************************
 DATASETS  * FILE   NREC   LENGTH (MB)   RECORD NAMES
              1      19       30.21       500      610      700      900      950      970     1000      129      960     1100   
                                          VAR    BASINP    GEOM    SYMINP    ZMAT    AOBASIS   BASIS     P2S    ABASIS      S 
                                         1400     1410     1200     1210     1080     1600     1650     1300     1700   
                                           T        V       H0       H01     AOSYM     SMH    MOLCAS    ERIS     OPER   

 PROGRAMS   *        TOTAL       INT
 CPU TIMES  *         0.37      0.23
 REAL TIME  *         2.41 SEC
 DISK USED  *        34.99 MB      
 **********************************************************************************************************************************

 Density functional group CS=CS1
 Functional: CS1(Colle-Salvetti (Gradient form))                               Gradient terms: 1
 Use grid at  1800.2

 Functional: CS1                       Factor:  1.0000

 Generated new metagrid on record  1800.2 with target accuracy 1.0D-06 and 33732 points in CPU time    0.9
 Computed new grid on record 1800.1 in CPU time    1.0
   20895 words reserved for DFT integration

 PROGRAM * RKS-SCF (Restricted closed shell Kohn-Sham)     Authors: W. Meyer, H.-J. Werner, P.J. Knowles, 1993

 NUMBER OF ELECTRONS:      13+   13-    SPACE SYMMETRY=1    SPIN SYMMETRY: Singlet 
 CONVERGENCE THRESHOLDS:    1.00E-05 (Density)    1.00E-06 (Energy)
 MAX. NUMBER OF ITERATIONS:       60
 INTERPOLATION TYPE:            DIIS
 INTERPOLATION STEPS:              2 (START)      1 (STEP)
 LEVEL SHIFTS:                  0.00 (CLOSED)  0.00 (OPEN) 



 Use fine grid record 1800.2 for energy threshold  1.0D-06
 Orbital guess generated from atomic densities. Full valence occupancy:   13

 Molecular orbital dump at record        2100.2

 Initial occupancy:  13

 ITERATION    DDIFF          GRAD             ENERGY        2-EL.EN.            DIPOLE MOMENTS         DIIS   ORB.
    1      0.000D+00      0.000D+00      -132.25928568    313.571082   -0.08492    0.00000   -0.05695    0    start
    2      0.000D+00      0.114D-01      -132.25242421    310.431754   -0.08333    0.00000   -0.05591    1    diag
    3      0.388D-01      0.148D-01      -132.27510572    312.020924   -0.13775    0.00000   -0.09238    2    diag
    4      0.214D-01      0.198D-02      -132.27534966    312.363570   -0.07371    0.00000   -0.04944    3    diag
    5      0.467D-02      0.134D-02      -132.27555475    312.143181   -0.10700    0.00000   -0.07176    4    diag
    6      0.197D-02      0.633D-04      -132.27555535    312.148164   -0.10408    0.00000   -0.06981    5    diag
    7      0.154D-03      0.135D-04      -132.27555538    312.147394   -0.10469    0.00000   -0.07022    6    diag
    8      0.289D-04      0.660D-06      -132.27555538    312.147327   -0.10468    0.00000   -0.07021    7    diag
    9      0.134D-05      0.563D-07      -132.27555538    312.147309   -0.10468    0.00000   -0.07021    0    orth

 Final occupancy:  13

 !RKS STATE 1.1 Energy               -132.275555376281
 Nuclear energy                        83.80024479
 One-electron energy                 -371.31407519
 Two-electron energy                  156.07365466
 Density functional                    -0.83537963     CS1=-0.83537963
 Virial quotient                       -0.89366339
 !RKS STATE 1.1 Dipole moment          -0.10468324     0.00000000    -0.07021280
 Dipole moment /Debye                  -0.26606084     0.00000000    -0.17845145

 Orbital energies:

         1.1          2.1          3.1          4.1          5.1          6.1          7.1          8.1          9.1         10.1
    -15.818409    -7.695325    -7.693858    -0.328573    -0.095350    -0.015811     0.101732     0.104009     0.121879     0.172568

        11.1         12.1         13.1         14.1         15.1
      0.205560     0.414311     0.480228     0.800147     0.871339

 HOMO     13.1     0.480228 =      13.0677eV
 LUMO     14.1     0.800147 =      21.7731eV
 LUMO-HOMO         0.319919 =       8.7054eV


 **********************************************************************************************************************************
 DATASETS  * FILE   NREC   LENGTH (MB)   RECORD NAMES
              1      20       31.29       500      610      700      900      950      970     1000      129      960     1100   
                                          VAR    BASINP    GEOM    SYMINP    ZMAT    AOBASIS   BASIS     P2S    ABASIS      S 
                                         1400     1410     1200     1210     1080     1600     1650     1300     1700     1800   
                                           T        V       H0       H01     AOSYM     SMH    MOLCAS    ERIS     OPER     GRID   

              2       5        2.90       700     1000      520     1800     2100   
                                         GEOM     BASIS   MCVARS    GRID      RKS  

 PROGRAMS   *        TOTAL        KS       INT
 CPU TIMES  *         2.59      2.21      0.23
 REAL TIME  *         4.73 SEC
 DISK USED  *        34.99 MB      
 **********************************************************************************************************************************


 PROGRAM * Intrinsic Basis Bonding Analysis (IBBA)          Author: G. Knizia

 Molecular orbitals read from record     2100.2  Type=RKS/CANONICAL (state 1.1)
 Fock matrix read from record            2100.2  Type=RKS/TOTAL (state 1.1)
 Orbital energies read from record       2100.2  Type=RKS/CANONICAL (state 1.1)
 Density matrix read from record         2100.2  Type=RKS/CHARGE (state 1.1)

 Number of core orbitals:           3 (   3 )
 Number of closed-shell orbitals:  10 (  10 )

 Basis set MINAO-AUTO-PP generated.      Number of basis functions:   21 

 Polarized AO type:                A = (O Ot + (1-O)(1-Ot)) P12
 Orthogonalization method:         Symmetric (Loewdin)
 Localization functional:          L = sum[A,i] <i|n_A|i>^4 -> max

 Localization group 1:  13 orbitals, occupancy  2.000
 Iterative localization: IB/PM,    7 iter; Final gradient 0.13E-08

 Bond order analysis:       [THRPRINT= 0.020]

   CEN ATOM   CEN ATOM     WIBERG.BO      RENORM.BO
     1   O  -   2   C       1.096613       1.050136
     1   O  -   3   C       1.096607       1.050132
     1   O  -   6   H       0.053709       0.030809
     1   O  -   8   H       0.053709       0.030809
     1   O  -   7   H       0.053707       0.030808
     1   O  -   9   H       0.053707       0.030808

     2   C  -   1   O       1.096613       1.050136
     2   C  -   4   H       0.954650       0.952174
     2   C  -   8   H       0.933768       0.898547
     2   C  -   6   H       0.933768       0.898547

     3   C  -   1   O       1.096607       1.050132
     3   C  -   5   H       0.954650       0.952176
     3   C  -   7   H       0.933769       0.898550
     3   C  -   9   H       0.933769       0.898550

     4   H  -   2   C       0.954650       0.952174

     5   H  -   3   C       0.954650       0.952176

     6   H  -   2   C       0.933768       0.898547
     6   H  -   1   O       0.053709       0.030809

     7   H  -   3   C       0.933769       0.898550
     7   H  -   1   O       0.053707       0.030808

     8   H  -   2   C       0.933768       0.898547
     8   H  -   1   O       0.053709       0.030809

     9   H  -   3   C       0.933769       0.898550
     9   H  -   1   O       0.053707       0.030808


 Valency analysis:

   CEN ATOM   TOT.VALENCE
     1   O       2.446889
     2   C       3.943726
     3   C       3.943724
     4   H       0.996566
     5   H       0.996565
     6   H       0.999134
     7   H       0.999134
     8   H       0.999134
     9   H       0.999134

 Total charge composition:

   CEN ATOM         s          p       ELECTRONS ->P.CHARGE
     1   O       3.54676    4.34139      7.88814    0.11186
     2   C       2.90875    3.26464      6.17339   -0.17339
     3   C       2.90875    3.26464      6.17339   -0.17339
     4   H       0.94140                 0.94140    0.05860
     5   H       0.94139                 0.94139    0.05861
     6   H       0.97057                 0.97057    0.02943
     7   H       0.97057                 0.97057    0.02943
     8   H       0.97057                 0.97057    0.02943
     9   H       0.97057                 0.97057    0.02943

 Total charge composition, AO contributions:

   CEN ATOM SHL      SPHERICAL COMPONENTS
     1   O  1s       1.99884
     1   O  2s       1.54791
     1   O  2p       1.34092    1.81297    1.18749

     2   C  1s       1.99829
     2   C  2s       0.91047
     2   C  2p       1.14606    1.15307    0.96551

     3   C  1s       1.99829
     3   C  2s       0.91046
     3   C  2p       0.98911    1.15307    1.12247

     4   H  1s       0.94140

     5   H  1s       0.94139

     6   H  1s       0.97057

     7   H  1s       0.97057

     8   H  1s       0.97057

     9   H  1s       0.97057

 Summary of localized orbital composition:   [THRPRINT= 0.020]

   ORB  GRP  ORB.ENERGY      CENTERS/CHARGES
     1   1   -15.718507      O  1   2.000
     2   1    -7.615078      C  2   2.000
     3   1    -7.615078      C  3   2.000
     4   1    -0.084201      O  1   1.064   C  2   0.922
     5   1    -0.084198      O  1   1.064   C  3   0.922
     6   1     0.056441      C  3   1.069   H  5   0.923
     7   1     0.056446      C  2   1.069   H  4   0.923
     8   1     0.065459      C  3   1.059   H  9   0.937
     9   1     0.065459      C  3   1.059   H  7   0.937
    10   1     0.065462      C  2   1.059   H  6   0.937
    11   1     0.065462      C  2   1.059   H  8   0.937
    12   1     0.249301      O  1   1.940   (other: 0.060)
    13   1     0.445993      O  1   1.813   C  2   0.042   C  3   0.042   H  6   0.026   H  8   0.026   H  9   0.026   H  7   0.026

 Localized orbitals saved to record      2100.2  (orbital set 2)


 **********************************************************************************************************************************
 DATASETS  * FILE   NREC   LENGTH (MB)   RECORD NAMES
              1      20       31.29       500      610      700      900      950      970     1000      129      960     1100   
                                          VAR    BASINP    GEOM    SYMINP    ZMAT    AOBASIS   BASIS     P2S    ABASIS      S 
                                         1400     1410     1200     1210     1080     1600     1650     1300     1700     1800   
                                           T        V       H0       H01     AOSYM     SMH    MOLCAS    ERIS     OPER     GRID   

              2       5        2.90       700     1000      520     1800     2100   
                                         GEOM     BASIS   MCVARS    GRID      RKS  

 PROGRAMS   *        TOTAL      IBBA        KS       INT
 CPU TIMES  *         2.61      0.02      2.21      0.23
 REAL TIME  *         4.82 SEC
 DISK USED  *        34.99 MB      
 **********************************************************************************************************************************
 Molecular orbitals read from record     2100.2  Type=RKS/LOCAL(IBO)  
 Occupation numbers read from record     2100.2  Type=RKS/LOCAL(IBO)  
 Orbital energies read from record       2100.2  Type=RKS/LOCAL(IBO)  
 Redundancy group numbers read from rec  2100.2  Type=RKS/LOCAL(IBO)  

 IBBA/STO-3G energy=      0.000000000000

        KS-SCF  
   -132.27555538
 **********************************************************************************************************************************
 Molpro calculation terminated
