
 Primary working directories    : /tmp/sb13343
 Secondary working directories  : /tmp/sb13343
 Wavefunction directory         : /panfs/panasas01/chem/sb13343/wfu/
 Main file repository           : /tmp/sb13343/

 SHA1      : b4a5b34a9e711420743f49e6833241d17c61fb3c
 NAME      : 2099.9.b4a5b34
 ARCHNAME  : linux/x86_64_openmp
 FC        : /cm/shared/languages/GCC-6.1/bin/gfortran
 BLASLIB   : -lblas
 id        : simonbennie

 Nodes     nprocs
 node32-014    1

 Using customized tuning parameters: mindgm=1; mindgv=20; mindgc=4; mindgr=1; noblas=0; minvec=7
 default implementation of scratch files=df  

 memory,500,m
 geomtyp=xyz
 nosym
 noorient
 geometry={
 O          0.00000        0.00000        0.00000
 C          0.00000        0.00000        1.40986
 C          1.30431        0.00000       -0.53525
 H         -1.04418        0.00000        1.73410
 H          1.20786        0.00000       -1.62434
 H          0.50101        0.89295        1.81977
 H          1.87373        0.89295       -0.22737
 H          0.50101       -0.89295        1.81977
 H          1.87373       -0.89295       -0.22737
 }
 basis={ default,svp }
 {ks,B-LYP,direct;wf,26,1,0}
 {ibba,bonds=1}

 Variables initialized (895), CPU time= 0.01 sec
 Commands  initialized (725), CPU time= 0.01 sec, 591 directives.
 Default parameters read. Elapsed time= 2.01 sec

 Checking input...
 Passed
1


                                         ***  PROGRAM SYSTEM MOLPRO  ***
                                       Copyright, TTI GmbH Stuttgart, 2015
                                    Version 2099.9 linked May 26 2017 16:03:21


 **********************************************************************************************************************************
 LABEL *                                                                                 
  64 bit serial version                                                                  DATE: 07-Jun-17          TIME: 16:32:20  
 **********************************************************************************************************************************

 SHA1:             b4a5b34a9e711420743f49e6833241d17c61fb3c
 **********************************************************************************************************************************
 SETTING GEOMTYP        =    XYZ

 Variable memory set to  500000000 words,  buffer space 

 ZSYMEL=NOSYM

 SETTING BASIS          =    SVP


 Recomputing integrals since basis changed


 Using spherical harmonics

 Library entry O      S def2-SVP             selected for orbital group  1
 Library entry O      P def2-SVP             selected for orbital group  1
 Library entry O      D def2-SVP             selected for orbital group  1
 Library entry C      S def2-SVP             selected for orbital group  2
 Library entry C      P def2-SVP             selected for orbital group  2
 Library entry C      D def2-SVP             selected for orbital group  2
 Library entry H      S def2-SVP             selected for orbital group  3
 Library entry H      P def2-SVP             selected for orbital group  3


 PROGRAM * SEWARD (Integral evaluation for generally contracted gaussian basis sets)     Author: Roland Lindh, 1990

 Geometry written to block  1 of record 700


 Point group  C1  



 ATOMIC COORDINATES

 NR  ATOM    CHARGE       X              Y              Z

   1  O       8.00    0.000000000    0.000000000    0.000000000
   2  C       6.00    0.000000000    0.000000000    2.664249274
   3  C       6.00    2.464788682    0.000000000   -1.011475908
   4  H       1.00   -1.973214225    0.000000000    3.276974073
   5  H       1.00    2.282524597    0.000000000   -3.069557733
   6  H       1.00    0.946771686    1.687430943    3.438866910
   7  H       1.00    3.540836531    1.687430943   -0.429667029
   8  H       1.00    0.946771686   -1.687430943    3.438866910
   9  H       1.00    3.540836531   -1.687430943   -0.429667029

 Bond lengths in Bohr (Angstrom)

 1-2  2.664249274  1-3  2.664257262  2-4  2.066157316  2-6  2.084186243  2-8  2.084186243
     ( 1.409860000)     ( 1.409864227)     ( 1.093363366)     ( 1.102903863)     ( 1.102903863)

 3-5  2.066136732  3-7  2.084179391  3-9  2.084179391
     ( 1.093352473)     ( 1.102900237)     ( 1.102900237)

 Bond angles

  1-2-4  107.25067522   1-2-6  111.81829608   1-2-8  111.81829608   1-3-5  107.25086594

  1-3-7  111.81797398   1-3-9  111.81797398   2-1-3  112.31178693   4-2-6  108.88149892

  4-2-8  108.88149892   5-3-7  108.88146655   5-3-9  108.88146655   6-2-8  108.12064679

  7-3-9  108.12116643

 NUCLEAR CHARGE:                   26
 NUMBER OF PRIMITIVE AOS:         117
 NUMBER OF SYMMETRY AOS:          114
 NUMBER OF CONTRACTIONS:           72   (  72A   )
 NUMBER OF CORE ORBITALS:           3   (   3A   )
 NUMBER OF VALENCE ORBITALS:       18   (  18A   )


 NUCLEAR REPULSION ENERGY   83.80024479


 Eigenvalues of metric

         1 0.907E-02 0.130E-01 0.293E-01 0.353E-01 0.441E-01 0.490E-01 0.499E-01 0.601E-01


 Contracted 2-electron integrals neglected if value below      1.0D-11
 AO integral compression algorithm  1   Integral accuracy      1.0D-11

     14.156 MB (compressed) written to integral file ( 45.3%)


 NUMBER OF SORTED TWO-ELECTRON INTEGRALS:    3454506.     BUFFER LENGTH:  32768
 NUMBER OF SEGMENTS:   1  SEGMENT LENGTH:    3454506      RECORD LENGTH: 524288

 Memory used in sort:       4.01 MW

 SORT1 READ     3931143. AND WROTE     2907067. INTEGRALS IN      9 RECORDS. CPU TIME:     0.04 SEC, REAL TIME:     0.10 SEC
 SORT2 READ     2907067. AND WROTE     3454506. INTEGRALS IN     54 RECORDS. CPU TIME:     0.11 SEC, REAL TIME:     0.15 SEC

 FILE SIZES:   FILE 1:    44.4 MBYTE,  FILE 4:    37.8 MBYTE,   TOTAL:     82.2 MBYTE

 OPERATOR DM      FOR CENTER  0  COORDINATES:    0.000000    0.000000    0.000000


 **********************************************************************************************************************************
 DATASETS  * FILE   NREC   LENGTH (MB)   RECORD NAMES
              1      19       42.45       500      610      700      900      950      970     1000      129      960     1100   
                                          VAR    BASINP    GEOM    SYMINP    ZMAT    AOBASIS   BASIS     P2S    ABASIS      S 
                                         1400     1410     1200     1210     1080     1600     1650     1300     1700   
                                           T        V       H0       H01     AOSYM     SMH    MOLCAS    ERIS     OPER   

 PROGRAMS   *        TOTAL       INT
 CPU TIMES  *         0.87      0.74
 REAL TIME  *         3.34 SEC
 DISK USED  *        82.64 MB      
 **********************************************************************************************************************************

 Density functional group B-LYP=B88+LYP
 Functional: B88(Automatically generated (new) B88)                            Gradient terms: 1
 Functional: LYP(Automatically generated (new) LYP)                            Gradient terms: 1
 Use grid at  1800.2

 Functional: B88                       Factor:  1.0000
 Functional: LYP                       Factor:  1.0000

 Generated new metagrid on record  1800.2 with target accuracy 1.0D-06 and 33732 points in CPU time    0.9
 Computed new grid on record 1800.1 in CPU time    1.0
   61197 words reserved for DFT integration

 PROGRAM * RKS-SCF (Restricted closed shell Kohn-Sham)     Authors: W. Meyer, H.-J. Werner, P.J. Knowles, 1993

 NUMBER OF ELECTRONS:      13+   13-    SPACE SYMMETRY=1    SPIN SYMMETRY: Singlet 
 CONVERGENCE THRESHOLDS:    1.00E-05 (Density)    1.00E-06 (Energy)
 MAX. NUMBER OF ITERATIONS:       60
 INTERPOLATION TYPE:            DIIS
 INTERPOLATION STEPS:              2 (START)      1 (STEP)
 LEVEL SHIFTS:                  0.00 (CLOSED)  0.00 (OPEN) 



 Use fine grid record 1800.2 for energy threshold  1.0D-06
 Orbital guess generated from atomic densities. Full valence occupancy:   13

 Molecular orbital dump at record        2100.2

 Initial occupancy:  13

 ITERATION    DDIFF          GRAD             ENERGY        2-EL.EN.            DIPOLE MOMENTS         DIIS   ORB.
    1      0.000D+00      0.000D+00      -154.70817776    325.952693    0.78546    0.00000    0.52672    0    start
    2      0.000D+00      0.122D-01      -154.52502097    301.652718   -0.62568    0.00000   -0.41953    1    diag
    3      0.369D-01      0.198D-01      -154.82840196    317.251433    0.50751    0.00000    0.34032    2    diag
    4      0.264D-01      0.329D-02      -154.83440618    316.775642    0.36428    0.00000    0.24429    3    diag
    5      0.265D-02      0.988D-03      -154.83499110    316.620198    0.37392    0.00000    0.25075    4    diag
    6      0.733D-03      0.140D-03      -154.83500444    316.660135    0.37206    0.00000    0.24950    5    diag
    7      0.100D-03      0.183D-04      -154.83500474    316.669731    0.37465    0.00000    0.25124    6    diag
    8      0.260D-04      0.390D-05      -154.83500475    316.670685    0.37421    0.00000    0.25095    7    diag
    9      0.405D-05      0.279D-06      -154.83500475    316.670660    0.37421    0.00000    0.25095    0    orth

 Final occupancy:  13

 !RKS STATE 1.1 Energy               -154.835004749243
 Nuclear energy                        83.80024479
 One-electron energy                 -375.38461646
 Two-electron energy                  158.33532985
 Density functional                   -21.58596292     B88=-20.73351130 LYP= -0.85245162
 Virial quotient                       -1.00934340
 !RKS STATE 1.1 Dipole moment           0.37421028     0.00000000     0.25094605
 Dipole moment /Debye                   0.95108537     0.00000000     0.63779946

 Orbital energies:

         1.1          2.1          3.1          4.1          5.1          6.1          7.1          8.1          9.1         10.1
    -18.775228    -9.962087    -9.962064    -0.920394    -0.637751    -0.557068    -0.422089    -0.410203    -0.408061    -0.342736

        11.1         12.1         13.1         14.1         15.1
     -0.326405    -0.261330    -0.200443     0.039145     0.082031

 HOMO     13.1    -0.200443 =      -5.4543eV
 LUMO     14.1     0.039145 =       1.0652eV
 LUMO-HOMO         0.239588 =       6.5195eV


 **********************************************************************************************************************************
 DATASETS  * FILE   NREC   LENGTH (MB)   RECORD NAMES
              1      20       43.53       500      610      700      900      950      970     1000      129      960     1100   
                                          VAR    BASINP    GEOM    SYMINP    ZMAT    AOBASIS   BASIS     P2S    ABASIS      S 
                                         1400     1410     1200     1210     1080     1600     1650     1300     1700     1800   
                                           T        V       H0       H01     AOSYM     SMH    MOLCAS    ERIS     OPER     GRID   

              2       5        3.00       700     1000      520     1800     2100   
                                         GEOM     BASIS   MCVARS    GRID      RKS  

 PROGRAMS   *        TOTAL        KS       INT
 CPU TIMES  *         5.03      4.16      0.74
 REAL TIME  *         7.88 SEC
 DISK USED  *        82.64 MB      
 **********************************************************************************************************************************


 PROGRAM * Intrinsic Basis Bonding Analysis (IBBA)          Author: G. Knizia

 Molecular orbitals read from record     2100.2  Type=RKS/CANONICAL (state 1.1)
 Fock matrix read from record            2100.2  Type=RKS/TOTAL (state 1.1)
 Orbital energies read from record       2100.2  Type=RKS/CANONICAL (state 1.1)
 Density matrix read from record         2100.2  Type=RKS/CHARGE (state 1.1)

 Number of core orbitals:           3 (   3 )
 Number of closed-shell orbitals:  10 (  10 )

 Basis set MINAO-AUTO-PP generated.      Number of basis functions:   21 

 Polarized AO type:                A = (O Ot + (1-O)(1-Ot)) P12
 Orthogonalization method:         Symmetric (Loewdin)
 Localization functional:          L = sum[A,i] <i|n_A|i>^4 -> max

 Localization group 1:  13 orbitals, occupancy  2.000
 Iterative localization: IB/PM,    7 iter; Final gradient 0.10E-09

 Bond order analysis:       [THRPRINT= 0.020]

   CEN ATOM   CEN ATOM     WIBERG.BO      RENORM.BO
     1   O  -   3   C       0.997538       1.023281
     1   O  -   2   C       0.997538       1.023282
     1   O  -   8   H       0.036755       0.021806
     1   O  -   6   H       0.036755       0.021806
     1   O  -   9   H       0.036754       0.021806
     1   O  -   7   H       0.036754       0.021806

     2   C  -   1   O       0.997538       1.023282
     2   C  -   4   H       0.958974       0.976825
     2   C  -   8   H       0.946887       0.930671
     2   C  -   6   H       0.946887       0.930671

     3   C  -   1   O       0.997538       1.023281
     3   C  -   5   H       0.958977       0.976826
     3   C  -   9   H       0.946888       0.930671
     3   C  -   7   H       0.946888       0.930671

     4   H  -   2   C       0.958974       0.976825

     5   H  -   3   C       0.958977       0.976826

     6   H  -   2   C       0.946887       0.930671
     6   H  -   1   O       0.036755       0.021806

     7   H  -   3   C       0.946888       0.930671
     7   H  -   1   O       0.036754       0.021806

     8   H  -   2   C       0.946887       0.930671
     8   H  -   1   O       0.036755       0.021806

     9   H  -   3   C       0.946888       0.930671
     9   H  -   1   O       0.036754       0.021806


 Valency analysis:

   CEN ATOM   TOT.VALENCE
     1   O       2.154067
     2   C       3.870415
     3   C       3.870419
     4   H       0.979670
     5   H       0.979672
     6   H       0.989031
     7   H       0.989031
     8   H       0.989031
     9   H       0.989031

 Total charge composition:

   CEN ATOM         s          p       ELECTRONS ->P.CHARGE
     1   O       3.58883    4.76364      8.35247   -0.35247
     2   C       3.01599    3.15982      6.17581   -0.17581
     3   C       3.01599    3.15982      6.17580   -0.17580
     4   H       0.85742                 0.85742    0.14258
     5   H       0.85742                 0.85742    0.14258
     6   H       0.89527                 0.89527    0.10473
     7   H       0.89527                 0.89527    0.10473
     8   H       0.89527                 0.89527    0.10473
     9   H       0.89527                 0.89527    0.10473

 Total charge composition, AO contributions:

   CEN ATOM SHL      SPHERICAL COMPONENTS
     1   O  1s       1.99710
     1   O  2s       1.59174
     1   O  2p       1.51279    1.89404    1.35682

     2   C  1s       1.99194
     2   C  2s       1.02405
     2   C  2p       1.18161    1.16420    0.81401

     3   C  1s       1.99194
     3   C  2s       1.02404
     3   C  2p       0.86743    1.16420    1.12818

     4   H  1s       0.85742

     5   H  1s       0.85742

     6   H  1s       0.89527

     7   H  1s       0.89527

     8   H  1s       0.89527

     9   H  1s       0.89527

 Summary of localized orbital composition:   [THRPRINT= 0.020]

   ORB  GRP  ORB.ENERGY      CENTERS/CHARGES
     1   1   -18.630846      O  1   2.000
     2   1    -9.856155      C  3   2.000
     3   1    -9.856147      C  2   2.000
     4   1    -0.686015      O  1   1.248   C  2   0.744
     5   1    -0.686010      O  1   1.248   C  3   0.744
     6   1    -0.468445      O  1   1.960   (other: 0.040)
     7   1    -0.460117      C  3   1.125   H  7   0.873
     8   1    -0.460117      C  3   1.125   H  9   0.873
     9   1    -0.460110      C  2   1.125   H  8   0.873
    10   1    -0.460110      C  2   1.125   H  6   0.873
    11   1    -0.459875      C  3   1.143   H  5   0.850
    12   1    -0.459865      C  2   1.143   H  4   0.850
    13   1    -0.242047      O  1   1.894   C  2   0.021   C  3   0.021   (other: 0.063)

 Localized orbitals saved to record      2100.2  (orbital set 2)


 **********************************************************************************************************************************
 DATASETS  * FILE   NREC   LENGTH (MB)   RECORD NAMES
              1      20       43.53       500      610      700      900      950      970     1000      129      960     1100   
                                          VAR    BASINP    GEOM    SYMINP    ZMAT    AOBASIS   BASIS     P2S    ABASIS      S 
                                         1400     1410     1200     1210     1080     1600     1650     1300     1700     1800   
                                           T        V       H0       H01     AOSYM     SMH    MOLCAS    ERIS     OPER     GRID   

              2       5        3.04       700     1000      520     1800     2100   
                                         GEOM     BASIS   MCVARS    GRID      RKS  

 PROGRAMS   *        TOTAL      IBBA        KS       INT
 CPU TIMES  *         5.05      0.01      4.16      0.74
 REAL TIME  *         7.98 SEC
 DISK USED  *        82.64 MB      
 **********************************************************************************************************************************
 Molecular orbitals read from record     2100.2  Type=RKS/LOCAL(IBO)  
 Occupation numbers read from record     2100.2  Type=RKS/LOCAL(IBO)  
 Orbital energies read from record       2100.2  Type=RKS/LOCAL(IBO)  
 Redundancy group numbers read from rec  2100.2  Type=RKS/LOCAL(IBO)  

 IBBA/SVP energy=      0.000000000000

        KS-SCF  
   -154.83500475
 **********************************************************************************************************************************
 Molpro calculation terminated
