
 Primary working directories    : /tmp/sb13343
 Secondary working directories  : /tmp/sb13343
 Wavefunction directory         : /panfs/panasas01/chem/sb13343/wfu/
 Main file repository           : /tmp/sb13343/

 SHA1      : b4a5b34a9e711420743f49e6833241d17c61fb3c
 NAME      : 2099.9.b4a5b34
 ARCHNAME  : linux/x86_64_openmp
 FC        : /cm/shared/languages/GCC-6.1/bin/gfortran
 BLASLIB   : -lblas
 id        : simonbennie

 Nodes     nprocs
 node32-019    1

 Using customized tuning parameters: mindgm=1; mindgv=20; mindgc=4; mindgr=1; noblas=0; minvec=7
 default implementation of scratch files=df  

 memory,500,m
 geomtyp=xyz
 nosym
 noorient
 geometry={
 O          0.00000        0.00000        0.00000
 C          0.00000        0.00000        1.40986
 C          1.30431        0.00000       -0.53525
 H         -1.04418        0.00000        1.73410
 H          1.20786        0.00000       -1.62434
 H          0.50101        0.89295        1.81977
 H          1.87373        0.89295       -0.22737
 H          0.50101       -0.89295        1.81977
 H          1.87373       -0.89295       -0.22737
 }
 basis={ default,svp }
 {ks,MM05-2X,direct;wf,26,1,0}
 {ibba,bonds=1}

 Variables initialized (895), CPU time= 0.00 sec
 Commands  initialized (725), CPU time= 0.02 sec, 591 directives.
 Default parameters read. Elapsed time= 1.66 sec

 Checking input...
 Passed
1


                                         ***  PROGRAM SYSTEM MOLPRO  ***
                                       Copyright, TTI GmbH Stuttgart, 2015
                                    Version 2099.9 linked May 26 2017 16:03:21


 **********************************************************************************************************************************
 LABEL *                                                                                 
  64 bit serial version                                                                  DATE: 07-Jun-17          TIME: 16:08:52  
 **********************************************************************************************************************************

 SHA1:             b4a5b34a9e711420743f49e6833241d17c61fb3c
 **********************************************************************************************************************************
 SETTING GEOMTYP        =    XYZ

 Variable memory set to  500000000 words,  buffer space 

 ZSYMEL=NOSYM

 SETTING BASIS          =    SVP


 Recomputing integrals since basis changed


 Using spherical harmonics

 Library entry O      S def2-SVP             selected for orbital group  1
 Library entry O      P def2-SVP             selected for orbital group  1
 Library entry O      D def2-SVP             selected for orbital group  1
 Library entry C      S def2-SVP             selected for orbital group  2
 Library entry C      P def2-SVP             selected for orbital group  2
 Library entry C      D def2-SVP             selected for orbital group  2
 Library entry H      S def2-SVP             selected for orbital group  3
 Library entry H      P def2-SVP             selected for orbital group  3


 PROGRAM * SEWARD (Integral evaluation for generally contracted gaussian basis sets)     Author: Roland Lindh, 1990

 Geometry written to block  1 of record 700


 Point group  C1  



 ATOMIC COORDINATES

 NR  ATOM    CHARGE       X              Y              Z

   1  O       8.00    0.000000000    0.000000000    0.000000000
   2  C       6.00    0.000000000    0.000000000    2.664249274
   3  C       6.00    2.464788682    0.000000000   -1.011475908
   4  H       1.00   -1.973214225    0.000000000    3.276974073
   5  H       1.00    2.282524597    0.000000000   -3.069557733
   6  H       1.00    0.946771686    1.687430943    3.438866910
   7  H       1.00    3.540836531    1.687430943   -0.429667029
   8  H       1.00    0.946771686   -1.687430943    3.438866910
   9  H       1.00    3.540836531   -1.687430943   -0.429667029

 Bond lengths in Bohr (Angstrom)

 1-2  2.664249274  1-3  2.664257262  2-4  2.066157316  2-6  2.084186243  2-8  2.084186243
     ( 1.409860000)     ( 1.409864227)     ( 1.093363366)     ( 1.102903863)     ( 1.102903863)

 3-5  2.066136732  3-7  2.084179391  3-9  2.084179391
     ( 1.093352473)     ( 1.102900237)     ( 1.102900237)

 Bond angles

  1-2-4  107.25067522   1-2-6  111.81829608   1-2-8  111.81829608   1-3-5  107.25086594

  1-3-7  111.81797398   1-3-9  111.81797398   2-1-3  112.31178693   4-2-6  108.88149892

  4-2-8  108.88149892   5-3-7  108.88146655   5-3-9  108.88146655   6-2-8  108.12064679

  7-3-9  108.12116643

 NUCLEAR CHARGE:                   26
 NUMBER OF PRIMITIVE AOS:         117
 NUMBER OF SYMMETRY AOS:          114
 NUMBER OF CONTRACTIONS:           72   (  72A   )
 NUMBER OF CORE ORBITALS:           3   (   3A   )
 NUMBER OF VALENCE ORBITALS:       18   (  18A   )


 NUCLEAR REPULSION ENERGY   83.80024479


 Eigenvalues of metric

         1 0.907E-02 0.130E-01 0.293E-01 0.353E-01 0.441E-01 0.490E-01 0.499E-01 0.601E-01


 Contracted 2-electron integrals neglected if value below      1.0D-11
 AO integral compression algorithm  1   Integral accuracy      1.0D-11

     14.156 MB (compressed) written to integral file ( 45.3%)


 NUMBER OF SORTED TWO-ELECTRON INTEGRALS:    3454506.     BUFFER LENGTH:  32768
 NUMBER OF SEGMENTS:   1  SEGMENT LENGTH:    3454506      RECORD LENGTH: 524288

 Memory used in sort:       4.01 MW

 SORT1 READ     3931143. AND WROTE     2907067. INTEGRALS IN      9 RECORDS. CPU TIME:     0.05 SEC, REAL TIME:     0.10 SEC
 SORT2 READ     2907067. AND WROTE     3454506. INTEGRALS IN     54 RECORDS. CPU TIME:     0.12 SEC, REAL TIME:     0.16 SEC

 FILE SIZES:   FILE 1:    44.4 MBYTE,  FILE 4:    37.8 MBYTE,   TOTAL:     82.2 MBYTE

 OPERATOR DM      FOR CENTER  0  COORDINATES:    0.000000    0.000000    0.000000


 **********************************************************************************************************************************
 DATASETS  * FILE   NREC   LENGTH (MB)   RECORD NAMES
              1      19       42.45       500      610      700      900      950      970     1000      129      960     1100   
                                          VAR    BASINP    GEOM    SYMINP    ZMAT    AOBASIS   BASIS     P2S    ABASIS      S 
                                         1400     1410     1200     1210     1080     1600     1650     1300     1700   
                                           T        V       H0       H01     AOSYM     SMH    MOLCAS    ERIS     OPER   

 PROGRAMS   *        TOTAL       INT
 CPU TIMES  *         1.10      0.96
 REAL TIME  *         3.38 SEC
 DISK USED  *        82.64 MB      
 **********************************************************************************************************************************

 Density functional group MM05-2X=M052XX+M052XC
 Functional: M052XX(Automatically generated (new) M052XX)                      Gradient terms: 2
 Functional: M052XC(Automatically generated (new) M052XC)                      Gradient terms: 2
 Use grid at  1800.2


 Exact exchange will be calculated, factor:  0.5600

 Functional: M052XX                    Factor:  0.4400
 Functional: M052XC                    Factor:  1.0000

 Generated new metagrid on record  1800.2 with target accuracy 1.0D-06 and 33732 points in CPU time    1.0
 Computed new grid on record 1800.1 in CPU time    1.0
  116061 words reserved for DFT integration

 PROGRAM * RKS-SCF (Restricted closed shell Kohn-Sham)     Authors: W. Meyer, H.-J. Werner, P.J. Knowles, 1993

 NUMBER OF ELECTRONS:      13+   13-    SPACE SYMMETRY=1    SPIN SYMMETRY: Singlet 
 CONVERGENCE THRESHOLDS:    1.00E-05 (Density)    1.00E-06 (Energy)
 MAX. NUMBER OF ITERATIONS:       60
 INTERPOLATION TYPE:            DIIS
 INTERPOLATION STEPS:              2 (START)      1 (STEP)
 LEVEL SHIFTS:                  0.00 (CLOSED)  0.00 (OPEN) 



 Use fine grid record 1800.2 for energy threshold  1.0D-06
 Orbital guess generated from atomic densities. Full valence occupancy:   13

 Molecular orbital dump at record        2100.2

 Initial occupancy:  13

 ITERATION    DDIFF          GRAD             ENERGY        2-EL.EN.            DIPOLE MOMENTS         DIIS   ORB.
    1      0.000D+00      0.000D+00      -154.83197762    297.298682    0.76605    0.00000    0.51380    0    start
    2      0.000D+00      0.675D-02      -154.84699905    290.137272    0.24758    0.00000    0.16683    1    diag
    3      0.101D-01      0.576D-02      -154.86719336    293.792104    0.49399    0.00000    0.33159    2    diag
    4      0.482D-02      0.109D-02      -154.86777402    293.611055    0.46904    0.00000    0.31474    3    diag
    5      0.811D-03      0.334D-03      -154.86785280    293.534490    0.47397    0.00000    0.31804    4    diag
    6      0.287D-03      0.815D-04      -154.86785731    293.556195    0.47220    0.00000    0.31684    5    diag
    7      0.685D-04      0.580D-05      -154.86785734    293.555300    0.47247    0.00000    0.31701    6    diag
    8      0.836D-05      0.979D-06      -154.86785735    293.555339    0.47237    0.00000    0.31695    0    orth

 Final occupancy:  13

 !RKS STATE 1.1 Energy               -154.867857345453
 Nuclear energy                        83.80024479
 One-electron energy                 -375.41536829
 Two-electron energy                  146.77766966
 SCF exchange energy                  -20.69087654     Factor= 0.5600
 Density functional                   -10.03040350     M052XX=-20.68894903 M052XC= -0.92726592
 Virial quotient                       -1.01041139
 !RKS STATE 1.1 Dipole moment           0.47237412     0.00000000     0.31694577
 Dipole moment /Debye                   1.20057662     0.00000000     0.80554304

 Orbital energies:

         1.1          2.1          3.1          4.1          5.1          6.1          7.1          8.1          9.1         10.1
    -19.664394   -10.617731   -10.617608    -1.133858    -0.813384    -0.720805    -0.550133    -0.549550    -0.548872    -0.463816

        11.1         12.1         13.1         14.1         15.1
     -0.442825    -0.386900    -0.326405     0.111451     0.160489

 HOMO     13.1    -0.326405 =      -8.8819eV
 LUMO     14.1     0.111451 =       3.0327eV
 LUMO-HOMO         0.437856 =      11.9147eV


 **********************************************************************************************************************************
 DATASETS  * FILE   NREC   LENGTH (MB)   RECORD NAMES
              1      20       43.53       500      610      700      900      950      970     1000      129      960     1100   
                                          VAR    BASINP    GEOM    SYMINP    ZMAT    AOBASIS   BASIS     P2S    ABASIS      S 
                                         1400     1410     1200     1210     1080     1600     1650     1300     1700     1800   
                                           T        V       H0       H01     AOSYM     SMH    MOLCAS    ERIS     OPER     GRID   

              2       5        3.00       700     1000      520     1800     2100   
                                         GEOM     BASIS   MCVARS    GRID      RKS  

 PROGRAMS   *        TOTAL        KS       INT
 CPU TIMES  *        16.34     15.24      0.96
 REAL TIME  *        20.70 SEC
 DISK USED  *        82.64 MB      
 **********************************************************************************************************************************


 PROGRAM * Intrinsic Basis Bonding Analysis (IBBA)          Author: G. Knizia

 Molecular orbitals read from record     2100.2  Type=RKS/CANONICAL (state 1.1)
 Fock matrix read from record            2100.2  Type=RKS/TOTAL (state 1.1)
 Orbital energies read from record       2100.2  Type=RKS/CANONICAL (state 1.1)
 Density matrix read from record         2100.2  Type=RKS/CHARGE (state 1.1)

 Number of core orbitals:           3 (   3 )
 Number of closed-shell orbitals:  10 (  10 )

 Basis set MINAO-AUTO-PP generated.      Number of basis functions:   21 

 Polarized AO type:                A = (O Ot + (1-O)(1-Ot)) P12
 Orthogonalization method:         Symmetric (Loewdin)
 Localization functional:          L = sum[A,i] <i|n_A|i>^4 -> max

 Localization group 1:  13 orbitals, occupancy  2.000
 Iterative localization: IB/PM,    7 iter; Final gradient 0.46E-09

 Bond order analysis:       [THRPRINT= 0.020]

   CEN ATOM   CEN ATOM     WIBERG.BO      RENORM.BO
     1   O  -   2   C       0.983617       1.017861
     1   O  -   3   C       0.983604       1.017896
     1   O  -   9   H       0.029977       0.017765
     1   O  -   7   H       0.029977       0.017765
     1   O  -   8   H       0.029923       0.017734
     1   O  -   6   H       0.029923       0.017734

     2   C  -   1   O       0.983617       1.017861
     2   C  -   4   H       0.959118       0.979652
     2   C  -   8   H       0.953250       0.944828
     2   C  -   6   H       0.953250       0.944828

     3   C  -   1   O       0.983604       1.017896
     3   C  -   5   H       0.959057       0.979643
     3   C  -   9   H       0.953208       0.944742
     3   C  -   7   H       0.953208       0.944742

     4   H  -   2   C       0.959118       0.979652

     5   H  -   3   C       0.959057       0.979643

     6   H  -   2   C       0.953250       0.944828
     6   H  -   1   O       0.029923       0.017734

     7   H  -   3   C       0.953208       0.944742
     7   H  -   1   O       0.029977       0.017765

     8   H  -   2   C       0.953250       0.944828
     8   H  -   1   O       0.029923       0.017734

     9   H  -   3   C       0.953208       0.944742
     9   H  -   1   O       0.029977       0.017765


 Valency analysis:

   CEN ATOM   TOT.VALENCE
     1   O       2.097787
     2   C       3.865897
     3   C       3.865741
     4   H       0.977768
     5   H       0.977722
     6   H       0.987378
     7   H       0.987394
     8   H       0.987378
     9   H       0.987394

 Total charge composition:

   CEN ATOM         s          p       ELECTRONS ->P.CHARGE
     1   O       3.57100    4.81663      8.38763   -0.38763
     2   C       3.01007    3.16995      6.18002   -0.18002
     3   C       3.01003    3.16993      6.17996   -0.17996
     4   H       0.85090                 0.85090    0.14910
     5   H       0.85074                 0.85074    0.14926
     6   H       0.88765                 0.88765    0.11235
     7   H       0.88772                 0.88772    0.11228
     8   H       0.88765                 0.88765    0.11235
     9   H       0.88772                 0.88772    0.11228

 Total charge composition, AO contributions:

   CEN ATOM SHL      SPHERICAL COMPONENTS
     1   O  1s       1.99693
     1   O  2s       1.57407
     1   O  2p       1.53008    1.91655    1.37000

     2   C  1s       1.99142
     2   C  2s       1.01864
     2   C  2p       1.18928    1.16717    0.81350

     3   C  1s       1.99142
     3   C  2s       1.01861
     3   C  2p       0.86702    1.16723    1.13569

     4   H  1s       0.85090

     5   H  1s       0.85074

     6   H  1s       0.88765

     7   H  1s       0.88772

     8   H  1s       0.88765

     9   H  1s       0.88772

 Summary of localized orbital composition:   [THRPRINT= 0.020]

   ORB  GRP  ORB.ENERGY      CENTERS/CHARGES
     1   1   -19.510466      O  1   2.000
     2   1   -10.505223      C  3   2.000
     3   1   -10.505096      C  2   2.000
     4   1    -0.855092      O  1   1.251   C  2   0.742
     5   1    -0.855060      O  1   1.251   C  3   0.742
     6   1    -0.628473      O  1   1.967   (other: 0.033)
     7   1    -0.599018      C  2   1.128   H  6   0.870
     8   1    -0.599018      C  2   1.128   H  8   0.870
     9   1    -0.598993      C  3   1.128   H  7   0.870
    10   1    -0.598993      C  3   1.128   H  9   0.870
    11   1    -0.597670      C  3   1.151   H  5   0.844
    12   1    -0.597482      C  2   1.150   H  4   0.844
    13   1    -0.385699      O  1   1.916   (other: 0.084)

 Localized orbitals saved to record      2100.2  (orbital set 2)


 **********************************************************************************************************************************
 DATASETS  * FILE   NREC   LENGTH (MB)   RECORD NAMES
              1      20       43.53       500      610      700      900      950      970     1000      129      960     1100   
                                          VAR    BASINP    GEOM    SYMINP    ZMAT    AOBASIS   BASIS     P2S    ABASIS      S 
                                         1400     1410     1200     1210     1080     1600     1650     1300     1700     1800   
                                           T        V       H0       H01     AOSYM     SMH    MOLCAS    ERIS     OPER     GRID   

              2       5        3.04       700     1000      520     1800     2100   
                                         GEOM     BASIS   MCVARS    GRID      RKS  

 PROGRAMS   *        TOTAL      IBBA        KS       INT
 CPU TIMES  *        16.37      0.03     15.24      0.96
 REAL TIME  *        20.82 SEC
 DISK USED  *        82.64 MB      
 **********************************************************************************************************************************
 Molecular orbitals read from record     2100.2  Type=RKS/LOCAL(IBO)  
 Occupation numbers read from record     2100.2  Type=RKS/LOCAL(IBO)  
 Orbital energies read from record       2100.2  Type=RKS/LOCAL(IBO)  
 Redundancy group numbers read from rec  2100.2  Type=RKS/LOCAL(IBO)  

 IBBA/SVP energy=      0.000000000000

        KS-SCF  
   -154.86785735
 **********************************************************************************************************************************
 Molpro calculation terminated
