
 Primary working directories    : /tmp/sb13343
 Secondary working directories  : /tmp/sb13343
 Wavefunction directory         : /panfs/panasas01/chem/sb13343/wfu/
 Main file repository           : /tmp/sb13343/

 SHA1      : b4a5b34a9e711420743f49e6833241d17c61fb3c
 NAME      : 2099.9.b4a5b34
 ARCHNAME  : linux/x86_64_openmp
 FC        : /cm/shared/languages/GCC-6.1/bin/gfortran
 BLASLIB   : -lblas
 id        : simonbennie

 Nodes     nprocs
 node32-013    1

 Using customized tuning parameters: mindgm=1; mindgv=20; mindgc=4; mindgr=1; noblas=0; minvec=7
 default implementation of scratch files=df  

 memory,500,m
 geomtyp=xyz
 nosym
 noorient
 geometry={
 O          0.00000        0.00000        0.00000
 C          0.00000        0.00000        1.40986
 C          1.30431        0.00000       -0.53525
 H         -1.04418        0.00000        1.73410
 H          1.20786        0.00000       -1.62434
 H          0.50101        0.89295        1.81977
 H          1.87373        0.89295       -0.22737
 H          0.50101       -0.89295        1.81977
 H          1.87373       -0.89295       -0.22737
 }
 basis={ default,sto-3g }
 {ks,HFS,direct;wf,26,1,0}
 {ibba,bonds=1}

 Variables initialized (895), CPU time= 0.00 sec
 Commands  initialized (725), CPU time= 0.01 sec, 591 directives.
 Default parameters read. Elapsed time= 1.37 sec

 Checking input...
 Passed
1


                                         ***  PROGRAM SYSTEM MOLPRO  ***
                                       Copyright, TTI GmbH Stuttgart, 2015
                                    Version 2099.9 linked May 26 2017 16:03:21


 **********************************************************************************************************************************
 LABEL *                                                                                 
  64 bit serial version                                                                  DATE: 07-Jun-17          TIME: 16:20:36  
 **********************************************************************************************************************************

 SHA1:             b4a5b34a9e711420743f49e6833241d17c61fb3c
 **********************************************************************************************************************************
 SETTING GEOMTYP        =    XYZ

 Variable memory set to  500000000 words,  buffer space 

 ZSYMEL=NOSYM

 SETTING BASIS          =    STO-3G


 Recomputing integrals since basis changed


 Using spherical harmonics

 Library entry O      S STO-3G               selected for orbital group  1
 Library entry O      P STO-3G               selected for orbital group  1
 Library entry C      S STO-3G               selected for orbital group  2
 Library entry C      P STO-3G               selected for orbital group  2
 Library entry H      S STO-3G               selected for orbital group  3


 PROGRAM * SEWARD (Integral evaluation for generally contracted gaussian basis sets)     Author: Roland Lindh, 1990

 Geometry written to block  1 of record 700


 Point group  C1  



 ATOMIC COORDINATES

 NR  ATOM    CHARGE       X              Y              Z

   1  O       8.00    0.000000000    0.000000000    0.000000000
   2  C       6.00    0.000000000    0.000000000    2.664249274
   3  C       6.00    2.464788682    0.000000000   -1.011475908
   4  H       1.00   -1.973214225    0.000000000    3.276974073
   5  H       1.00    2.282524597    0.000000000   -3.069557733
   6  H       1.00    0.946771686    1.687430943    3.438866910
   7  H       1.00    3.540836531    1.687430943   -0.429667029
   8  H       1.00    0.946771686   -1.687430943    3.438866910
   9  H       1.00    3.540836531   -1.687430943   -0.429667029

 Bond lengths in Bohr (Angstrom)

 1-2  2.664249274  1-3  2.664257262  2-4  2.066157316  2-6  2.084186243  2-8  2.084186243
     ( 1.409860000)     ( 1.409864227)     ( 1.093363366)     ( 1.102903863)     ( 1.102903863)

 3-5  2.066136732  3-7  2.084179391  3-9  2.084179391
     ( 1.093352473)     ( 1.102900237)     ( 1.102900237)

 Bond angles

  1-2-4  107.25067522   1-2-6  111.81829608   1-2-8  111.81829608   1-3-5  107.25086594

  1-3-7  111.81797398   1-3-9  111.81797398   2-1-3  112.31178693   4-2-6  108.88149892

  4-2-8  108.88149892   5-3-7  108.88146655   5-3-9  108.88146655   6-2-8  108.12064679

  7-3-9  108.12116643

 NUCLEAR CHARGE:                   26
 NUMBER OF PRIMITIVE AOS:          63
 NUMBER OF SYMMETRY AOS:           63
 NUMBER OF CONTRACTIONS:           21   (  21A   )
 NUMBER OF CORE ORBITALS:           3   (   3A   )
 NUMBER OF VALENCE ORBITALS:       18   (  18A   )


 NUCLEAR REPULSION ENERGY   83.80024479


 Eigenvalues of metric

         1 0.234E+00 0.235E+00 0.359E+00 0.371E+00 0.377E+00 0.378E+00 0.398E+00 0.479E+00


 Contracted 2-electron integrals neglected if value below      1.0D-11
 AO integral compression algorithm  1   Integral accuracy      1.0D-11

     0.262 MB (compressed) written to integral file (100.0%)


 NUMBER OF SORTED TWO-ELECTRON INTEGRALS:      26796.     BUFFER LENGTH:  32768
 NUMBER OF SEGMENTS:   1  SEGMENT LENGTH:      26796      RECORD LENGTH: 524288

 Memory used in sort:       0.58 MW

 SORT1 READ       32133. AND WROTE       21402. INTEGRALS IN      1 RECORDS. CPU TIME:     0.00 SEC, REAL TIME:     0.01 SEC
 SORT2 READ       21402. AND WROTE       26796. INTEGRALS IN      1 RECORDS. CPU TIME:     0.01 SEC, REAL TIME:     0.01 SEC

 FILE SIZES:   FILE 1:    30.4 MBYTE,  FILE 4:     4.2 MBYTE,   TOTAL:     34.6 MBYTE

 OPERATOR DM      FOR CENTER  0  COORDINATES:    0.000000    0.000000    0.000000


 **********************************************************************************************************************************
 DATASETS  * FILE   NREC   LENGTH (MB)   RECORD NAMES
              1      19       30.21       500      610      700      900      950      970     1000      129      960     1100   
                                          VAR    BASINP    GEOM    SYMINP    ZMAT    AOBASIS   BASIS     P2S    ABASIS      S 
                                         1400     1410     1200     1210     1080     1600     1650     1300     1700   
                                           T        V       H0       H01     AOSYM     SMH    MOLCAS    ERIS     OPER   

 PROGRAMS   *        TOTAL       INT
 CPU TIMES  *         0.36      0.22
 REAL TIME  *         2.16 SEC
 DISK USED  *        34.99 MB      
 **********************************************************************************************************************************

 Density functional group HFS=DIRAC
 Functional: DIRAC(Automatically generated (new) DIRAC)                        Gradient terms: 0
 Use grid at  1800.2

 Functional: DIRAC                     Factor:  1.0000

 Generated new metagrid on record  1800.2 with target accuracy 1.0D-06 and 33732 points in CPU time    0.9
 Computed new grid on record 1800.1 in CPU time    0.9
   12894 words reserved for DFT integration

 PROGRAM * RKS-SCF (Restricted closed shell Kohn-Sham)     Authors: W. Meyer, H.-J. Werner, P.J. Knowles, 1993

 NUMBER OF ELECTRONS:      13+   13-    SPACE SYMMETRY=1    SPIN SYMMETRY: Singlet 
 CONVERGENCE THRESHOLDS:    1.00E-05 (Density)    1.00E-06 (Energy)
 MAX. NUMBER OF ITERATIONS:       60
 INTERPOLATION TYPE:            DIIS
 INTERPOLATION STEPS:              2 (START)      1 (STEP)
 LEVEL SHIFTS:                  0.00 (CLOSED)  0.00 (OPEN) 



 Use fine grid record 1800.2 for energy threshold  1.0D-06
 Orbital guess generated from atomic densities. Full valence occupancy:   13

 Molecular orbital dump at record        2100.2

 Initial occupancy:  13

 ITERATION    DDIFF          GRAD             ENERGY        2-EL.EN.            DIPOLE MOMENTS         DIIS   ORB.
    1      0.000D+00      0.000D+00      -149.90514450    325.241279    0.96823    0.00000    0.64926    0    start
    2      0.000D+00      0.302D-01      -149.86764937    309.767463   -0.57162    0.00000   -0.38332    1    diag
    3      0.117D+00      0.351D-01      -150.03617820    317.582433    0.42888    0.00000    0.28758    2    diag
    4      0.640D-01      0.527D-02      -150.03931440    317.682876    0.32636    0.00000    0.21884    3    diag
    5      0.926D-02      0.108D-02      -150.03945081    317.664763    0.33382    0.00000    0.22384    4    diag
    6      0.159D-02      0.659D-04      -150.03945166    317.666406    0.33693    0.00000    0.22593    5    diag
    7      0.161D-03      0.286D-05      -150.03945166    317.666773    0.33695    0.00000    0.22594    6    diag
    8      0.470D-05      0.378D-06      -150.03945166    317.666918    0.33697    0.00000    0.22596    0    orth

 Final occupancy:  13

 !RKS STATE 1.1 Energy               -150.039451662943
 Nuclear energy                        83.80024479
 One-electron energy                 -373.95262459
 Two-electron energy                  158.83345922
 Density functional                   -18.72053108     DIRAC=-18.72053108
 Virial quotient                       -0.99744349
 !RKS STATE 1.1 Dipole moment           0.33697493     0.00000000     0.22595679
 Dipole moment /Debye                   0.85644875     0.00000000     0.57428726

 Orbital energies:

         1.1          2.1          3.1          4.1          5.1          6.1          7.1          8.1          9.1         10.1
    -18.250729    -9.536788    -9.536372    -0.813478    -0.540997    -0.462325    -0.307858    -0.306723    -0.303682    -0.245673

        11.1         12.1         13.1         14.1         15.1
     -0.223193    -0.086757    -0.008632     0.323572     0.409858

 HOMO     13.1    -0.008632 =      -0.2349eV
 LUMO     14.1     0.323572 =       8.8048eV
 LUMO-HOMO         0.332204 =       9.0397eV


 **********************************************************************************************************************************
 DATASETS  * FILE   NREC   LENGTH (MB)   RECORD NAMES
              1      20       31.29       500      610      700      900      950      970     1000      129      960     1100   
                                          VAR    BASINP    GEOM    SYMINP    ZMAT    AOBASIS   BASIS     P2S    ABASIS      S 
                                         1400     1410     1200     1210     1080     1600     1650     1300     1700     1800   
                                           T        V       H0       H01     AOSYM     SMH    MOLCAS    ERIS     OPER     GRID   

              2       5        2.90       700     1000      520     1800     2100   
                                         GEOM     BASIS   MCVARS    GRID      RKS  

 PROGRAMS   *        TOTAL        KS       INT
 CPU TIMES  *         1.81      1.45      0.22
 REAL TIME  *         3.80 SEC
 DISK USED  *        34.99 MB      
 **********************************************************************************************************************************


 PROGRAM * Intrinsic Basis Bonding Analysis (IBBA)          Author: G. Knizia

 Molecular orbitals read from record     2100.2  Type=RKS/CANONICAL (state 1.1)
 Fock matrix read from record            2100.2  Type=RKS/TOTAL (state 1.1)
 Orbital energies read from record       2100.2  Type=RKS/CANONICAL (state 1.1)
 Density matrix read from record         2100.2  Type=RKS/CHARGE (state 1.1)

 Number of core orbitals:           3 (   3 )
 Number of closed-shell orbitals:  10 (  10 )

 Basis set MINAO-AUTO-PP generated.      Number of basis functions:   21 

 Polarized AO type:                A = (O Ot + (1-O)(1-Ot)) P12
 Orthogonalization method:         Symmetric (Loewdin)
 Localization functional:          L = sum[A,i] <i|n_A|i>^4 -> max

 Localization group 1:  13 orbitals, occupancy  2.000
 Iterative localization: IB/PM,    7 iter; Final gradient 0.38E-09

 Bond order analysis:       [THRPRINT= 0.020]

   CEN ATOM   CEN ATOM     WIBERG.BO      RENORM.BO
     1   O  -   2   C       1.026319       1.019429
     1   O  -   3   C       1.026315       1.019427
     1   O  -   8   H       0.034070       0.020630
     1   O  -   6   H       0.034070       0.020630
     1   O  -   9   H       0.034069       0.020629
     1   O  -   7   H       0.034069       0.020629

     2   C  -   1   O       1.026319       1.019429
     2   C  -   4   H       0.950924       0.972155
     2   C  -   8   H       0.946071       0.938903
     2   C  -   6   H       0.946071       0.938903

     3   C  -   1   O       1.026315       1.019427
     3   C  -   5   H       0.950925       0.972156
     3   C  -   9   H       0.946073       0.938906
     3   C  -   7   H       0.946073       0.938906

     4   H  -   2   C       0.950924       0.972155

     5   H  -   3   C       0.950925       0.972156

     6   H  -   2   C       0.946071       0.938903
     6   H  -   1   O       0.034070       0.020630

     7   H  -   3   C       0.946073       0.938906
     7   H  -   1   O       0.034069       0.020629

     8   H  -   2   C       0.946071       0.938903
     8   H  -   1   O       0.034070       0.020630

     9   H  -   3   C       0.946073       0.938906
     9   H  -   1   O       0.034069       0.020629


 Valency analysis:

   CEN ATOM   TOT.VALENCE
     1   O       2.206090
     2   C       3.889877
     3   C       3.889877
     4   H       0.977788
     5   H       0.977788
     6   H       0.985294
     7   H       0.985294
     8   H       0.985294
     9   H       0.985294

 Total charge composition:

   CEN ATOM         s          p       ELECTRONS ->P.CHARGE
     1   O       3.64181    4.54498      8.18679   -0.18679
     2   C       3.00382    3.29436      6.29818   -0.29818
     3   C       3.00382    3.29436      6.29818   -0.29818
     4   H       0.85096                 0.85096    0.14904
     5   H       0.85096                 0.85096    0.14904
     6   H       0.87873                 0.87873    0.12127
     7   H       0.87873                 0.87873    0.12127
     8   H       0.87873                 0.87873    0.12127
     9   H       0.87873                 0.87873    0.12127

 Total charge composition, AO contributions:

   CEN ATOM SHL      SPHERICAL COMPONENTS
     1   O  1s       1.99747
     1   O  2s       1.64434
     1   O  2p       1.39264    1.89649    1.25584

     2   C  1s       1.99344
     2   C  2s       1.01038
     2   C  2p       1.20355    1.19449    0.89632

     3   C  1s       1.99344
     3   C  2s       1.01038
     3   C  2p       0.94078    1.19449    1.15910

     4   H  1s       0.85096

     5   H  1s       0.85096

     6   H  1s       0.87873

     7   H  1s       0.87873

     8   H  1s       0.87873

     9   H  1s       0.87873

 Summary of localized orbital composition:   [THRPRINT= 0.020]

   ORB  GRP  ORB.ENERGY      CENTERS/CHARGES
     1   1   -18.098905      O  1   2.000
     2   1    -9.434192      C  3   2.000
     3   1    -9.434189      C  2   2.000
     4   1    -0.540672      O  1   1.158   C  2   0.832
     5   1    -0.540668      O  1   1.158   C  3   0.832
     6   1    -0.366666      C  3   1.151   H  5   0.840
     7   1    -0.366658      C  2   1.151   H  4   0.840
     8   1    -0.363923      C  3   1.140   H  9   0.858
     9   1    -0.363923      C  3   1.140   H  7   0.858
    10   1    -0.363918      C  2   1.140   H  8   0.858
    11   1    -0.363918      C  2   1.140   H  6   0.858
    12   1    -0.343322      O  1   1.968   (other: 0.032)
    13   1    -0.042254      O  1   1.896   (other: 0.104)

 Localized orbitals saved to record      2100.2  (orbital set 2)


 **********************************************************************************************************************************
 DATASETS  * FILE   NREC   LENGTH (MB)   RECORD NAMES
              1      20       31.29       500      610      700      900      950      970     1000      129      960     1100   
                                          VAR    BASINP    GEOM    SYMINP    ZMAT    AOBASIS   BASIS     P2S    ABASIS      S 
                                         1400     1410     1200     1210     1080     1600     1650     1300     1700     1800   
                                           T        V       H0       H01     AOSYM     SMH    MOLCAS    ERIS     OPER     GRID   

              2       5        2.90       700     1000      520     1800     2100   
                                         GEOM     BASIS   MCVARS    GRID      RKS  

 PROGRAMS   *        TOTAL      IBBA        KS       INT
 CPU TIMES  *         1.84      0.03      1.45      0.22
 REAL TIME  *         3.88 SEC
 DISK USED  *        34.99 MB      
 **********************************************************************************************************************************
 Molecular orbitals read from record     2100.2  Type=RKS/LOCAL(IBO)  
 Occupation numbers read from record     2100.2  Type=RKS/LOCAL(IBO)  
 Orbital energies read from record       2100.2  Type=RKS/LOCAL(IBO)  
 Redundancy group numbers read from rec  2100.2  Type=RKS/LOCAL(IBO)  

 IBBA/STO-3G energy=      0.000000000000

        KS-SCF  
   -150.03945166
 **********************************************************************************************************************************
 Molpro calculation terminated
