
 Primary working directories    : /tmp/sb13343
 Secondary working directories  : /tmp/sb13343
 Wavefunction directory         : /panfs/panasas01/chem/sb13343/wfu/
 Main file repository           : /tmp/sb13343/

 SHA1      : b4a5b34a9e711420743f49e6833241d17c61fb3c
 NAME      : 2099.9.b4a5b34
 ARCHNAME  : linux/x86_64_openmp
 FC        : /cm/shared/languages/GCC-6.1/bin/gfortran
 BLASLIB   : -lblas
 id        : simonbennie

 Nodes     nprocs
 node32-013    1

 Using customized tuning parameters: mindgm=1; mindgv=20; mindgc=4; mindgr=1; noblas=0; minvec=7
 default implementation of scratch files=df  

 memory,500,m
 geomtyp=xyz
 nosym
 noorient
 geometry={
 O          0.00000        0.00000        0.00000
 C          0.00000        0.00000        1.40986
 C          1.30431        0.00000       -0.53525
 H         -1.04418        0.00000        1.73410
 H          1.20786        0.00000       -1.62434
 H          0.50101        0.89295        1.81977
 H          1.87373        0.89295       -0.22737
 H          0.50101       -0.89295        1.81977
 H          1.87373       -0.89295       -0.22737
 }
 basis={ default,sto-3g }
 {uks,MM06-L,direct;wf,26,1,0}
 {ibba,bonds=1}

 Variables initialized (895), CPU time= 0.00 sec
 Commands  initialized (725), CPU time= 0.01 sec, 591 directives.
 Default parameters read. Elapsed time= 1.89 sec

 Checking input...
 Passed
1


                                         ***  PROGRAM SYSTEM MOLPRO  ***
                                       Copyright, TTI GmbH Stuttgart, 2015
                                    Version 2099.9 linked May 26 2017 16:03:21


 **********************************************************************************************************************************
 LABEL *                                                                                 
  64 bit serial version                                                                  DATE: 07-Jun-17          TIME: 16:24:52  
 **********************************************************************************************************************************

 SHA1:             b4a5b34a9e711420743f49e6833241d17c61fb3c
 **********************************************************************************************************************************
 SETTING GEOMTYP        =    XYZ

 Variable memory set to  500000000 words,  buffer space 

 ZSYMEL=NOSYM

 SETTING BASIS          =    STO-3G


 Recomputing integrals since basis changed


 Using spherical harmonics

 Library entry O      S STO-3G               selected for orbital group  1
 Library entry O      P STO-3G               selected for orbital group  1
 Library entry C      S STO-3G               selected for orbital group  2
 Library entry C      P STO-3G               selected for orbital group  2
 Library entry H      S STO-3G               selected for orbital group  3


 PROGRAM * SEWARD (Integral evaluation for generally contracted gaussian basis sets)     Author: Roland Lindh, 1990

 Geometry written to block  1 of record 700


 Point group  C1  



 ATOMIC COORDINATES

 NR  ATOM    CHARGE       X              Y              Z

   1  O       8.00    0.000000000    0.000000000    0.000000000
   2  C       6.00    0.000000000    0.000000000    2.664249274
   3  C       6.00    2.464788682    0.000000000   -1.011475908
   4  H       1.00   -1.973214225    0.000000000    3.276974073
   5  H       1.00    2.282524597    0.000000000   -3.069557733
   6  H       1.00    0.946771686    1.687430943    3.438866910
   7  H       1.00    3.540836531    1.687430943   -0.429667029
   8  H       1.00    0.946771686   -1.687430943    3.438866910
   9  H       1.00    3.540836531   -1.687430943   -0.429667029

 Bond lengths in Bohr (Angstrom)

 1-2  2.664249274  1-3  2.664257262  2-4  2.066157316  2-6  2.084186243  2-8  2.084186243
     ( 1.409860000)     ( 1.409864227)     ( 1.093363366)     ( 1.102903863)     ( 1.102903863)

 3-5  2.066136732  3-7  2.084179391  3-9  2.084179391
     ( 1.093352473)     ( 1.102900237)     ( 1.102900237)

 Bond angles

  1-2-4  107.25067522   1-2-6  111.81829608   1-2-8  111.81829608   1-3-5  107.25086594

  1-3-7  111.81797398   1-3-9  111.81797398   2-1-3  112.31178693   4-2-6  108.88149892

  4-2-8  108.88149892   5-3-7  108.88146655   5-3-9  108.88146655   6-2-8  108.12064679

  7-3-9  108.12116643

 NUCLEAR CHARGE:                   26
 NUMBER OF PRIMITIVE AOS:          63
 NUMBER OF SYMMETRY AOS:           63
 NUMBER OF CONTRACTIONS:           21   (  21A   )
 NUMBER OF CORE ORBITALS:           3   (   3A   )
 NUMBER OF VALENCE ORBITALS:       18   (  18A   )


 NUCLEAR REPULSION ENERGY   83.80024479


 Eigenvalues of metric

         1 0.234E+00 0.235E+00 0.359E+00 0.371E+00 0.377E+00 0.378E+00 0.398E+00 0.479E+00


 Contracted 2-electron integrals neglected if value below      1.0D-11
 AO integral compression algorithm  1   Integral accuracy      1.0D-11

     0.262 MB (compressed) written to integral file (100.0%)


 NUMBER OF SORTED TWO-ELECTRON INTEGRALS:      26796.     BUFFER LENGTH:  32768
 NUMBER OF SEGMENTS:   1  SEGMENT LENGTH:      26796      RECORD LENGTH: 524288

 Memory used in sort:       0.58 MW

 SORT1 READ       32133. AND WROTE       21402. INTEGRALS IN      1 RECORDS. CPU TIME:     0.00 SEC, REAL TIME:     0.01 SEC
 SORT2 READ       21402. AND WROTE       26796. INTEGRALS IN      1 RECORDS. CPU TIME:     0.01 SEC, REAL TIME:     0.01 SEC

 FILE SIZES:   FILE 1:    30.4 MBYTE,  FILE 4:     4.2 MBYTE,   TOTAL:     34.6 MBYTE

 OPERATOR DM      FOR CENTER  0  COORDINATES:    0.000000    0.000000    0.000000


 **********************************************************************************************************************************
 DATASETS  * FILE   NREC   LENGTH (MB)   RECORD NAMES
              1      19       30.21       500      610      700      900      950      970     1000      129      960     1100   
                                          VAR    BASINP    GEOM    SYMINP    ZMAT    AOBASIS   BASIS     P2S    ABASIS      S 
                                         1400     1410     1200     1210     1080     1600     1650     1300     1700   
                                           T        V       H0       H01     AOSYM     SMH    MOLCAS    ERIS     OPER   

 PROGRAMS   *        TOTAL       INT
 CPU TIMES  *         0.36      0.22
 REAL TIME  *         2.50 SEC
 DISK USED  *        34.99 MB      
 **********************************************************************************************************************************

 Density functional group MM06-L=M06LX+M06LC
 Functional: M06LX(Automatically generated (new) M06LX)                        Gradient terms: 2
 Functional: M06LC(Automatically generated (new) M06LC)                        Gradient terms: 2
 Use grid at  1800.2

 Functional: M06LX                     Factor:  1.0000
 Functional: M06LC                     Factor:  1.0000

 Generated new metagrid on record  1800.2 with target accuracy 1.0D-06 and 33732 points in CPU time    0.9
 Computed new grid on record 1800.1 in CPU time    0.9
   36897 words reserved for DFT integration

 PROGRAM * UKS-SCF (Unrestricted Kohn-Sham)     Authors: W. Meyer, H.-J. Werner, P.J. Knowles, 1993

 NUMBER OF ELECTRONS:      13+   13-    SPACE SYMMETRY=1    SPIN SYMMETRY: Singlet 
 CONVERGENCE THRESHOLDS:    1.00E-05 (Density)    1.00E-06 (Energy)
 MAX. NUMBER OF ITERATIONS:       60
 INTERPOLATION TYPE:            DIIS
 INTERPOLATION STEPS:              2 (START)      1 (STEP)
 LEVEL SHIFTS:                 -0.20 (ALPHA)  -0.20 (BETA) 



 Use fine grid record 1800.2 for energy threshold  1.0D-06
 Orbital guess generated from atomic densities. Full valence occupancy:   13

 Molecular orbital dump at record        2200.2

 Initial alpha occupation  13
 Initial beta  occupation  13

 ITERATION    DDIFF          GRAD             ENERGY        2-EL.EN.            DIPOLE MOMENTS         DIIS
    1      0.000D+00      0.000D+00      -152.86251654    324.930239    1.00807    0.00000    0.67596    0
    2      0.605D-01      0.193D-01      -152.98439973    316.621058    0.19920    0.00000    0.13551    1
    3      0.877D-02      0.393D-02      -152.98857190    317.649086    0.36148    0.00000    0.24352    2
    4      0.145D-02      0.511D-03      -152.98866311    317.644264    0.35333    0.00000    0.23789    3
    5      0.498D-03      0.151D-03      -152.98867356    317.641072    0.35563    0.00000    0.23927    4
    6      0.150D-03      0.305D-04      -152.98867424    317.641010    0.35544    0.00000    0.23909    5
    7      0.193D-04      0.386D-05      -152.98867425    317.641220    0.35553    0.00000    0.23915    5
    8      0.166D-05      0.337D-06      -152.98867425    317.641224    0.35552    0.00000    0.23914    5
    9      0.338D-06      0.718D-07      -152.98867425    317.641232    0.35552    0.00000    0.23914    5

 Final alpha occupancy:  13
 Final beta  occupancy:  13

 !UKS STATE 1.1 Energy               -152.988674247426
 Nuclear energy                        83.80024479
 One-electron energy                 -373.91994147
 Two-electron energy                  158.82061611
 Density functional                   -21.68959367     M06LX=-20.75931720 M06LC= -0.93027648
 Virial quotient                       -1.01518917
 !UKS STATE 1.1 Dipole moment           0.35552238     0.00000000     0.23914282
 Dipole moment /Debye                   0.90358856     0.00000000     0.60780062

 Orbital energies for positive spin:

         1.1          2.1          3.1          4.1          5.1          6.1          7.1          8.1          9.1         10.1
    -18.699987    -9.916824    -9.916482    -0.938247    -0.646704    -0.566161    -0.391305    -0.388174    -0.385869    -0.331006

        11.1         12.1         13.1         14.1         15.1
     -0.306364    -0.174216    -0.088923     0.282886     0.362936

 Orbital energies for negative spin:

         1.1          2.1          3.1          4.1          5.1          6.1          7.1          8.1          9.1         10.1
    -18.699987    -9.916824    -9.916482    -0.938247    -0.646704    -0.566161    -0.391305    -0.388174    -0.385869    -0.331006

        11.1         12.1         13.1         14.1         15.1
     -0.306364    -0.174216    -0.088923     0.282886     0.362936

 HOMO     13.1    -0.088923 =      -2.4197eV
 LUMO     14.1     0.282886 =       7.6977eV
 LUMO-HOMO         0.371809 =      10.1174eV

 EXPECTATION VALUE OF S**2:             0.00000000

 Natural orbitals saved to record    2200.2 (Orbital set 3)

 Orbital spaces for UNO-CAS (Min. occupation: 0.020  Max. occupation: 1.980):

 Closed:       13
 Active:        0


 **********************************************************************************************************************************
 DATASETS  * FILE   NREC   LENGTH (MB)   RECORD NAMES
              1      20       31.29       500      610      700      900      950      970     1000      129      960     1100   
                                          VAR    BASINP    GEOM    SYMINP    ZMAT    AOBASIS   BASIS     P2S    ABASIS      S 
                                         1400     1410     1200     1210     1080     1600     1650     1300     1700     1800   
                                           T        V       H0       H01     AOSYM     SMH    MOLCAS    ERIS     OPER     GRID   

              2       5        2.91       700     1000      520     1800     2200   
                                         GEOM     BASIS   MCVARS    GRID      UKS  

 PROGRAMS   *        TOTAL       UKS       INT
 CPU TIMES  *         5.31      4.95      0.22
 REAL TIME  *         7.76 SEC
 DISK USED  *        34.99 MB      
 **********************************************************************************************************************************


 PROGRAM * Intrinsic Basis Bonding Analysis (IBBA)          Author: G. Knizia

 Molecular orbitals read from record     2200.2  Type=UKS/ALPHA (state 1.1)
 Fock matrix read from record            2200.2  Type=UKS/TOTAL (state 1.1)
 Orbital energies read from record       2200.2  Type=UKS/ALPHA (state 1.1)
 Density matrix read from record         2200.2  Type=UKS/CHARGE (state 1.1)

 Number of core orbitals:           3 (   3 )
 Number of closed-shell orbitals:  10 (  10 )

 Basis set MINAO-AUTO-PP generated.      Number of basis functions:   21 

 Polarized AO type:                A = (O Ot + (1-O)(1-Ot)) P12
 Orthogonalization method:         Symmetric (Loewdin)
 Localization functional:          L = sum[A,i] <i|n_A|i>^4 -> max

 Localization group 1:  13 orbitals, occupancy  2.000
 Iterative localization: IB/PM,    7 iter; Final gradient 0.25E-09

 Bond order analysis:       [THRPRINT= 0.020]

   CEN ATOM   CEN ATOM     WIBERG.BO      RENORM.BO
     1   O  -   3   C       1.018994       1.020023
     1   O  -   2   C       1.018818       1.019973
     1   O  -   9   H       0.032863       0.019655
     1   O  -   7   H       0.032863       0.019655
     1   O  -   8   H       0.032779       0.019608
     1   O  -   6   H       0.032779       0.019608

     2   C  -   1   O       1.018818       1.019973
     2   C  -   4   H       0.956420       0.972610
     2   C  -   8   H       0.950921       0.940384
     2   C  -   6   H       0.950921       0.940384

     3   C  -   1   O       1.018994       1.020023
     3   C  -   5   H       0.956437       0.972693
     3   C  -   9   H       0.950864       0.940229
     3   C  -   7   H       0.950864       0.940229

     4   H  -   2   C       0.956420       0.972610

     5   H  -   3   C       0.956437       0.972693

     6   H  -   2   C       0.950921       0.940384
     6   H  -   1   O       0.032779       0.019608

     7   H  -   3   C       0.950864       0.940229
     7   H  -   1   O       0.032863       0.019655

     8   H  -   2   C       0.950921       0.940384
     8   H  -   1   O       0.032779       0.019608

     9   H  -   3   C       0.950864       0.940229
     9   H  -   1   O       0.032863       0.019655


 Valency analysis:

   CEN ATOM   TOT.VALENCE
     1   O       2.184074
     2   C       3.897112
     3   C       3.897214
     4   H       0.980889
     5   H       0.980861
     6   H       0.987391
     7   H       0.987412
     8   H       0.987391
     9   H       0.987412

 Total charge composition:

   CEN ATOM         s          p       ELECTRONS ->P.CHARGE
     1   O       3.65955    4.57154      8.23109   -0.23109
     2   C       3.01810    3.22901      6.24711   -0.24711
     3   C       3.01822    3.22915      6.24737   -0.24737
     4   H       0.86176                 0.86176    0.13824
     5   H       0.86166                 0.86166    0.13834
     6   H       0.88771                 0.88771    0.11229
     7   H       0.88780                 0.88780    0.11220
     8   H       0.88771                 0.88771    0.11229
     9   H       0.88780                 0.88780    0.11220

 Total charge composition, AO contributions:

   CEN ATOM SHL      SPHERICAL COMPONENTS
     1   O  1s       1.99720
     1   O  2s       1.66235
     1   O  2p       1.40156    1.89974    1.27025

     2   C  1s       1.99229
     2   C  2s       1.02581
     2   C  2p       1.18248    1.17451    0.87203

     3   C  1s       1.99228
     3   C  2s       1.02594
     3   C  2p       0.91713    1.17438    1.13764

     4   H  1s       0.86176

     5   H  1s       0.86166

     6   H  1s       0.88771

     7   H  1s       0.88780

     8   H  1s       0.88771

     9   H  1s       0.88780

 Summary of localized orbital composition:   [THRPRINT= 0.020]

   ORB  GRP  ORB.ENERGY      CENTERS/CHARGES
     1   1   -18.533613      O  1   2.000
     2   1    -9.809139      C  2   2.000
     3   1    -9.808930      C  3   2.000
     4   1    -0.632133      O  1   1.178   C  2   0.812
     5   1    -0.632081      O  1   1.178   C  3   0.812
     6   1    -0.473051      O  1   1.970   (other: 0.030)
     7   1    -0.457106      C  2   1.140   H  4   0.852
     8   1    -0.456973      C  3   1.140   H  5   0.852
     9   1    -0.456147      C  2   1.131   H  8   0.868
    10   1    -0.456147      C  2   1.131   H  6   0.868
    11   1    -0.455943      C  3   1.131   H  9   0.868
    12   1    -0.455943      C  3   1.131   H  7   0.868
    13   1    -0.123055      O  1   1.899   (other: 0.101)

 Localized orbitals saved to record      2200.2  (orbital set 4)


 **********************************************************************************************************************************
 DATASETS  * FILE   NREC   LENGTH (MB)   RECORD NAMES
              1      20       31.29       500      610      700      900      950      970     1000      129      960     1100   
                                          VAR    BASINP    GEOM    SYMINP    ZMAT    AOBASIS   BASIS     P2S    ABASIS      S 
                                         1400     1410     1200     1210     1080     1600     1650     1300     1700     1800   
                                           T        V       H0       H01     AOSYM     SMH    MOLCAS    ERIS     OPER     GRID   

              2       5        2.92       700     1000      520     1800     2200   
                                         GEOM     BASIS   MCVARS    GRID      UKS  

 PROGRAMS   *        TOTAL      IBBA       UKS       INT
 CPU TIMES  *         5.33      0.02      4.95      0.22
 REAL TIME  *         7.84 SEC
 DISK USED  *        34.99 MB      
 **********************************************************************************************************************************
 Molecular orbitals read from record     2200.2  Type=UKS/LOCAL(IBO)  
 Occupation numbers read from record     2200.2  Type=UKS/LOCAL(IBO)  
 Orbital energies read from record       2200.2  Type=UKS/LOCAL(IBO)  
 Redundancy group numbers read from rec  2200.2  Type=UKS/BETA (state 1.1)

 IBBA/STO-3G energy=      0.000000000000

        UKS-SCF 
   -152.98867425
 **********************************************************************************************************************************
 Molpro calculation terminated
