
 Primary working directories    : /tmp/sb13343
 Secondary working directories  : /tmp/sb13343
 Wavefunction directory         : /panfs/panasas01/chem/sb13343/wfu/
 Main file repository           : /tmp/sb13343/

 SHA1      : b4a5b34a9e711420743f49e6833241d17c61fb3c
 NAME      : 2099.9.b4a5b34
 ARCHNAME  : linux/x86_64_openmp
 FC        : /cm/shared/languages/GCC-6.1/bin/gfortran
 BLASLIB   : -lblas
 id        : simonbennie

 Nodes     nprocs
 node32-020    1

 Using customized tuning parameters: mindgm=1; mindgv=20; mindgc=4; mindgr=1; noblas=0; minvec=7
 default implementation of scratch files=df  

 memory,500,m
 geomtyp=xyz
 nosym
 noorient
 geometry={
 O          0.25818        0.93788        0.04074
 C          1.63656        1.04230        0.32330
 H          1.89907        2.10041        0.23555
 H          2.26234        0.47024       -0.37847
 C         -0.29581       -0.36510        0.22961
 H          0.07373       -0.77023        1.18842
 C          0.09996       -1.32219       -0.89979
 C         -1.80707       -0.17660        0.31883
 H         -2.30941       -1.13436        0.49338
 H         -2.05917        0.50650        1.13581
 H         -2.19015        0.25071       -0.61475
 H         -0.34617       -2.31074       -0.74107
 H         -0.25158       -0.93408       -1.86253
 H          1.18531       -1.45552       -0.96063
 H          1.86878        0.70360        1.34661
 }
 basis={ default,sto-3g }
 {ks,BECKE,direct;wf,42,1,0}
 {ibba,bonds=1}

 Variables initialized (895), CPU time= 0.01 sec
 Commands  initialized (725), CPU time= 0.01 sec, 591 directives.
 Default parameters read. Elapsed time= 0.10 sec

 Checking input...
 Passed
1


                                         ***  PROGRAM SYSTEM MOLPRO  ***
                                       Copyright, TTI GmbH Stuttgart, 2015
                                    Version 2099.9 linked May 26 2017 16:03:21


 **********************************************************************************************************************************
 LABEL *                                                                                 
  64 bit serial version                                                                  DATE: 07-Jun-17          TIME: 21:37:36  
 **********************************************************************************************************************************

 SHA1:             b4a5b34a9e711420743f49e6833241d17c61fb3c
 **********************************************************************************************************************************
 SETTING GEOMTYP        =    XYZ

 Variable memory set to  500000000 words,  buffer space 

 ZSYMEL=NOSYM

 SETTING BASIS          =    STO-3G


 Recomputing integrals since basis changed


 Using spherical harmonics

 Library entry O      S STO-3G               selected for orbital group  1
 Library entry O      P STO-3G               selected for orbital group  1
 Library entry C      S STO-3G               selected for orbital group  2
 Library entry C      P STO-3G               selected for orbital group  2
 Library entry H      S STO-3G               selected for orbital group  3


 PROGRAM * SEWARD (Integral evaluation for generally contracted gaussian basis sets)     Author: Roland Lindh, 1990

 Geometry written to block  1 of record 700


 Point group  C1  



 ATOMIC COORDINATES

 NR  ATOM    CHARGE       X              Y              Z

   1  O       8.00    0.487889491    1.772336338    0.076987442
   2  C       6.00    3.092650186    1.969661540    0.610948456
   3  H       1.00    3.588722191    3.969199649    0.445124989
   4  H       1.00    4.275203001    0.888624813   -0.715204646
   5  C       6.00   -0.558999885   -0.689939008    0.433900015
   6  H       1.00    0.139329507   -1.455523753    2.245788321
   7  C       6.00    0.188897023   -2.498576985   -1.700356670
   8  C       6.00   -3.414867388   -0.333725634    0.602501380
   9  H       1.00   -4.364152409   -2.143629727    0.932353075
  10  H       1.00   -3.891267344    0.957146282    2.146369830
  11  H       1.00   -4.138783672    0.473773237   -1.161709135
  12  H       1.00   -0.654166493   -4.366665745   -1.400419339
  13  H       1.00   -0.475417298   -1.765155378   -3.519671599
  14  H       1.00    2.239911273   -2.750534169   -1.815327607
  15  H       1.00    3.531482387    1.329611301    2.544724097

 Bond lengths in Bohr (Angstrom)

  1- 2  2.666238902   1- 5  2.699289504   2- 3  2.066818209   2- 4  2.079844613   2-15  2.083680934
       ( 1.410912866)       ( 1.428402491)       ( 1.093713095)       ( 1.100606371)       ( 1.102636465)

  5- 6  2.087276497   5- 7  2.895785336   5- 8  2.882931422   7-12  2.071345966   7-13  2.071020903
       ( 1.104539155)       ( 1.532383608)       ( 1.525581609)       ( 1.096109081)       ( 1.095937065)

  7-14  2.069628032   8- 9  2.070192508   8-10  2.068051501   8-11  2.070880961
       ( 1.095199989)       ( 1.095498697)       ( 1.094365725)       ( 1.095863011)

 Bond angles

  1- 2- 3  106.85884507   1- 2- 4  112.91125973   1- 2-15  111.64621834   1- 5- 6  108.63888518

  1-5-7  111.84608248   1-5-8  106.21369660   2-1-5  114.82992588   3-2-4  108.37425913

  3- 2-15  108.72850466   4- 2-15  108.20064699   5- 7-12  110.57572754   5- 7-13  110.08520206

  5- 7-14  111.89623115   5- 8- 9  110.82645738   5- 8-10  110.42517473   5- 8-11  110.16013005

  6- 5- 7  108.92239636   6- 5- 8  109.02480146   7- 5- 8  112.09364518   9- 8-10  108.73162751

  9- 8-11  108.44218100  10- 8-11  108.18344616  12- 7-13  108.42317703  12- 7-14  107.55382926

 13- 7-14  108.19151953

 NUCLEAR CHARGE:                   42
 NUMBER OF PRIMITIVE AOS:         105
 NUMBER OF SYMMETRY AOS:          105
 NUMBER OF CONTRACTIONS:           35   (  35A   )
 NUMBER OF CORE ORBITALS:           5   (   5A   )
 NUMBER OF VALENCE ORBITALS:       30   (  30A   )


 NUCLEAR REPULSION ENERGY  195.74983609


 Eigenvalues of metric

         1 0.208E+00 0.227E+00 0.234E+00 0.281E+00 0.352E+00 0.360E+00 0.363E+00 0.368E+00


 Contracted 2-electron integrals neglected if value below      1.0D-11
 AO integral compression algorithm  1   Integral accuracy      1.0D-11

     1.573 MB (compressed) written to integral file ( 89.1%)


 NUMBER OF SORTED TWO-ELECTRON INTEGRALS:     198765.     BUFFER LENGTH:  32768
 NUMBER OF SEGMENTS:   1  SEGMENT LENGTH:     198765      RECORD LENGTH: 524288

 Memory used in sort:       0.76 MW

 SORT1 READ      224802. AND WROTE      193897. INTEGRALS IN      1 RECORDS. CPU TIME:     0.01 SEC, REAL TIME:     0.01 SEC
 SORT2 READ      193897. AND WROTE      198765. INTEGRALS IN      6 RECORDS. CPU TIME:     0.02 SEC, REAL TIME:     0.03 SEC

 FILE SIZES:   FILE 1:    31.8 MBYTE,  FILE 4:     4.2 MBYTE,   TOTAL:     36.0 MBYTE

 OPERATOR DM      FOR CENTER  0  COORDINATES:    0.000000    0.000000    0.000000


 **********************************************************************************************************************************
 DATASETS  * FILE   NREC   LENGTH (MB)   RECORD NAMES
              1      19       31.10       500      610      700      900      950      970     1000      129      960     1100   
                                          VAR    BASINP    GEOM    SYMINP    ZMAT    AOBASIS   BASIS     P2S    ABASIS      S 
                                         1400     1410     1200     1210     1080     1600     1650     1300     1700   
                                           T        V       H0       H01     AOSYM     SMH    MOLCAS    ERIS     OPER   

 PROGRAMS   *        TOTAL       INT
 CPU TIMES  *         0.64      0.49
 REAL TIME  *         1.07 SEC
 DISK USED  *        36.55 MB      
 **********************************************************************************************************************************

 Density functional group BECKE=B88
 Functional: B88(Automatically generated (new) B88)                            Gradient terms: 1
 Use grid at  1800.2

 Functional: B88                       Factor:  1.0000

 Generated new metagrid on record  1800.2 with target accuracy 1.0D-06 and 52852 points in CPU time    1.4
 Computed new grid on record 1800.1 in CPU time    1.5
   32369 words reserved for DFT integration

 PROGRAM * RKS-SCF (Restricted closed shell Kohn-Sham)     Authors: W. Meyer, H.-J. Werner, P.J. Knowles, 1993

 NUMBER OF ELECTRONS:      21+   21-    SPACE SYMMETRY=1    SPIN SYMMETRY: Singlet 
 CONVERGENCE THRESHOLDS:    1.00E-05 (Density)    1.00E-06 (Energy)
 MAX. NUMBER OF ITERATIONS:       60
 INTERPOLATION TYPE:            DIIS
 INTERPOLATION STEPS:              2 (START)      1 (STEP)
 LEVEL SHIFTS:                  0.00 (CLOSED)  0.00 (OPEN) 



 Use fine grid record 1800.2 for energy threshold  1.0D-06
 Orbital guess generated from atomic densities. Full valence occupancy:   21

 Molecular orbital dump at record        2100.2

 Initial occupancy:  21

 ITERATION    DDIFF          GRAD             ENERGY        2-EL.EN.            DIPOLE MOMENTS         DIIS   ORB.
    1      0.000D+00      0.000D+00      -228.92510778    630.894037    0.59018   -0.93044    0.30346    0    start
    2      0.000D+00      0.259D-01      -228.86793850    601.699128   -0.87470    0.52387   -0.36540    1    diag
    3      0.988D-01      0.292D-01      -229.19759728    615.911638    0.27268   -0.44957    0.18681    2    diag
    4      0.546D-01      0.451D-02      -229.20411241    616.238475    0.12903   -0.26803    0.10264    3    diag
    5      0.894D-02      0.136D-02      -229.20472911    616.185255    0.12784   -0.31368    0.10022    4    diag
    6      0.218D-02      0.211D-03      -229.20474613    616.179788    0.13401   -0.30920    0.10466    5    diag
    7      0.440D-03      0.508D-04      -229.20474714    616.182316    0.13564   -0.31135    0.10633    6    diag
    8      0.942D-04      0.447D-05      -229.20474715    616.182815    0.13568   -0.31121    0.10607    7    diag
    9      0.108D-04      0.173D-05      -229.20474715    616.182759    0.13566   -0.31118    0.10607    8    diag
   10      0.312D-05      0.212D-06      -229.20474715    616.182852    0.13567   -0.31120    0.10609    0    orth

 Final occupancy:  21

 !RKS STATE 1.1 Energy               -229.204747151492
 Nuclear energy                       195.74983609
 One-electron energy                 -700.49543224
 Two-electron energy                  308.09142607
 Density functional                   -32.55057707     B88=-32.55057707
 Virial quotient                       -1.01038317
 !RKS STATE 1.1 Dipole moment           0.13566646    -0.31120305     0.10608796
 Dipole moment /Debye                   0.34480715    -0.79094746     0.26963104

 Orbital energies:

         1.1          2.1          3.1          4.1          5.1          6.1          7.1          8.1          9.1         10.1
    -18.484784    -9.758491    -9.746705    -9.706826    -9.702924    -0.829956    -0.623697    -0.546975    -0.524305    -0.434741

        11.1         12.1         13.1         14.1         15.1         16.1         17.1         18.1         19.1         20.1
     -0.351531    -0.330422    -0.313329    -0.296891    -0.273955    -0.267461    -0.250105    -0.227580    -0.218006    -0.104031

        21.1         22.1         23.1
     -0.032440     0.281765     0.354968

 HOMO     21.1    -0.032440 =      -0.8827eV
 LUMO     22.1     0.281765 =       7.6672eV
 LUMO-HOMO         0.314205 =       8.5499eV


 **********************************************************************************************************************************
 DATASETS  * FILE   NREC   LENGTH (MB)   RECORD NAMES
              1      20       32.79       500      610      700      900      950      970     1000      129      960     1100   
                                          VAR    BASINP    GEOM    SYMINP    ZMAT    AOBASIS   BASIS     P2S    ABASIS      S 
                                         1400     1410     1200     1210     1080     1600     1650     1300     1700     1800   
                                           T        V       H0       H01     AOSYM     SMH    MOLCAS    ERIS     OPER     GRID   

              2       5        3.02       700     1000      520     1800     2100   
                                         GEOM     BASIS   MCVARS    GRID      RKS  

 PROGRAMS   *        TOTAL        KS       INT
 CPU TIMES  *         4.62      3.97      0.49
 REAL TIME  *         5.44 SEC
 DISK USED  *        36.55 MB      
 **********************************************************************************************************************************


 PROGRAM * Intrinsic Basis Bonding Analysis (IBBA)          Author: G. Knizia

 Molecular orbitals read from record     2100.2  Type=RKS/CANONICAL (state 1.1)
 Fock matrix read from record            2100.2  Type=RKS/TOTAL (state 1.1)
 Orbital energies read from record       2100.2  Type=RKS/CANONICAL (state 1.1)
 Density matrix read from record         2100.2  Type=RKS/CHARGE (state 1.1)

 Number of core orbitals:           5 (   5 )
 Number of closed-shell orbitals:  16 (  16 )

 Basis set MINAO-AUTO-PP generated.      Number of basis functions:   35 

 Polarized AO type:                A = (O Ot + (1-O)(1-Ot)) P12
 Orthogonalization method:         Symmetric (Loewdin)
 Localization functional:          L = sum[A,i] <i|n_A|i>^4 -> max

 Localization group 1:  21 orbitals, occupancy  2.000
 Iterative localization: IB/PM,    7 iter; Final gradient 0.59E-08

 Bond order analysis:       [THRPRINT= 0.020]

   CEN ATOM   CEN ATOM     WIBERG.BO      RENORM.BO
     1   O  -   2   C       1.028107       1.021091
     1   O  -   5   C       0.994279       0.980618
     1   O  -   4   H       0.034755       0.020433
     1   O  -  15   H       0.032812       0.019403
     1   O  -   7   C       0.031661       0.016672
     1   O  -   6   H       0.025095       0.015008

     2   C  -   1   O       1.028107       1.021091
     2   C  -   3   H       0.957079       0.971927
     2   C  -  15   H       0.952156       0.939098
     2   C  -   4   H       0.951246       0.936783

     3   H  -   2   C       0.957079       0.971927

     4   H  -   2   C       0.951246       0.936783
     4   H  -   1   O       0.034755       0.020433

     5   C  -   8   C       1.003234       0.995253
     5   C  -   7   C       0.994463       0.964842
     5   C  -   1   O       0.994279       0.980618
     5   C  -   6   H       0.933468       0.924460

     6   H  -   5   C       0.933468       0.924460
     6   H  -   1   O       0.025095       0.015008

     7   C  -   5   C       0.994463       0.964842
     7   C  -  14   H       0.966989       0.986249
     7   C  -  13   H       0.966461       0.985544
     7   C  -  12   H       0.966433       0.989265
     7   C  -   1   O       0.031661       0.016672

     8   C  -   5   C       1.003234       0.995253
     8   C  -   9   H       0.967408       0.990146
     8   C  -  10   H       0.965392       0.987414
     8   C  -  11   H       0.965384       0.985553

     9   H  -   8   C       0.967408       0.990146

    10   H  -   8   C       0.965392       0.987414

    11   H  -   8   C       0.965384       0.985553

    12   H  -   7   C       0.966433       0.989265

    13   H  -   7   C       0.966461       0.985544

    14   H  -   7   C       0.966989       0.986249

    15   H  -   2   C       0.952156       0.939098
    15   H  -   1   O       0.032812       0.019403


 Valency analysis:

   CEN ATOM   TOT.VALENCE
     1   O       2.193084
     2   C       3.910134
     3   H       0.983277
     4   H       0.990069
     5   C       3.952648
     6   H       0.990160
     7   C       3.943214
     8   C       3.940880
     9   H       0.984561
    10   H       0.983297
    11   H       0.984207
    12   H       0.984509
    13   H       0.984896
    14   H       0.985663
    15   H       0.989848

 Total charge composition:

   CEN ATOM         s          p       ELECTRONS ->P.CHARGE
     1   O       3.65864    4.54781      8.20645   -0.20645
     2   C       3.00245    3.23201      6.23447   -0.23447
     3   H       0.87068                 0.87068    0.12932
     4   H       0.90034                 0.90034    0.09966
     5   C       2.96387    3.02616      5.99002    0.00998
     6   H       0.90080                 0.90080    0.09920
     7   C       2.99582    3.38136      6.37718   -0.37718
     8   C       2.99401    3.37306      6.36707   -0.36707
     9   H       0.87575                 0.87575    0.12425
    10   H       0.87076                 0.87076    0.12924
    11   H       0.87433                 0.87433    0.12567
    12   H       0.87554                 0.87554    0.12446
    13   H       0.87710                 0.87710    0.12290
    14   H       0.88026                 0.88026    0.11974
    15   H       0.89924                 0.89924    0.10076

 Total charge composition, AO contributions:

   CEN ATOM SHL      SPHERICAL COMPONENTS
     1   O  1s       1.99739
     1   O  2s       1.66124
     1   O  2p       1.28212    1.39829    1.86740

     2   C  1s       1.99265
     2   C  2s       1.00981
     2   C  2p       0.90251    1.17470    1.15480

     3   H  1s       0.87068

     4   H  1s       0.90034

     5   C  1s       1.99312
     5   C  2s       0.97075
     5   C  2p       1.02858    0.89765    1.09992

     6   H  1s       0.90080

     7   C  1s       1.99211
     7   C  2s       1.00371
     7   C  2p       1.15074    1.12121    1.10940

     8   C  1s       1.99203
     8   C  2s       1.00198
     8   C  2p       1.05130    1.15764    1.16412

     9   H  1s       0.87575

    10   H  1s       0.87076

    11   H  1s       0.87433

    12   H  1s       0.87554

    13   H  1s       0.87710

    14   H  1s       0.88026

    15   H  1s       0.89924

 Summary of localized orbital composition:   [THRPRINT= 0.020]

   ORB  GRP  ORB.ENERGY      CENTERS/CHARGES
     1   1   -18.328981      O  1   2.000
     2   1    -9.662287      C  5   2.000
     3   1    -9.642461      C  2   2.000
     4   1    -9.597309      C  8   2.000
     5   1    -9.594188      C  7   2.000
     6   1    -0.552177      O  1   1.162   C  2   0.828
     7   1    -0.530766      O  1   1.168   C  5   0.811   (other: 0.020)
     8   1    -0.435475      C  5   1.000   C  8   0.984
     9   1    -0.430261      C  7   0.996   C  5   0.995
    10   1    -0.393318      C  2   1.130   H  3   0.861
    11   1    -0.390860      C  2   1.119   H  4   0.880
    12   1    -0.390382      C  2   1.119   H 15   0.879
    13   1    -0.387644      C  5   1.109   H  6   0.877
    14   1    -0.380365      O  1   1.968   (other: 0.032)
    15   1    -0.377663      C  8   1.120   H  9   0.869
    16   1    -0.376032      C  7   1.117   H 14   0.874
    17   1    -0.375971      C  7   1.120   H 12   0.869
    18   1    -0.372575      C  8   1.126   H 10   0.864
    19   1    -0.371128      C  7   1.120   H 13   0.871
    20   1    -0.371059      C  8   1.123   H 11   0.868
    21   1    -0.064253      O  1   1.900   C  5   0.022   C  2   0.021   (other: 0.058)

 Localized orbitals saved to record      2100.2  (orbital set 2)


 **********************************************************************************************************************************
 DATASETS  * FILE   NREC   LENGTH (MB)   RECORD NAMES
              1      20       32.79       500      610      700      900      950      970     1000      129      960     1100   
                                          VAR    BASINP    GEOM    SYMINP    ZMAT    AOBASIS   BASIS     P2S    ABASIS      S 
                                         1400     1410     1200     1210     1080     1600     1650     1300     1700     1800   
                                           T        V       H0       H01     AOSYM     SMH    MOLCAS    ERIS     OPER     GRID   

              2       5        3.03       700     1000      520     1800     2100   
                                         GEOM     BASIS   MCVARS    GRID      RKS  

 PROGRAMS   *        TOTAL      IBBA        KS       INT
 CPU TIMES  *         4.66      0.03      3.97      0.49
 REAL TIME  *         5.60 SEC
 DISK USED  *        36.55 MB      
 **********************************************************************************************************************************
 Molecular orbitals read from record     2100.2  Type=RKS/LOCAL(IBO)  
 Occupation numbers read from record     2100.2  Type=RKS/LOCAL(IBO)  
 Orbital energies read from record       2100.2  Type=RKS/LOCAL(IBO)  
 Redundancy group numbers read from rec  2100.2  Type=RKS/LOCAL(IBO)  

 IBBA/STO-3G energy=      0.000000000000

        KS-SCF  
   -229.20474715
 **********************************************************************************************************************************
 Molpro calculation terminated
