
 Primary working directories    : /tmp/sb13343
 Secondary working directories  : /tmp/sb13343
 Wavefunction directory         : /panfs/panasas01/chem/sb13343/wfu/
 Main file repository           : /tmp/sb13343/

 SHA1      : b4a5b34a9e711420743f49e6833241d17c61fb3c
 NAME      : 2099.9.b4a5b34
 ARCHNAME  : linux/x86_64_openmp
 FC        : /cm/shared/languages/GCC-6.1/bin/gfortran
 BLASLIB   : -lblas
 id        : simonbennie

 Nodes     nprocs
 node33-017    1

 Using customized tuning parameters: mindgm=1; mindgv=20; mindgc=4; mindgr=1; noblas=0; minvec=7
 default implementation of scratch files=df  

 memory,500,m
 geomtyp=xyz
 nosym
 noorient
 geometry={
 O          0.25818        0.93788        0.04074
 C          1.63656        1.04230        0.32330
 H          1.89907        2.10041        0.23555
 H          2.26234        0.47024       -0.37847
 C         -0.29581       -0.36510        0.22961
 H          0.07373       -0.77023        1.18842
 C          0.09996       -1.32219       -0.89979
 C         -1.80707       -0.17660        0.31883
 H         -2.30941       -1.13436        0.49338
 H         -2.05917        0.50650        1.13581
 H         -2.19015        0.25071       -0.61475
 H         -0.34617       -2.31074       -0.74107
 H         -0.25158       -0.93408       -1.86253
 H          1.18531       -1.45552       -0.96063
 H          1.86878        0.70360        1.34661
 }
 basis={ default,svp }
 {ks,PBE0,direct;wf,42,1,0}
 {ibba,bonds=1}

 Variables initialized (895), CPU time= 0.01 sec
 Commands  initialized (725), CPU time= 0.01 sec, 591 directives.
 Default parameters read. Elapsed time= 0.09 sec

 Checking input...
 Passed
1


                                         ***  PROGRAM SYSTEM MOLPRO  ***
                                       Copyright, TTI GmbH Stuttgart, 2015
                                    Version 2099.9 linked May 26 2017 16:03:21


 **********************************************************************************************************************************
 LABEL *                                                                                 
  64 bit serial version                                                                  DATE: 07-Jun-17          TIME: 21:55:46  
 **********************************************************************************************************************************

 SHA1:             b4a5b34a9e711420743f49e6833241d17c61fb3c
 **********************************************************************************************************************************
 SETTING GEOMTYP        =    XYZ

 Variable memory set to  500000000 words,  buffer space 

 ZSYMEL=NOSYM

 SETTING BASIS          =    SVP


 Recomputing integrals since basis changed


 Using spherical harmonics

 Library entry O      S def2-SVP             selected for orbital group  1
 Library entry O      P def2-SVP             selected for orbital group  1
 Library entry O      D def2-SVP             selected for orbital group  1
 Library entry C      S def2-SVP             selected for orbital group  2
 Library entry C      P def2-SVP             selected for orbital group  2
 Library entry C      D def2-SVP             selected for orbital group  2
 Library entry H      S def2-SVP             selected for orbital group  3
 Library entry H      P def2-SVP             selected for orbital group  3


 PROGRAM * SEWARD (Integral evaluation for generally contracted gaussian basis sets)     Author: Roland Lindh, 1990

 Geometry written to block  1 of record 700


 Point group  C1  



 ATOMIC COORDINATES

 NR  ATOM    CHARGE       X              Y              Z

   1  O       8.00    0.487889491    1.772336338    0.076987442
   2  C       6.00    3.092650186    1.969661540    0.610948456
   3  H       1.00    3.588722191    3.969199649    0.445124989
   4  H       1.00    4.275203001    0.888624813   -0.715204646
   5  C       6.00   -0.558999885   -0.689939008    0.433900015
   6  H       1.00    0.139329507   -1.455523753    2.245788321
   7  C       6.00    0.188897023   -2.498576985   -1.700356670
   8  C       6.00   -3.414867388   -0.333725634    0.602501380
   9  H       1.00   -4.364152409   -2.143629727    0.932353075
  10  H       1.00   -3.891267344    0.957146282    2.146369830
  11  H       1.00   -4.138783672    0.473773237   -1.161709135
  12  H       1.00   -0.654166493   -4.366665745   -1.400419339
  13  H       1.00   -0.475417298   -1.765155378   -3.519671599
  14  H       1.00    2.239911273   -2.750534169   -1.815327607
  15  H       1.00    3.531482387    1.329611301    2.544724097

 Bond lengths in Bohr (Angstrom)

  1- 2  2.666238902   1- 5  2.699289504   2- 3  2.066818209   2- 4  2.079844613   2-15  2.083680934
       ( 1.410912866)       ( 1.428402491)       ( 1.093713095)       ( 1.100606371)       ( 1.102636465)

  5- 6  2.087276497   5- 7  2.895785336   5- 8  2.882931422   7-12  2.071345966   7-13  2.071020903
       ( 1.104539155)       ( 1.532383608)       ( 1.525581609)       ( 1.096109081)       ( 1.095937065)

  7-14  2.069628032   8- 9  2.070192508   8-10  2.068051501   8-11  2.070880961
       ( 1.095199989)       ( 1.095498697)       ( 1.094365725)       ( 1.095863011)

 Bond angles

  1- 2- 3  106.85884507   1- 2- 4  112.91125973   1- 2-15  111.64621834   1- 5- 6  108.63888518

  1-5-7  111.84608248   1-5-8  106.21369660   2-1-5  114.82992588   3-2-4  108.37425913

  3- 2-15  108.72850466   4- 2-15  108.20064699   5- 7-12  110.57572754   5- 7-13  110.08520206

  5- 7-14  111.89623115   5- 8- 9  110.82645738   5- 8-10  110.42517473   5- 8-11  110.16013005

  6- 5- 7  108.92239636   6- 5- 8  109.02480146   7- 5- 8  112.09364518   9- 8-10  108.73162751

  9- 8-11  108.44218100  10- 8-11  108.18344616  12- 7-13  108.42317703  12- 7-14  107.55382926

 13- 7-14  108.19151953

 NUCLEAR CHARGE:                   42
 NUMBER OF PRIMITIVE AOS:         195
 NUMBER OF SYMMETRY AOS:          190
 NUMBER OF CONTRACTIONS:          120   ( 120A   )
 NUMBER OF CORE ORBITALS:           5   (   5A   )
 NUMBER OF VALENCE ORBITALS:       30   (  30A   )


 NUCLEAR REPULSION ENERGY  195.74983609


 Eigenvalues of metric

         1 0.241E-02 0.514E-02 0.104E-01 0.150E-01 0.214E-01 0.243E-01 0.289E-01 0.305E-01


 Contracted 2-electron integrals neglected if value below      1.0D-11
 AO integral compression algorithm  1   Integral accuracy      1.0D-11

     97.518 MB (compressed) written to integral file ( 44.4%)


 NUMBER OF SORTED TWO-ELECTRON INTEGRALS:   26357430.     BUFFER LENGTH:  32768
 NUMBER OF SEGMENTS:   2  SEGMENT LENGTH:   15997996      RECORD LENGTH: 524288

 Memory used in sort:      16.56 MW

 SORT1 READ    27501115. AND WROTE    22923365. INTEGRALS IN     67 RECORDS. CPU TIME:     0.35 SEC, REAL TIME:     0.78 SEC
 SORT2 READ    22923365. AND WROTE    26357430. INTEGRALS IN    372 RECORDS. CPU TIME:     0.58 SEC, REAL TIME:     0.75 SEC

 FILE SIZES:   FILE 1:   128.3 MBYTE,  FILE 4:   281.1 MBYTE,   TOTAL:    409.3 MBYTE

 OPERATOR DM      FOR CENTER  0  COORDINATES:    0.000000    0.000000    0.000000


 **********************************************************************************************************************************
 DATASETS  * FILE   NREC   LENGTH (MB)   RECORD NAMES
              1      19      116.03       500      610      700      900      950      970     1000      129      960     1100   
                                          VAR    BASINP    GEOM    SYMINP    ZMAT    AOBASIS   BASIS     P2S    ABASIS      S 
                                         1400     1410     1200     1210     1080     1600     1650     1300     1700   
                                           T        V       H0       H01     AOSYM     SMH    MOLCAS    ERIS     OPER   

 PROGRAMS   *        TOTAL       INT
 CPU TIMES  *         4.05      3.92
 REAL TIME  *         7.10 SEC
 DISK USED  *       409.85 MB      
 **********************************************************************************************************************************

 Density functional group PBE0=PBEX+PBEC
 Functional: PBEX(Automatically generated (new) PBEX)                          Gradient terms: 1
 Functional: PBEC(Automatically generated (new) PBEC)                          Gradient terms: 1
 Use grid at  1800.2


 Exact exchange will be calculated, factor:  0.2500

 Functional: PBEX                      Factor:  0.7500
 Functional: PBEC                      Factor:  1.0000

 Generated new metagrid on record  1800.2 with target accuracy 1.0D-06 and 52852 points in CPU time    1.3
 Computed new grid on record 1800.1 in CPU time    1.5
   99539 words reserved for DFT integration

 PROGRAM * RKS-SCF (Restricted closed shell Kohn-Sham)     Authors: W. Meyer, H.-J. Werner, P.J. Knowles, 1993

 NUMBER OF ELECTRONS:      21+   21-    SPACE SYMMETRY=1    SPIN SYMMETRY: Singlet 
 CONVERGENCE THRESHOLDS:    1.00E-05 (Density)    1.00E-06 (Energy)
 MAX. NUMBER OF ITERATIONS:       60
 INTERPOLATION TYPE:            DIIS
 INTERPOLATION STEPS:              2 (START)      1 (STEP)
 LEVEL SHIFTS:                  0.00 (CLOSED)  0.00 (OPEN) 



 Use fine grid record 1800.2 for energy threshold  1.0D-06
 Orbital guess generated from atomic densities. Full valence occupancy:   21

 Molecular orbital dump at record        2100.2

 Initial occupancy:  21

 ITERATION    DDIFF          GRAD             ENERGY        2-EL.EN.            DIPOLE MOMENTS         DIIS   ORB.
    1      0.000D+00      0.000D+00      -233.07709270    610.255756    0.47196   -0.73276    0.26131    0    start
    2      0.000D+00      0.759D-02      -233.05652947    586.712478   -0.03276    0.04372   -0.06826    1    diag
    3      0.157D-01      0.841D-02      -233.20711497    599.482333    0.30103   -0.44360    0.17977    2    diag
    4      0.892D-02      0.904D-03      -233.20825024    599.023782    0.25492   -0.36754    0.13594    3    diag
    5      0.855D-03      0.344D-03      -233.20843559    599.059396    0.26097   -0.39227    0.13642    4    diag
    6      0.284D-03      0.609D-04      -233.20844115    599.086943    0.26191   -0.38900    0.13978    5    diag
    7      0.646D-04      0.256D-04      -233.20844239    599.083330    0.26189   -0.38970    0.13994    6    diag
    8      0.210D-04      0.277D-05      -233.20844240    599.085100    0.26190   -0.38960    0.13941    7    diag
    9      0.308D-05      0.593D-06      -233.20844240    599.085050    0.26190   -0.38963    0.13963    0    orth

 Final occupancy:  21

 !RKS STATE 1.1 Energy               -233.208442404760
 Nuclear energy                       195.74983609
 One-electron energy                 -702.90013138
 Two-electron energy                  299.54252479
 SCF exchange energy                  -32.45809716     Factor= 0.2500
 Density functional                   -25.60067191     PBEX=-32.30300754 PBEC= -1.37341626
 Virial quotient                       -1.01055627
 !RKS STATE 1.1 Dipole moment           0.26189878    -0.38963393     0.13963328
 Dipole moment /Debye                   0.66563669    -0.99028580     0.35488915

 Orbital energies:

         1.1          2.1          3.1          4.1          5.1          6.1          7.1          8.1          9.1         10.1
    -19.202149   -10.279534   -10.269796   -10.221904   -10.218675    -1.040901    -0.794429    -0.704374    -0.682495    -0.586566

        11.1         12.1         13.1         14.1         15.1         16.1         17.1         18.1         19.1         20.1
     -0.507887    -0.475461    -0.467486    -0.434546    -0.405688    -0.397720    -0.387254    -0.361514    -0.353506    -0.316046

        21.1         22.1         23.1
     -0.262830     0.066665     0.096349

 HOMO     21.1    -0.262830 =      -7.1520eV
 LUMO     22.1     0.066665 =       1.8140eV
 LUMO-HOMO         0.329494 =       8.9660eV


 **********************************************************************************************************************************
 DATASETS  * FILE   NREC   LENGTH (MB)   RECORD NAMES
              1      20      117.72       500      610      700      900      950      970     1000      129      960     1100   
                                          VAR    BASINP    GEOM    SYMINP    ZMAT    AOBASIS   BASIS     P2S    ABASIS      S 
                                         1400     1410     1200     1210     1080     1600     1650     1300     1700     1800   
                                           T        V       H0       H01     AOSYM     SMH    MOLCAS    ERIS     OPER     GRID   

              2       5        3.30       700     1000      520     1800     2100   
                                         GEOM     BASIS   MCVARS    GRID      RKS  

 PROGRAMS   *        TOTAL        KS       INT
 CPU TIMES  *        18.30     14.25      3.92
 REAL TIME  *        22.94 SEC
 DISK USED  *       409.85 MB      
 **********************************************************************************************************************************


 PROGRAM * Intrinsic Basis Bonding Analysis (IBBA)          Author: G. Knizia

 Molecular orbitals read from record     2100.2  Type=RKS/CANONICAL (state 1.1)
 Fock matrix read from record            2100.2  Type=RKS/TOTAL (state 1.1)
 Orbital energies read from record       2100.2  Type=RKS/CANONICAL (state 1.1)
 Density matrix read from record         2100.2  Type=RKS/CHARGE (state 1.1)

 Number of core orbitals:           5 (   5 )
 Number of closed-shell orbitals:  16 (  16 )

 Basis set MINAO-AUTO-PP generated.      Number of basis functions:   35 

 Polarized AO type:                A = (O Ot + (1-O)(1-Ot)) P12
 Orthogonalization method:         Symmetric (Loewdin)
 Localization functional:          L = sum[A,i] <i|n_A|i>^4 -> max

 Localization group 1:  21 orbitals, occupancy  2.000
 Iterative localization: IB/PM,    7 iter; Final gradient 0.34E-08

 Bond order analysis:       [THRPRINT= 0.020]

   CEN ATOM   CEN ATOM     WIBERG.BO      RENORM.BO
     1   O  -   2   C       0.988248       1.017357
     1   O  -   5   C       0.946500       0.962031
     1   O  -   4   H       0.033134       0.019603
     1   O  -  15   H       0.031660       0.018886
     1   O  -   7   C       0.029759       0.015497
     1   O  -   6   H       0.024730       0.014817

     2   C  -   1   O       0.988248       1.017357
     2   C  -   3   H       0.957305       0.978001
     2   C  -  15   H       0.950324       0.939790
     2   C  -   4   H       0.950201       0.938849

     3   H  -   2   C       0.957305       0.978001

     4   H  -   2   C       0.950201       0.938849
     4   H  -   1   O       0.033134       0.019603

     5   C  -   8   C       1.012920       1.005590
     5   C  -   7   C       1.005237       0.980603
     5   C  -   1   O       0.946500       0.962031
     5   C  -   6   H       0.926642       0.919528

     6   H  -   5   C       0.926642       0.919528
     6   H  -   1   O       0.024730       0.014817

     7   C  -   5   C       1.005237       0.980603
     7   C  -  14   H       0.962131       0.983905
     7   C  -  12   H       0.960104       0.986571
     7   C  -  13   H       0.959000       0.979661
     7   C  -   1   O       0.029759       0.015497

     8   C  -   5   C       1.012920       1.005590
     8   C  -   9   H       0.962602       0.987605
     8   C  -  10   H       0.959512       0.984129
     8   C  -  11   H       0.958363       0.979800

     9   H  -   8   C       0.962602       0.987605

    10   H  -   8   C       0.959512       0.984129

    11   H  -   8   C       0.958363       0.979800

    12   H  -   7   C       0.960104       0.986571

    13   H  -   7   C       0.959000       0.979661

    14   H  -   7   C       0.962131       0.983905

    15   H  -   2   C       0.950324       0.939790
    15   H  -   1   O       0.031660       0.018886


 Valency analysis:

   CEN ATOM   TOT.VALENCE
     1   O       2.106396
     2   C       3.866798
     3   H       0.977418
     4   H       0.987275
     5   C       3.917603
     6   H       0.989274
     7   C       3.937717
     8   C       3.936270
     9   H       0.982183
    10   H       0.979409
    11   H       0.980671
    12   H       0.981174
    13   H       0.980881
    14   H       0.982484
    15   H       0.987302

 Total charge composition:

   CEN ATOM         s          p       ELECTRONS ->P.CHARGE
     1   O       3.59707    4.79650      8.39357   -0.39357
     2   C       3.01764    3.17272      6.19036   -0.19036
     3   H       0.84973                 0.84973    0.15027
     4   H       0.88719                 0.88719    0.11281
     5   C       2.95377    2.93599      5.88976    0.11024
     6   H       0.89643                 0.89643    0.10357
     7   C       3.02644    3.39564      6.42209   -0.42209
     8   C       3.02422    3.38317      6.40739   -0.40739
     9   H       0.86652                 0.86652    0.13348
    10   H       0.85650                 0.85650    0.14350
    11   H       0.86097                 0.86097    0.13903
    12   H       0.86279                 0.86279    0.13721
    13   H       0.86173                 0.86173    0.13827
    14   H       0.86765                 0.86765    0.13235
    15   H       0.88732                 0.88732    0.11268

 Total charge composition, AO contributions:

   CEN ATOM SHL      SPHERICAL COMPONENTS
     1   O  1s       1.99716
     1   O  2s       1.59992
     1   O  2p       1.38772    1.52199    1.88679

     2   C  1s       1.99162
     2   C  2s       1.02602
     2   C  2p       0.83680    1.18402    1.15190

     3   H  1s       0.84973

     4   H  1s       0.88719

     5   C  1s       1.99221
     5   C  2s       0.96155
     5   C  2p       1.01072    0.83616    1.08912

     6   H  1s       0.89643

     7   C  1s       1.99097
     7   C  2s       1.03548
     7   C  2p       1.15816    1.12473    1.11275

     8   C  1s       1.99089
     8   C  2s       1.03332
     8   C  2p       1.04950    1.16133    1.17234

     9   H  1s       0.86652

    10   H  1s       0.85650

    11   H  1s       0.86097

    12   H  1s       0.86279

    13   H  1s       0.86173

    14   H  1s       0.86765

    15   H  1s       0.88732

 Summary of localized orbital composition:   [THRPRINT= 0.020]

   ORB  GRP  ORB.ENERGY      CENTERS/CHARGES
     1   1   -19.057574      O  1   2.000
     2   1   -10.180907      C  5   2.000
     3   1   -10.159711      C  2   2.000
     4   1   -10.106673      C  7   2.000
     5   1   -10.102682      C  8   2.000
     6   1    -0.776610      O  1   1.249   C  2   0.743
     7   1    -0.758074      O  1   1.266   C  5   0.716
     8   1    -0.592452      C  5   0.996   C  8   0.991
     9   1    -0.590774      C  7   1.006   C  5   0.985
    10   1    -0.558985      O  1   1.963   (other: 0.037)
    11   1    -0.531363      C  2   1.131   H  4   0.867
    12   1    -0.530852      C  2   1.130   H 15   0.868
    13   1    -0.529709      C  2   1.150   H  3   0.842
    14   1    -0.526409      C  5   1.109   H  6   0.872
    15   1    -0.513834      C  7   1.130   H 12   0.855
    16   1    -0.511902      C  7   1.129   H 14   0.860
    17   1    -0.510951      C  8   1.126   H  9   0.859
    18   1    -0.507366      C  7   1.135   H 13   0.854
    19   1    -0.504364      C  8   1.135   H 11   0.854
    20   1    -0.504264      C  8   1.140   H 10   0.849
    21   1    -0.315305      O  1   1.911   (other: 0.089)

 Localized orbitals saved to record      2100.2  (orbital set 2)


 **********************************************************************************************************************************
 DATASETS  * FILE   NREC   LENGTH (MB)   RECORD NAMES
              1      20      117.72       500      610      700      900      950      970     1000      129      960     1100   
                                          VAR    BASINP    GEOM    SYMINP    ZMAT    AOBASIS   BASIS     P2S    ABASIS      S 
                                         1400     1410     1200     1210     1080     1600     1650     1300     1700     1800   
                                           T        V       H0       H01     AOSYM     SMH    MOLCAS    ERIS     OPER     GRID   

              2       5        3.42       700     1000      520     1800     2100   
                                         GEOM     BASIS   MCVARS    GRID      RKS  

 PROGRAMS   *        TOTAL      IBBA        KS       INT
 CPU TIMES  *        18.35      0.05     14.25      3.92
 REAL TIME  *        23.09 SEC
 DISK USED  *       409.85 MB      
 **********************************************************************************************************************************
 Molecular orbitals read from record     2100.2  Type=RKS/LOCAL(IBO)  
 Occupation numbers read from record     2100.2  Type=RKS/LOCAL(IBO)  
 Orbital energies read from record       2100.2  Type=RKS/LOCAL(IBO)  
 Redundancy group numbers read from rec  2100.2  Type=RKS/LOCAL(IBO)  

 IBBA/SVP energy=      0.000000000000

        KS-SCF  
   -233.20844240
 **********************************************************************************************************************************
 Molpro calculation terminated
