
 Primary working directories    : /tmp/sb13343
 Secondary working directories  : /tmp/sb13343
 Wavefunction directory         : /panfs/panasas01/chem/sb13343/wfu/
 Main file repository           : /tmp/sb13343/

 SHA1      : b4a5b34a9e711420743f49e6833241d17c61fb3c
 NAME      : 2099.9.b4a5b34
 ARCHNAME  : linux/x86_64_openmp
 FC        : /cm/shared/languages/GCC-6.1/bin/gfortran
 BLASLIB   : -lblas
 id        : simonbennie

 Nodes     nprocs
 node32-020    1

 Using customized tuning parameters: mindgm=1; mindgv=20; mindgc=4; mindgr=1; noblas=0; minvec=7
 default implementation of scratch files=df  

 memory,500,m
 geomtyp=xyz
 nosym
 noorient
 geometry={
 O          0.25818        0.93788        0.04074
 C          1.63656        1.04230        0.32330
 H          1.89907        2.10041        0.23555
 H          2.26234        0.47024       -0.37847
 C         -0.29581       -0.36510        0.22961
 H          0.07373       -0.77023        1.18842
 C          0.09996       -1.32219       -0.89979
 C         -1.80707       -0.17660        0.31883
 H         -2.30941       -1.13436        0.49338
 H         -2.05917        0.50650        1.13581
 H         -2.19015        0.25071       -0.61475
 H         -0.34617       -2.31074       -0.74107
 H         -0.25158       -0.93408       -1.86253
 H          1.18531       -1.45552       -0.96063
 H          1.86878        0.70360        1.34661
 }
 basis={ default,svp }
 {uks,S-VWN,direct;wf,42,1,0}
 {ibba,bonds=1}

 Variables initialized (895), CPU time= 0.00 sec
 Commands  initialized (725), CPU time= 0.02 sec, 591 directives.
 Default parameters read. Elapsed time= 0.09 sec

 Checking input...
 Passed
1


                                         ***  PROGRAM SYSTEM MOLPRO  ***
                                       Copyright, TTI GmbH Stuttgart, 2015
                                    Version 2099.9 linked May 26 2017 16:03:21


 **********************************************************************************************************************************
 LABEL *                                                                                 
  64 bit serial version                                                                  DATE: 07-Jun-17          TIME: 22:04:19  
 **********************************************************************************************************************************

 SHA1:             b4a5b34a9e711420743f49e6833241d17c61fb3c
 **********************************************************************************************************************************
 SETTING GEOMTYP        =    XYZ

 Variable memory set to  500000000 words,  buffer space 

 ZSYMEL=NOSYM

 SETTING BASIS          =    SVP


 Recomputing integrals since basis changed


 Using spherical harmonics

 Library entry O      S def2-SVP             selected for orbital group  1
 Library entry O      P def2-SVP             selected for orbital group  1
 Library entry O      D def2-SVP             selected for orbital group  1
 Library entry C      S def2-SVP             selected for orbital group  2
 Library entry C      P def2-SVP             selected for orbital group  2
 Library entry C      D def2-SVP             selected for orbital group  2
 Library entry H      S def2-SVP             selected for orbital group  3
 Library entry H      P def2-SVP             selected for orbital group  3


 PROGRAM * SEWARD (Integral evaluation for generally contracted gaussian basis sets)     Author: Roland Lindh, 1990

 Geometry written to block  1 of record 700


 Point group  C1  



 ATOMIC COORDINATES

 NR  ATOM    CHARGE       X              Y              Z

   1  O       8.00    0.487889491    1.772336338    0.076987442
   2  C       6.00    3.092650186    1.969661540    0.610948456
   3  H       1.00    3.588722191    3.969199649    0.445124989
   4  H       1.00    4.275203001    0.888624813   -0.715204646
   5  C       6.00   -0.558999885   -0.689939008    0.433900015
   6  H       1.00    0.139329507   -1.455523753    2.245788321
   7  C       6.00    0.188897023   -2.498576985   -1.700356670
   8  C       6.00   -3.414867388   -0.333725634    0.602501380
   9  H       1.00   -4.364152409   -2.143629727    0.932353075
  10  H       1.00   -3.891267344    0.957146282    2.146369830
  11  H       1.00   -4.138783672    0.473773237   -1.161709135
  12  H       1.00   -0.654166493   -4.366665745   -1.400419339
  13  H       1.00   -0.475417298   -1.765155378   -3.519671599
  14  H       1.00    2.239911273   -2.750534169   -1.815327607
  15  H       1.00    3.531482387    1.329611301    2.544724097

 Bond lengths in Bohr (Angstrom)

  1- 2  2.666238902   1- 5  2.699289504   2- 3  2.066818209   2- 4  2.079844613   2-15  2.083680934
       ( 1.410912866)       ( 1.428402491)       ( 1.093713095)       ( 1.100606371)       ( 1.102636465)

  5- 6  2.087276497   5- 7  2.895785336   5- 8  2.882931422   7-12  2.071345966   7-13  2.071020903
       ( 1.104539155)       ( 1.532383608)       ( 1.525581609)       ( 1.096109081)       ( 1.095937065)

  7-14  2.069628032   8- 9  2.070192508   8-10  2.068051501   8-11  2.070880961
       ( 1.095199989)       ( 1.095498697)       ( 1.094365725)       ( 1.095863011)

 Bond angles

  1- 2- 3  106.85884507   1- 2- 4  112.91125973   1- 2-15  111.64621834   1- 5- 6  108.63888518

  1-5-7  111.84608248   1-5-8  106.21369660   2-1-5  114.82992588   3-2-4  108.37425913

  3- 2-15  108.72850466   4- 2-15  108.20064699   5- 7-12  110.57572754   5- 7-13  110.08520206

  5- 7-14  111.89623115   5- 8- 9  110.82645738   5- 8-10  110.42517473   5- 8-11  110.16013005

  6- 5- 7  108.92239636   6- 5- 8  109.02480146   7- 5- 8  112.09364518   9- 8-10  108.73162751

  9- 8-11  108.44218100  10- 8-11  108.18344616  12- 7-13  108.42317703  12- 7-14  107.55382926

 13- 7-14  108.19151953

 NUCLEAR CHARGE:                   42
 NUMBER OF PRIMITIVE AOS:         195
 NUMBER OF SYMMETRY AOS:          190
 NUMBER OF CONTRACTIONS:          120   ( 120A   )
 NUMBER OF CORE ORBITALS:           5   (   5A   )
 NUMBER OF VALENCE ORBITALS:       30   (  30A   )


 NUCLEAR REPULSION ENERGY  195.74983609


 Eigenvalues of metric

         1 0.241E-02 0.514E-02 0.104E-01 0.150E-01 0.214E-01 0.243E-01 0.289E-01 0.305E-01


 Contracted 2-electron integrals neglected if value below      1.0D-11
 AO integral compression algorithm  1   Integral accuracy      1.0D-11

     97.518 MB (compressed) written to integral file ( 44.4%)


 NUMBER OF SORTED TWO-ELECTRON INTEGRALS:   26357430.     BUFFER LENGTH:  32768
 NUMBER OF SEGMENTS:   2  SEGMENT LENGTH:   15997996      RECORD LENGTH: 524288

 Memory used in sort:      16.56 MW

 SORT1 READ    27501115. AND WROTE    22923365. INTEGRALS IN     67 RECORDS. CPU TIME:     0.36 SEC, REAL TIME:     0.70 SEC
 SORT2 READ    22923365. AND WROTE    26357430. INTEGRALS IN    372 RECORDS. CPU TIME:     0.56 SEC, REAL TIME:     2.59 SEC

 FILE SIZES:   FILE 1:   128.3 MBYTE,  FILE 4:   281.1 MBYTE,   TOTAL:    409.3 MBYTE

 OPERATOR DM      FOR CENTER  0  COORDINATES:    0.000000    0.000000    0.000000


 **********************************************************************************************************************************
 DATASETS  * FILE   NREC   LENGTH (MB)   RECORD NAMES
              1      19      116.03       500      610      700      900      950      970     1000      129      960     1100   
                                          VAR    BASINP    GEOM    SYMINP    ZMAT    AOBASIS   BASIS     P2S    ABASIS      S 
                                         1400     1410     1200     1210     1080     1600     1650     1300     1700   
                                           T        V       H0       H01     AOSYM     SMH    MOLCAS    ERIS     OPER   

 PROGRAMS   *        TOTAL       INT
 CPU TIMES  *         4.09      3.93
 REAL TIME  *         9.09 SEC
 DISK USED  *       409.85 MB      
 **********************************************************************************************************************************

 Density functional group S-VWN=DIRAC+VWN5
 Functional: DIRAC(Automatically generated (new) DIRAC)                        Gradient terms: 0
 Functional: VWN5(Automatically generated (new) VWN5)                          Gradient terms: 0
 Use grid at  1800.2

 Functional: DIRAC                     Factor:  1.0000
 Functional: VWN5                      Factor:  1.0000

 Generated new metagrid on record  1800.2 with target accuracy 1.0D-06 and 52852 points in CPU time    1.4
 Computed new grid on record 1800.1 in CPU time    1.5
   53819 words reserved for DFT integration

 PROGRAM * UKS-SCF (Unrestricted Kohn-Sham)     Authors: W. Meyer, H.-J. Werner, P.J. Knowles, 1993

 NUMBER OF ELECTRONS:      21+   21-    SPACE SYMMETRY=1    SPIN SYMMETRY: Singlet 
 CONVERGENCE THRESHOLDS:    1.00E-05 (Density)    1.00E-06 (Energy)
 MAX. NUMBER OF ITERATIONS:       60
 INTERPOLATION TYPE:            DIIS
 INTERPOLATION STEPS:              2 (START)      1 (STEP)
 LEVEL SHIFTS:                 -0.20 (ALPHA)  -0.20 (BETA) 



 Use fine grid record 1800.2 for energy threshold  1.0D-06
 Orbital guess generated from atomic densities. Full valence occupancy:   21

 Molecular orbital dump at record        2200.2

 Initial alpha occupation  21
 Initial beta  occupation  21

 ITERATION    DDIFF          GRAD             ENERGY        2-EL.EN.            DIPOLE MOMENTS         DIIS
    1      0.000D+00      0.000D+00      -231.15939052    632.087876    0.50428   -0.73073    0.27473    0
    2      0.135D-01      0.584D-02      -231.38168243    608.868108    0.17070   -0.29999    0.06415    1
    3      0.449D-02      0.293D-02      -231.43507353    615.546567    0.27294   -0.40583    0.15355    2
    4      0.112D-02      0.345D-03      -231.43608584    615.067880    0.24425   -0.35759    0.13084    3
    5      0.611D-03      0.214D-03      -231.43648183    615.092168    0.24676   -0.36443    0.13198    4
    6      0.529D-03      0.585D-04      -231.43656644    615.020807    0.24282   -0.35357    0.12939    5
    7      0.117D-03      0.199D-04      -231.43657182    615.022204    0.24184   -0.35531    0.12724    6
    8      0.408D-04      0.102D-04      -231.43657292    615.020247    0.24208   -0.35430    0.12689    7
    9      0.168D-04      0.198D-05      -231.43657301    615.019021    0.24194   -0.35418    0.12696    7
   10      0.484D-05      0.672D-06      -231.43657301    615.020172    0.24196   -0.35421    0.12681    7
   11      0.172D-05      0.349D-06      -231.43657302    615.019653    0.24196   -0.35418    0.12680    8

 Final alpha occupancy:  21
 Final beta  occupancy:  21

 !UKS STATE 1.1 Energy               -231.436573016422
 Nuclear energy                       195.74983609
 One-electron energy                 -702.84094189
 Two-electron energy                  307.50982647
 Density functional                   -31.85529369     DIRAC=-29.20519288 VWN5= -2.65010081
 Virial quotient                       -1.00636816
 !UKS STATE 1.1 Dipole moment           0.24195768    -0.35418302     0.12680078
 Dipole moment /Debye                   0.61495479    -0.90018447     0.32227433

 Orbital energies for positive spin:

         1.1          2.1          3.1          4.1          5.1          6.1          7.1          8.1          9.1         10.1
    -18.600042    -9.831054    -9.819357    -9.773578    -9.770457    -0.921799    -0.697552    -0.614286    -0.594694    -0.508641

        11.1         12.1         13.1         14.1         15.1         16.1         17.1         18.1         19.1         20.1
     -0.448019    -0.414438    -0.405567    -0.375552    -0.348963    -0.340854    -0.331532    -0.307918    -0.299370    -0.260034

        21.1         22.1         23.1
     -0.205456     0.027645     0.059619

 Orbital energies for negative spin:

         1.1          2.1          3.1          4.1          5.1          6.1          7.1          8.1          9.1         10.1
    -18.600042    -9.831054    -9.819357    -9.773578    -9.770457    -0.921799    -0.697552    -0.614286    -0.594694    -0.508641

        11.1         12.1         13.1         14.1         15.1         16.1         17.1         18.1         19.1         20.1
     -0.448019    -0.414438    -0.405567    -0.375552    -0.348963    -0.340854    -0.331532    -0.307918    -0.299370    -0.260034

        21.1         22.1         23.1
     -0.205456     0.027645     0.059619

 HOMO     21.1    -0.205456 =      -5.5907eV
 LUMO     22.1     0.027645 =       0.7522eV
 LUMO-HOMO         0.233101 =       6.3430eV

 EXPECTATION VALUE OF S**2:            -0.00000000

 Natural orbitals saved to record    2200.2 (Orbital set 3)

 Orbital spaces for UNO-CAS (Min. occupation: 0.020  Max. occupation: 1.980):

 Closed:       21
 Active:        0


 **********************************************************************************************************************************
 DATASETS  * FILE   NREC   LENGTH (MB)   RECORD NAMES
              1      20      117.72       500      610      700      900      950      970     1000      129      960     1100   
                                          VAR    BASINP    GEOM    SYMINP    ZMAT    AOBASIS   BASIS     P2S    ABASIS      S 
                                         1400     1410     1200     1210     1080     1600     1650     1300     1700     1800   
                                           T        V       H0       H01     AOSYM     SMH    MOLCAS    ERIS     OPER     GRID   

              2       5        3.59       700     1000      520     1800     2200   
                                         GEOM     BASIS   MCVARS    GRID      UKS  

 PROGRAMS   *        TOTAL       UKS       INT
 CPU TIMES  *        17.16     13.05      3.93
 REAL TIME  *        22.59 SEC
 DISK USED  *       409.85 MB      
 **********************************************************************************************************************************


 PROGRAM * Intrinsic Basis Bonding Analysis (IBBA)          Author: G. Knizia

 Molecular orbitals read from record     2200.2  Type=UKS/ALPHA (state 1.1)
 Fock matrix read from record            2200.2  Type=UKS/TOTAL (state 1.1)
 Orbital energies read from record       2200.2  Type=UKS/ALPHA (state 1.1)
 Density matrix read from record         2200.2  Type=UKS/CHARGE (state 1.1)

 Number of core orbitals:           5 (   5 )
 Number of closed-shell orbitals:  16 (  16 )

 Basis set MINAO-AUTO-PP generated.      Number of basis functions:   35 

 Polarized AO type:                A = (O Ot + (1-O)(1-Ot)) P12
 Orthogonalization method:         Symmetric (Loewdin)
 Localization functional:          L = sum[A,i] <i|n_A|i>^4 -> max

 Localization group 1:  21 orbitals, occupancy  2.000
 Iterative localization: IB/PM,    7 iter; Final gradient 0.28E-08

 Bond order analysis:       [THRPRINT= 0.020]

   CEN ATOM   CEN ATOM     WIBERG.BO      RENORM.BO
     1   O  -   2   C       0.997102       1.017616
     1   O  -   5   C       0.951970       0.954469
     1   O  -   4   H       0.037312       0.022423
     1   O  -  15   H       0.035442       0.021484
     1   O  -   7   C       0.034407       0.018016
     1   O  -   6   H       0.027536       0.016697

     2   C  -   1   O       0.997102       1.017616
     2   C  -   3   H       0.950733       0.976340
     2   C  -  15   H       0.942062       0.932197
     2   C  -   4   H       0.942056       0.931026

     3   H  -   2   C       0.950733       0.976340

     4   H  -   2   C       0.942056       0.931026
     4   H  -   1   O       0.037312       0.022423

     5   C  -   8   C       1.013335       1.004852
     5   C  -   7   C       1.004771       0.977030
     5   C  -   1   O       0.951970       0.954469
     5   C  -   6   H       0.917277       0.910995

     6   H  -   5   C       0.917277       0.910995
     6   H  -   1   O       0.027536       0.016697

     7   C  -   5   C       1.004771       0.977030
     7   C  -  14   H       0.955261       0.981285
     7   C  -  12   H       0.952593       0.984509
     7   C  -  13   H       0.952334       0.976618
     7   C  -   1   O       0.034407       0.018016

     8   C  -   5   C       1.013335       1.004852
     8   C  -   9   H       0.955566       0.986044
     8   C  -  10   H       0.952988       0.982127
     8   C  -  11   H       0.951551       0.976782

     9   H  -   8   C       0.955566       0.986044

    10   H  -   8   C       0.952988       0.982127

    11   H  -   8   C       0.951551       0.976782

    12   H  -   7   C       0.952593       0.984509

    13   H  -   7   C       0.952334       0.976618

    14   H  -   7   C       0.955261       0.981285

    15   H  -   2   C       0.942062       0.932197
    15   H  -   1   O       0.035442       0.021484


 Valency analysis:

   CEN ATOM   TOT.VALENCE
     1   O       2.145565
     2   C       3.856382
     3   H       0.973629
     4   H       0.985130
     5   C       3.918531
     6   H       0.987544
     7   C       3.925213
     8   C       3.923673
     9   H       0.978770
    10   H       0.976131
    11   H       0.977711
    12   H       0.977691
    13   H       0.977929
    14   H       0.979620
    15   H       0.984941

 Total charge composition:

   CEN ATOM         s          p       ELECTRONS ->P.CHARGE
     1   O       3.58660    4.77629      8.36289   -0.36289
     2   C       3.01160    3.22571      6.23731   -0.23731
     3   H       0.83761                 0.83761    0.16239
     4   H       0.87806                 0.87806    0.12194
     5   C       2.94419    2.96856      5.91275    0.08725
     6   H       0.88839                 0.88839    0.11161
     7   C       3.01842    3.43697      6.45539   -0.45539
     8   C       3.01617    3.42432      6.44049   -0.44049
     9   H       0.85430                 0.85430    0.14570
    10   H       0.84550                 0.84550    0.15450
    11   H       0.85071                 0.85071    0.14929
    12   H       0.85064                 0.85064    0.14936
    13   H       0.85144                 0.85144    0.14856
    14   H       0.85724                 0.85724    0.14276
    15   H       0.87729                 0.87729    0.12271

 Total charge composition, AO contributions:

   CEN ATOM SHL      SPHERICAL COMPONENTS
     1   O  1s       1.99746
     1   O  2s       1.58914
     1   O  2p       1.38356    1.51792    1.87481

     2   C  1s       1.99269
     2   C  2s       1.01891
     2   C  2p       0.85058    1.20296    1.17217

     3   H  1s       0.83761

     4   H  1s       0.87806

     5   C  1s       1.99328
     5   C  2s       0.95091
     5   C  2p       1.01885    0.84802    1.10168

     6   H  1s       0.88839

     7   C  1s       1.99212
     7   C  2s       1.02630
     7   C  2p       1.17367    1.13879    1.12451

     8   C  1s       1.99205
     8   C  2s       1.02411
     8   C  2p       1.05862    1.17707    1.18863

     9   H  1s       0.85430

    10   H  1s       0.84550

    11   H  1s       0.85071

    12   H  1s       0.85064

    13   H  1s       0.85144

    14   H  1s       0.85724

    15   H  1s       0.87729

 Summary of localized orbital composition:   [THRPRINT= 0.020]

   ORB  GRP  ORB.ENERGY      CENTERS/CHARGES
     1   1   -18.470054      O  1   2.000
     2   1    -9.738188      C  5   2.000
     3   1    -9.715637      C  2   2.000
     4   1    -9.665275      C  7   2.000
     5   1    -9.661412      C  8   2.000
     6   1    -0.698487      O  1   1.241   C  2   0.750
     7   1    -0.678345      O  1   1.260   C  5   0.721
     8   1    -0.522393      C  5   0.994   C  8   0.990
     9   1    -0.520499      C  7   1.005   C  5   0.985
    10   1    -0.462426      C  2   1.143   H  4   0.855
    11   1    -0.462243      C  2   1.142   H 15   0.855
    12   1    -0.460917      O  1   1.958   (other: 0.042)
    13   1    -0.460799      C  2   1.163   H  3   0.829
    14   1    -0.456261      C  5   1.118   H  6   0.861   (other: 0.021)
    15   1    -0.445948      C  7   1.140   H 12   0.841
    16   1    -0.443976      C  7   1.139   H 14   0.848
    17   1    -0.443247      C  8   1.137   H  9   0.846
    18   1    -0.439358      C  7   1.146   H 13   0.843
    19   1    -0.436704      C  8   1.146   H 11   0.842
    20   1    -0.436287      C  8   1.151   H 10   0.837
    21   1    -0.250735      O  1   1.898   C  5   0.021   (other: 0.081)

 Localized orbitals saved to record      2200.2  (orbital set 4)


 **********************************************************************************************************************************
 DATASETS  * FILE   NREC   LENGTH (MB)   RECORD NAMES
              1      20      117.72       500      610      700      900      950      970     1000      129      960     1100   
                                          VAR    BASINP    GEOM    SYMINP    ZMAT    AOBASIS   BASIS     P2S    ABASIS      S 
                                         1400     1410     1200     1210     1080     1600     1650     1300     1700     1800   
                                           T        V       H0       H01     AOSYM     SMH    MOLCAS    ERIS     OPER     GRID   

              2       5        3.71       700     1000      520     1800     2200   
                                         GEOM     BASIS   MCVARS    GRID      UKS  

 PROGRAMS   *        TOTAL      IBBA       UKS       INT
 CPU TIMES  *        17.20      0.04     13.05      3.93
 REAL TIME  *        22.73 SEC
 DISK USED  *       409.85 MB      
 **********************************************************************************************************************************
 Molecular orbitals read from record     2200.2  Type=UKS/LOCAL(IBO)  
 Occupation numbers read from record     2200.2  Type=UKS/LOCAL(IBO)  
 Orbital energies read from record       2200.2  Type=UKS/LOCAL(IBO)  
 Redundancy group numbers read from rec  2200.2  Type=UKS/BETA (state 1.1)

 IBBA/SVP energy=      0.000000000000

        UKS-SCF 
   -231.43657302
 **********************************************************************************************************************************
 Molpro calculation terminated
