
 Primary working directories    : /tmp/sb13343
 Secondary working directories  : /tmp/sb13343
 Wavefunction directory         : /panfs/panasas01/chem/sb13343/wfu/
 Main file repository           : /tmp/sb13343/

 SHA1      : b4a5b34a9e711420743f49e6833241d17c61fb3c
 NAME      : 2099.9.b4a5b34
 ARCHNAME  : linux/x86_64_openmp
 FC        : /cm/shared/languages/GCC-6.1/bin/gfortran
 BLASLIB   : -lblas
 id        : simonbennie

 Nodes     nprocs
 node32-012    1

 Using customized tuning parameters: mindgm=1; mindgv=20; mindgc=4; mindgr=1; noblas=0; minvec=7
 default implementation of scratch files=df  

 memory,500,m
 geomtyp=xyz
 nosym
 noorient
 geometry={
 O          0.25818        0.93788        0.04074
 C          1.63656        1.04230        0.32330
 H          1.89907        2.10041        0.23555
 H          2.26234        0.47024       -0.37847
 C         -0.29581       -0.36510        0.22961
 H          0.07373       -0.77023        1.18842
 C          0.09996       -1.32219       -0.89979
 C         -1.80707       -0.17660        0.31883
 H         -2.30941       -1.13436        0.49338
 H         -2.05917        0.50650        1.13581
 H         -2.19015        0.25071       -0.61475
 H         -0.34617       -2.31074       -0.74107
 H         -0.25158       -0.93408       -1.86253
 H          1.18531       -1.45552       -0.96063
 H          1.86878        0.70360        1.34661
 }
 basis={ default,sto-3g }
 {uks,SOGGA,direct;wf,42,1,0}
 {ibba,bonds=1}

 Variables initialized (895), CPU time= 0.00 sec
 Commands  initialized (725), CPU time= 0.02 sec, 591 directives.
 Default parameters read. Elapsed time= 0.09 sec

 Checking input...
 Passed
1


                                         ***  PROGRAM SYSTEM MOLPRO  ***
                                       Copyright, TTI GmbH Stuttgart, 2015
                                    Version 2099.9 linked May 26 2017 16:03:21


 **********************************************************************************************************************************
 LABEL *                                                                                 
  64 bit serial version                                                                  DATE: 07-Jun-17          TIME: 21:45:04  
 **********************************************************************************************************************************

 SHA1:             b4a5b34a9e711420743f49e6833241d17c61fb3c
 **********************************************************************************************************************************
 SETTING GEOMTYP        =    XYZ

 Variable memory set to  500000000 words,  buffer space 

 ZSYMEL=NOSYM

 SETTING BASIS          =    STO-3G


 Recomputing integrals since basis changed


 Using spherical harmonics

 Library entry O      S STO-3G               selected for orbital group  1
 Library entry O      P STO-3G               selected for orbital group  1
 Library entry C      S STO-3G               selected for orbital group  2
 Library entry C      P STO-3G               selected for orbital group  2
 Library entry H      S STO-3G               selected for orbital group  3


 PROGRAM * SEWARD (Integral evaluation for generally contracted gaussian basis sets)     Author: Roland Lindh, 1990

 Geometry written to block  1 of record 700


 Point group  C1  



 ATOMIC COORDINATES

 NR  ATOM    CHARGE       X              Y              Z

   1  O       8.00    0.487889491    1.772336338    0.076987442
   2  C       6.00    3.092650186    1.969661540    0.610948456
   3  H       1.00    3.588722191    3.969199649    0.445124989
   4  H       1.00    4.275203001    0.888624813   -0.715204646
   5  C       6.00   -0.558999885   -0.689939008    0.433900015
   6  H       1.00    0.139329507   -1.455523753    2.245788321
   7  C       6.00    0.188897023   -2.498576985   -1.700356670
   8  C       6.00   -3.414867388   -0.333725634    0.602501380
   9  H       1.00   -4.364152409   -2.143629727    0.932353075
  10  H       1.00   -3.891267344    0.957146282    2.146369830
  11  H       1.00   -4.138783672    0.473773237   -1.161709135
  12  H       1.00   -0.654166493   -4.366665745   -1.400419339
  13  H       1.00   -0.475417298   -1.765155378   -3.519671599
  14  H       1.00    2.239911273   -2.750534169   -1.815327607
  15  H       1.00    3.531482387    1.329611301    2.544724097

 Bond lengths in Bohr (Angstrom)

  1- 2  2.666238902   1- 5  2.699289504   2- 3  2.066818209   2- 4  2.079844613   2-15  2.083680934
       ( 1.410912866)       ( 1.428402491)       ( 1.093713095)       ( 1.100606371)       ( 1.102636465)

  5- 6  2.087276497   5- 7  2.895785336   5- 8  2.882931422   7-12  2.071345966   7-13  2.071020903
       ( 1.104539155)       ( 1.532383608)       ( 1.525581609)       ( 1.096109081)       ( 1.095937065)

  7-14  2.069628032   8- 9  2.070192508   8-10  2.068051501   8-11  2.070880961
       ( 1.095199989)       ( 1.095498697)       ( 1.094365725)       ( 1.095863011)

 Bond angles

  1- 2- 3  106.85884507   1- 2- 4  112.91125973   1- 2-15  111.64621834   1- 5- 6  108.63888518

  1-5-7  111.84608248   1-5-8  106.21369660   2-1-5  114.82992588   3-2-4  108.37425913

  3- 2-15  108.72850466   4- 2-15  108.20064699   5- 7-12  110.57572754   5- 7-13  110.08520206

  5- 7-14  111.89623115   5- 8- 9  110.82645738   5- 8-10  110.42517473   5- 8-11  110.16013005

  6- 5- 7  108.92239636   6- 5- 8  109.02480146   7- 5- 8  112.09364518   9- 8-10  108.73162751

  9- 8-11  108.44218100  10- 8-11  108.18344616  12- 7-13  108.42317703  12- 7-14  107.55382926

 13- 7-14  108.19151953

 NUCLEAR CHARGE:                   42
 NUMBER OF PRIMITIVE AOS:         105
 NUMBER OF SYMMETRY AOS:          105
 NUMBER OF CONTRACTIONS:           35   (  35A   )
 NUMBER OF CORE ORBITALS:           5   (   5A   )
 NUMBER OF VALENCE ORBITALS:       30   (  30A   )


 NUCLEAR REPULSION ENERGY  195.74983609


 Eigenvalues of metric

         1 0.208E+00 0.227E+00 0.234E+00 0.281E+00 0.352E+00 0.360E+00 0.363E+00 0.368E+00


 Contracted 2-electron integrals neglected if value below      1.0D-11
 AO integral compression algorithm  1   Integral accuracy      1.0D-11

     1.573 MB (compressed) written to integral file ( 89.1%)


 NUMBER OF SORTED TWO-ELECTRON INTEGRALS:     198765.     BUFFER LENGTH:  32768
 NUMBER OF SEGMENTS:   1  SEGMENT LENGTH:     198765      RECORD LENGTH: 524288

 Memory used in sort:       0.76 MW

 SORT1 READ      224802. AND WROTE      193897. INTEGRALS IN      1 RECORDS. CPU TIME:     0.00 SEC, REAL TIME:     0.01 SEC
 SORT2 READ      193897. AND WROTE      198765. INTEGRALS IN      6 RECORDS. CPU TIME:     0.02 SEC, REAL TIME:     0.03 SEC

 FILE SIZES:   FILE 1:    31.8 MBYTE,  FILE 4:     4.2 MBYTE,   TOTAL:     36.0 MBYTE

 OPERATOR DM      FOR CENTER  0  COORDINATES:    0.000000    0.000000    0.000000


 **********************************************************************************************************************************
 DATASETS  * FILE   NREC   LENGTH (MB)   RECORD NAMES
              1      19       31.10       500      610      700      900      950      970     1000      129      960     1100   
                                          VAR    BASINP    GEOM    SYMINP    ZMAT    AOBASIS   BASIS     P2S    ABASIS      S 
                                         1400     1410     1200     1210     1080     1600     1650     1300     1700   
                                           T        V       H0       H01     AOSYM     SMH    MOLCAS    ERIS     OPER   

 PROGRAMS   *        TOTAL       INT
 CPU TIMES  *         0.60      0.45
 REAL TIME  *         0.98 SEC
 DISK USED  *        36.55 MB      
 **********************************************************************************************************************************

 Density functional group SOGGA=XC-SOGGA
 Functional: XC-SOGGA(via MFM 1.6)                                             Gradient terms: 1
 Use grid at  1800.2

 Functional: XC-SOGGA                  Factor:  1.0000

 Generated new metagrid on record  1800.2 with target accuracy 1.0D-06 and 52852 points in CPU time    1.3
 Computed new grid on record 1800.1 in CPU time    1.5
   32369 words reserved for DFT integration

 PROGRAM * UKS-SCF (Unrestricted Kohn-Sham)     Authors: W. Meyer, H.-J. Werner, P.J. Knowles, 1993

 NUMBER OF ELECTRONS:      21+   21-    SPACE SYMMETRY=1    SPIN SYMMETRY: Singlet 
 CONVERGENCE THRESHOLDS:    1.00E-05 (Density)    1.00E-06 (Energy)
 MAX. NUMBER OF ITERATIONS:       60
 INTERPOLATION TYPE:            DIIS
 INTERPOLATION STEPS:              2 (START)      1 (STEP)
 LEVEL SHIFTS:                 -0.20 (ALPHA)  -0.20 (BETA) 



 Use fine grid record 1800.2 for energy threshold  1.0D-06
 Orbital guess generated from atomic densities. Full valence occupancy:   21

 Molecular orbital dump at record        2200.2

 Initial alpha occupation  21
 Initial beta  occupation  21

 ITERATION    DDIFF          GRAD             ENERGY        2-EL.EN.            DIPOLE MOMENTS         DIIS
    1      0.000D+00      0.000D+00      -228.93398205    633.039065    0.61438   -0.95979    0.31228    0
    2      0.598D-01      0.190D-01      -229.23709155    614.529811    0.00830   -0.18985    0.01982    1
    3      0.104D-01      0.433D-02      -229.25133026    617.413922    0.14874   -0.33862    0.11193    2
    4      0.127D-02      0.416D-03      -229.25152570    617.384860    0.14910   -0.34096    0.11504    3
    5      0.435D-03      0.151D-03      -229.25155322    617.372772    0.15209   -0.34214    0.11645    4
    6      0.193D-03      0.370D-04      -229.25155583    617.370706    0.15188   -0.33963    0.11566    5
    7      0.438D-04      0.174D-04      -229.25155608    617.371914    0.15241   -0.34073    0.11606    6
    8      0.117D-04      0.319D-05      -229.25155610    617.371742    0.15233   -0.34050    0.11597    6
    9      0.205D-05      0.430D-06      -229.25155610    617.371805    0.15235   -0.34051    0.11597    6
   10      0.685D-06      0.236D-06      -229.25155610    617.371781    0.15234   -0.34051    0.11597    6

 Final alpha occupancy:  21
 Final beta  occupancy:  21

 !UKS STATE 1.1 Energy               -229.251556096623
 Nuclear energy                       195.74983609
 One-electron energy                 -701.07310326
 Two-electron energy                  308.68589040
 Density functional                   -32.61417934     XC-SOGGA=-32.61417934
 Virial quotient                       -1.01032366
 !UKS STATE 1.1 Dipole moment           0.15233962    -0.34050851     0.11597054
 Dipole moment /Debye                   0.38718334    -0.86542962     0.29474841

 Orbital energies for positive spin:

         1.1          2.1          3.1          4.1          5.1          6.1          7.1          8.1          9.1         10.1
    -18.399163    -9.685487    -9.668548    -9.628287    -9.624596    -0.864682    -0.654621    -0.574761    -0.552565    -0.462064

        11.1         12.1         13.1         14.1         15.1         16.1         17.1         18.1         19.1         20.1
     -0.382805    -0.358614    -0.340967    -0.322122    -0.298418    -0.290395    -0.274962    -0.251505    -0.242068    -0.131772

        21.1         22.1         23.1
     -0.056071     0.254604     0.333645

 Orbital energies for negative spin:

         1.1          2.1          3.1          4.1          5.1          6.1          7.1          8.1          9.1         10.1
    -18.399163    -9.685487    -9.668548    -9.628287    -9.624596    -0.864682    -0.654621    -0.574761    -0.552565    -0.462064

        11.1         12.1         13.1         14.1         15.1         16.1         17.1         18.1         19.1         20.1
     -0.382805    -0.358614    -0.340967    -0.322122    -0.298418    -0.290395    -0.274962    -0.251505    -0.242068    -0.131772

        21.1         22.1         23.1
     -0.056071     0.254604     0.333645

 HOMO     21.1    -0.056071 =      -1.5258eV
 LUMO     22.1     0.254604 =       6.9281eV
 LUMO-HOMO         0.310675 =       8.4539eV

 EXPECTATION VALUE OF S**2:             0.00000000

 Natural orbitals saved to record    2200.2 (Orbital set 3)

 Orbital spaces for UNO-CAS (Min. occupation: 0.020  Max. occupation: 1.980):

 Closed:       21
 Active:        0


 **********************************************************************************************************************************
 DATASETS  * FILE   NREC   LENGTH (MB)   RECORD NAMES
              1      20       32.79       500      610      700      900      950      970     1000      129      960     1100   
                                          VAR    BASINP    GEOM    SYMINP    ZMAT    AOBASIS   BASIS     P2S    ABASIS      S 
                                         1400     1410     1200     1210     1080     1600     1650     1300     1700     1800   
                                           T        V       H0       H01     AOSYM     SMH    MOLCAS    ERIS     OPER     GRID   

              2       5        3.05       700     1000      520     1800     2200   
                                         GEOM     BASIS   MCVARS    GRID      UKS  

 PROGRAMS   *        TOTAL       UKS       INT
 CPU TIMES  *         6.89      6.29      0.45
 REAL TIME  *         7.66 SEC
 DISK USED  *        36.55 MB      
 **********************************************************************************************************************************


 PROGRAM * Intrinsic Basis Bonding Analysis (IBBA)          Author: G. Knizia

 Molecular orbitals read from record     2200.2  Type=UKS/ALPHA (state 1.1)
 Fock matrix read from record            2200.2  Type=UKS/TOTAL (state 1.1)
 Orbital energies read from record       2200.2  Type=UKS/ALPHA (state 1.1)
 Density matrix read from record         2200.2  Type=UKS/CHARGE (state 1.1)

 Number of core orbitals:           5 (   5 )
 Number of closed-shell orbitals:  16 (  16 )

 Basis set MINAO-AUTO-PP generated.      Number of basis functions:   35 

 Polarized AO type:                A = (O Ot + (1-O)(1-Ot)) P12
 Orthogonalization method:         Symmetric (Loewdin)
 Localization functional:          L = sum[A,i] <i|n_A|i>^4 -> max

 Localization group 1:  21 orbitals, occupancy  2.000
 Iterative localization: IB/PM,    7 iter; Final gradient 0.32E-08

 Bond order analysis:       [THRPRINT= 0.020]

   CEN ATOM   CEN ATOM     WIBERG.BO      RENORM.BO
     1   O  -   2   C       1.027092       1.018961
     1   O  -   5   C       0.994240       0.975981
     1   O  -   4   H       0.034713       0.020825
     1   O  -   7   C       0.032792       0.017334
     1   O  -  15   H       0.032707       0.019730
     1   O  -   6   H       0.024915       0.015194

     2   C  -   1   O       1.027092       1.018961
     2   C  -   3   H       0.951171       0.972369
     2   C  -  15   H       0.947796       0.940048
     2   C  -   4   H       0.946936       0.937630

     3   H  -   2   C       0.951171       0.972369

     4   H  -   2   C       0.946936       0.937630
     4   H  -   1   O       0.034713       0.020825

     5   C  -   8   C       1.003272       0.994521
     5   C  -   1   O       0.994240       0.975981
     5   C  -   7   C       0.994222       0.963137
     5   C  -   6   H       0.928672       0.924484

     6   H  -   5   C       0.928672       0.924484
     6   H  -   1   O       0.024915       0.015194

     7   C  -   5   C       0.994222       0.963137
     7   C  -  14   H       0.961359       0.986059
     7   C  -  13   H       0.960621       0.985293
     7   C  -  12   H       0.960378       0.989449
     7   C  -   1   O       0.032792       0.017334

     8   C  -   5   C       1.003272       0.994521
     8   C  -   9   H       0.961361       0.990283
     8   C  -  11   H       0.959415       0.985290
     8   C  -  10   H       0.959284       0.987284

     9   H  -   8   C       0.961361       0.990283

    10   H  -   8   C       0.959284       0.987284

    11   H  -   8   C       0.959415       0.985290

    12   H  -   7   C       0.960378       0.989449

    13   H  -   7   C       0.960621       0.985293

    14   H  -   7   C       0.961359       0.986059

    15   H  -   2   C       0.947796       0.940048
    15   H  -   1   O       0.032707       0.019730


 Valency analysis:

   CEN ATOM   TOT.VALENCE
     1   O       2.194451
     2   C       3.894734
     3   H       0.978009
     4   H       0.986146
     5   C       3.948864
     6   H       0.986103
     7   C       3.927442
     8   C       3.924541
     9   H       0.979634
    10   H       0.978210
    11   H       0.979280
    12   H       0.979543
    13   H       0.980056
    14   H       0.981148
    15   H       0.985796

 Total charge composition:

   CEN ATOM         s          p       ELECTRONS ->P.CHARGE
     1   O       3.65504    4.54537      8.20041   -0.20041
     2   C       3.01030    3.28170      6.29200   -0.29200
     3   H       0.85171                 0.85171    0.14829
     4   H       0.88230                 0.88230    0.11770
     5   C       2.96569    3.05198      6.01767   -0.01767
     6   H       0.88211                 0.88211    0.11789
     7   C       3.00101    3.42832      6.42932   -0.42932
     8   C       2.99938    3.42011      6.41948   -0.41948
     9   H       0.85729                 0.85729    0.14271
    10   H       0.85239                 0.85239    0.14761
    11   H       0.85605                 0.85605    0.14395
    12   H       0.85697                 0.85697    0.14303
    13   H       0.85878                 0.85878    0.14122
    14   H       0.86270                 0.86270    0.13730
    15   H       0.88082                 0.88082    0.11918

 Total charge composition, AO contributions:

   CEN ATOM SHL      SPHERICAL COMPONENTS
     1   O  1s       1.99748
     1   O  2s       1.65757
     1   O  2p       1.28132    1.39671    1.86733

     2   C  1s       1.99290
     2   C  2s       1.01740
     2   C  2p       0.91148    1.19541    1.17481

     3   H  1s       0.85171

     4   H  1s       0.88230

     5   C  1s       1.99339
     5   C  2s       0.97230
     5   C  2p       1.03371    0.90514    1.11313

     6   H  1s       0.88211

     7   C  1s       1.99239
     7   C  2s       1.00861
     7   C  2p       1.16955    1.13622    1.12255

     8   C  1s       1.99232
     8   C  2s       1.00706
     8   C  2p       1.05786    1.17762    1.18462

     9   H  1s       0.85729

    10   H  1s       0.85239

    11   H  1s       0.85605

    12   H  1s       0.85697

    13   H  1s       0.85878

    14   H  1s       0.86270

    15   H  1s       0.88082

 Summary of localized orbital composition:   [THRPRINT= 0.020]

   ORB  GRP  ORB.ENERGY      CENTERS/CHARGES
     1   1   -18.247099      O  1   2.000
     2   1    -9.589835      C  5   2.000
     3   1    -9.564321      C  2   2.000
     4   1    -9.519132      C  8   2.000
     5   1    -9.516244      C  7   2.000
     6   1    -0.590003      O  1   1.158   C  2   0.832
     7   1    -0.567670      O  1   1.164   C  5   0.816   (other: 0.020)
     8   1    -0.466784      C  5   1.001   C  8   0.982
     9   1    -0.461173      C  5   0.996   C  7   0.995
    10   1    -0.418043      C  2   1.149   H  3   0.841
    11   1    -0.416020      C  2   1.137   H  4   0.861
    12   1    -0.415816      C  2   1.137   H 15   0.861
    13   1    -0.412775      C  5   1.128   H  6   0.857
    14   1    -0.403380      O  1   1.969   (other: 0.031)
    15   1    -0.401729      C  8   1.137   H  9   0.850
    16   1    -0.400190      C  7   1.134   H 14   0.855
    17   1    -0.400140      C  7   1.138   H 12   0.849
    18   1    -0.396024      C  8   1.145   H 10   0.845
    19   1    -0.394275      C  7   1.139   H 13   0.852
    20   1    -0.394141      C  8   1.141   H 11   0.850
    21   1    -0.089679      O  1   1.900   C  5   0.022   (other: 0.078)

 Localized orbitals saved to record      2200.2  (orbital set 4)


 **********************************************************************************************************************************
 DATASETS  * FILE   NREC   LENGTH (MB)   RECORD NAMES
              1      20       32.79       500      610      700      900      950      970     1000      129      960     1100   
                                          VAR    BASINP    GEOM    SYMINP    ZMAT    AOBASIS   BASIS     P2S    ABASIS      S 
                                         1400     1410     1200     1210     1080     1600     1650     1300     1700     1800   
                                           T        V       H0       H01     AOSYM     SMH    MOLCAS    ERIS     OPER     GRID   

              2       5        3.06       700     1000      520     1800     2200   
                                         GEOM     BASIS   MCVARS    GRID      UKS  

 PROGRAMS   *        TOTAL      IBBA       UKS       INT
 CPU TIMES  *         6.93      0.04      6.29      0.45
 REAL TIME  *         7.79 SEC
 DISK USED  *        36.55 MB      
 **********************************************************************************************************************************
 Molecular orbitals read from record     2200.2  Type=UKS/LOCAL(IBO)  
 Occupation numbers read from record     2200.2  Type=UKS/LOCAL(IBO)  
 Orbital energies read from record       2200.2  Type=UKS/LOCAL(IBO)  
 Redundancy group numbers read from rec  2200.2  Type=UKS/BETA (state 1.1)

 IBBA/STO-3G energy=      0.000000000000

        UKS-SCF 
   -229.25155610
 **********************************************************************************************************************************
 Molpro calculation terminated
