
 Primary working directories    : /tmp/sb13343
 Secondary working directories  : /tmp/sb13343
 Wavefunction directory         : /panfs/panasas01/chem/sb13343/wfu/
 Main file repository           : /tmp/sb13343/

 SHA1      : b4a5b34a9e711420743f49e6833241d17c61fb3c
 NAME      : 2099.9.b4a5b34
 ARCHNAME  : linux/x86_64_openmp
 FC        : /cm/shared/languages/GCC-6.1/bin/gfortran
 BLASLIB   : -lblas
 id        : simonbennie

 Nodes     nprocs
 node45-014    1

 Using customized tuning parameters: mindgm=1; mindgv=20; mindgc=4; mindgr=1; noblas=0; minvec=7
 default implementation of scratch files=df  

 memory,500,m
 geomtyp=xyz
 nosym
 noorient
 geometry={
 O          0.25818        0.93788        0.04074
 C          1.63656        1.04230        0.32330
 H          1.89907        2.10041        0.23555
 H          2.26234        0.47024       -0.37847
 C         -0.29581       -0.36510        0.22961
 H          0.07373       -0.77023        1.18842
 C          0.09996       -1.32219       -0.89979
 C         -1.80707       -0.17660        0.31883
 H         -2.30941       -1.13436        0.49338
 H         -2.05917        0.50650        1.13581
 H         -2.19015        0.25071       -0.61475
 H         -0.34617       -2.31074       -0.74107
 H         -0.25158       -0.93408       -1.86253
 H          1.18531       -1.45552       -0.96063
 H          1.86878        0.70360        1.34661
 }
 basis={ default,svp }
 {uks,M06-2X,direct;wf,42,1,0}
 {ibba,bonds=1}

 Variables initialized (895), CPU time= 0.00 sec
 Commands  initialized (725), CPU time= 0.01 sec, 591 directives.
 Default parameters read. Elapsed time= 0.11 sec

 Checking input...
 Passed
1


                                         ***  PROGRAM SYSTEM MOLPRO  ***
                                       Copyright, TTI GmbH Stuttgart, 2015
                                    Version 2099.9 linked May 26 2017 16:03:21


 **********************************************************************************************************************************
 LABEL *                                                                                 
  64 bit serial version                                                                  DATE: 07-Jun-17          TIME: 22:08:05  
 **********************************************************************************************************************************

 SHA1:             b4a5b34a9e711420743f49e6833241d17c61fb3c
 **********************************************************************************************************************************
 SETTING GEOMTYP        =    XYZ

 Variable memory set to  500000000 words,  buffer space 

 ZSYMEL=NOSYM

 SETTING BASIS          =    SVP


 Recomputing integrals since basis changed


 Using spherical harmonics

 Library entry O      S def2-SVP             selected for orbital group  1
 Library entry O      P def2-SVP             selected for orbital group  1
 Library entry O      D def2-SVP             selected for orbital group  1
 Library entry C      S def2-SVP             selected for orbital group  2
 Library entry C      P def2-SVP             selected for orbital group  2
 Library entry C      D def2-SVP             selected for orbital group  2
 Library entry H      S def2-SVP             selected for orbital group  3
 Library entry H      P def2-SVP             selected for orbital group  3


 PROGRAM * SEWARD (Integral evaluation for generally contracted gaussian basis sets)     Author: Roland Lindh, 1990

 Geometry written to block  1 of record 700


 Point group  C1  



 ATOMIC COORDINATES

 NR  ATOM    CHARGE       X              Y              Z

   1  O       8.00    0.487889491    1.772336338    0.076987442
   2  C       6.00    3.092650186    1.969661540    0.610948456
   3  H       1.00    3.588722191    3.969199649    0.445124989
   4  H       1.00    4.275203001    0.888624813   -0.715204646
   5  C       6.00   -0.558999885   -0.689939008    0.433900015
   6  H       1.00    0.139329507   -1.455523753    2.245788321
   7  C       6.00    0.188897023   -2.498576985   -1.700356670
   8  C       6.00   -3.414867388   -0.333725634    0.602501380
   9  H       1.00   -4.364152409   -2.143629727    0.932353075
  10  H       1.00   -3.891267344    0.957146282    2.146369830
  11  H       1.00   -4.138783672    0.473773237   -1.161709135
  12  H       1.00   -0.654166493   -4.366665745   -1.400419339
  13  H       1.00   -0.475417298   -1.765155378   -3.519671599
  14  H       1.00    2.239911273   -2.750534169   -1.815327607
  15  H       1.00    3.531482387    1.329611301    2.544724097

 Bond lengths in Bohr (Angstrom)

  1- 2  2.666238902   1- 5  2.699289504   2- 3  2.066818209   2- 4  2.079844613   2-15  2.083680934
       ( 1.410912866)       ( 1.428402491)       ( 1.093713095)       ( 1.100606371)       ( 1.102636465)

  5- 6  2.087276497   5- 7  2.895785336   5- 8  2.882931422   7-12  2.071345966   7-13  2.071020903
       ( 1.104539155)       ( 1.532383608)       ( 1.525581609)       ( 1.096109081)       ( 1.095937065)

  7-14  2.069628032   8- 9  2.070192508   8-10  2.068051501   8-11  2.070880961
       ( 1.095199989)       ( 1.095498697)       ( 1.094365725)       ( 1.095863011)

 Bond angles

  1- 2- 3  106.85884507   1- 2- 4  112.91125973   1- 2-15  111.64621834   1- 5- 6  108.63888518

  1-5-7  111.84608248   1-5-8  106.21369660   2-1-5  114.82992588   3-2-4  108.37425913

  3- 2-15  108.72850466   4- 2-15  108.20064699   5- 7-12  110.57572754   5- 7-13  110.08520206

  5- 7-14  111.89623115   5- 8- 9  110.82645738   5- 8-10  110.42517473   5- 8-11  110.16013005

  6- 5- 7  108.92239636   6- 5- 8  109.02480146   7- 5- 8  112.09364518   9- 8-10  108.73162751

  9- 8-11  108.44218100  10- 8-11  108.18344616  12- 7-13  108.42317703  12- 7-14  107.55382926

 13- 7-14  108.19151953

 NUCLEAR CHARGE:                   42
 NUMBER OF PRIMITIVE AOS:         195
 NUMBER OF SYMMETRY AOS:          190
 NUMBER OF CONTRACTIONS:          120   ( 120A   )
 NUMBER OF CORE ORBITALS:           5   (   5A   )
 NUMBER OF VALENCE ORBITALS:       30   (  30A   )


 NUCLEAR REPULSION ENERGY  195.74983609


 Eigenvalues of metric

         1 0.241E-02 0.514E-02 0.104E-01 0.150E-01 0.214E-01 0.243E-01 0.289E-01 0.305E-01


 Contracted 2-electron integrals neglected if value below      1.0D-11
 AO integral compression algorithm  1   Integral accuracy      1.0D-11

     97.518 MB (compressed) written to integral file ( 44.4%)


 NUMBER OF SORTED TWO-ELECTRON INTEGRALS:   26357430.     BUFFER LENGTH:  32768
 NUMBER OF SEGMENTS:   2  SEGMENT LENGTH:   15997996      RECORD LENGTH: 524288

 Memory used in sort:      16.56 MW

 SORT1 READ    27501115. AND WROTE    22923365. INTEGRALS IN     67 RECORDS. CPU TIME:     0.36 SEC, REAL TIME:     0.76 SEC
 SORT2 READ    22923365. AND WROTE    26357430. INTEGRALS IN    372 RECORDS. CPU TIME:     0.60 SEC, REAL TIME:     4.70 SEC

 FILE SIZES:   FILE 1:   128.3 MBYTE,  FILE 4:   281.1 MBYTE,   TOTAL:    409.3 MBYTE

 OPERATOR DM      FOR CENTER  0  COORDINATES:    0.000000    0.000000    0.000000


 **********************************************************************************************************************************
 DATASETS  * FILE   NREC   LENGTH (MB)   RECORD NAMES
              1      19      116.03       500      610      700      900      950      970     1000      129      960     1100   
                                          VAR    BASINP    GEOM    SYMINP    ZMAT    AOBASIS   BASIS     P2S    ABASIS      S 
                                         1400     1410     1200     1210     1080     1600     1650     1300     1700   
                                           T        V       H0       H01     AOSYM     SMH    MOLCAS    ERIS     OPER   

 PROGRAMS   *        TOTAL       INT
 CPU TIMES  *         3.82      3.68
 REAL TIME  *         9.09 SEC
 DISK USED  *       409.85 MB      
 **********************************************************************************************************************************

 Density functional group M06-2X=XC-M06-2X
 Functional: XC-M06-2X(via MFM 1.6)                                            Gradient terms: 1
 Use grid at  1800.2


 Exact exchange will be calculated, factor:  0.5400

 Functional: XC-M06-2X                 Factor:  1.0000

 Generated new metagrid on record  1800.2 with target accuracy 1.0D-06 and 52852 points in CPU time    1.3
 Computed new grid on record 1800.1 in CPU time    1.5
   99539 words reserved for DFT integration

 PROGRAM * UKS-SCF (Unrestricted Kohn-Sham)     Authors: W. Meyer, H.-J. Werner, P.J. Knowles, 1993

 NUMBER OF ELECTRONS:      21+   21-    SPACE SYMMETRY=1    SPIN SYMMETRY: Singlet 
 CONVERGENCE THRESHOLDS:    1.00E-05 (Density)    1.00E-06 (Energy)
 MAX. NUMBER OF ITERATIONS:       60
 INTERPOLATION TYPE:            DIIS
 INTERPOLATION STEPS:              2 (START)      1 (STEP)
 LEVEL SHIFTS:                 -0.20 (ALPHA)  -0.20 (BETA) 



 Use fine grid record 1800.2 for energy threshold  1.0D-06
 Orbital guess generated from atomic densities. Full valence occupancy:   21

 Molecular orbital dump at record        2200.2

 Initial alpha occupation  21
 Initial beta  occupation  21

 ITERATION    DDIFF          GRAD             ENERGY        2-EL.EN.            DIPOLE MOMENTS         DIIS
    1      0.000D+00      0.000D+00      -233.27376643    587.769112    0.45686   -0.73932    0.25442    0
    2      0.613D-02      0.327D-02      -233.35135574    578.703646    0.23820   -0.41578    0.11015    1
    3      0.166D-02      0.107D-02      -233.35815531    580.317182    0.28229   -0.44765    0.15357    2
    4      0.735D-03      0.285D-03      -233.35913719    580.088756    0.27078   -0.41280    0.14592    3
    5      0.514D-03      0.135D-03      -233.35941854    580.054657    0.27209   -0.40786    0.14561    4
    6      0.236D-03      0.331D-04      -233.35944277    580.033050    0.27322   -0.40400    0.14438    5
    7      0.575D-04      0.731D-05      -233.35944399    580.032822    0.27334   -0.40381    0.14339    6
    8      0.138D-04      0.238D-05      -233.35944409    580.031060    0.27351   -0.40352    0.14323    7
    9      0.600D-05      0.819D-06      -233.35944411    580.031530    0.27351   -0.40347    0.14313    7
   10      0.159D-05      0.210D-06      -233.35944411    580.031578    0.27352   -0.40345    0.14309    7

 Final alpha occupancy:  21
 Final beta  occupancy:  21

 !UKS STATE 1.1 Energy               -233.359444110055
 Nuclear energy                       195.74983609
 One-electron energy                 -702.78861704
 Two-electron energy                  290.01578898
 Density functional                   -16.33645214     XC-M06-2X=-16.33645214
 Virial quotient                       -1.01089209
 !UKS STATE 1.1 Dipole moment           0.27351615    -0.40345415     0.14308898
 Dipole moment /Debye                   0.69516319    -1.02541100     0.36367210

 Orbital energies for positive spin:

         1.1          2.1          3.1          4.1          5.1          6.1          7.1          8.1          9.1         10.1
    -19.620429   -10.598062   -10.590471   -10.541190   -10.537489    -1.129646    -0.867635    -0.773757    -0.750825    -0.651045

        11.1         12.1         13.1         14.1         15.1         16.1         17.1         18.1         19.1         20.1
     -0.564746    -0.532325    -0.527229    -0.489707    -0.457422    -0.449911    -0.438238    -0.411211    -0.403615    -0.369722

        21.1         22.1         23.1
     -0.320366     0.094818     0.125435

 Orbital energies for negative spin:

         1.1          2.1          3.1          4.1          5.1          6.1          7.1          8.1          9.1         10.1
    -19.620429   -10.598062   -10.590471   -10.541190   -10.537489    -1.129646    -0.867635    -0.773757    -0.750825    -0.651045

        11.1         12.1         13.1         14.1         15.1         16.1         17.1         18.1         19.1         20.1
     -0.564746    -0.532325    -0.527229    -0.489707    -0.457422    -0.449911    -0.438238    -0.411211    -0.403615    -0.369722

        21.1         22.1         23.1
     -0.320366     0.094818     0.125435

 HOMO     21.1    -0.320366 =      -8.7176eV
 LUMO     22.1     0.094818 =       2.5801eV
 LUMO-HOMO         0.415184 =      11.2977eV

 EXPECTATION VALUE OF S**2:             0.00000000

 Natural orbitals saved to record    2200.2 (Orbital set 3)

 Orbital spaces for UNO-CAS (Min. occupation: 0.020  Max. occupation: 1.980):

 Closed:       21
 Active:        0


 **********************************************************************************************************************************
 DATASETS  * FILE   NREC   LENGTH (MB)   RECORD NAMES
              1      20      117.72       500      610      700      900      950      970     1000      129      960     1100   
                                          VAR    BASINP    GEOM    SYMINP    ZMAT    AOBASIS   BASIS     P2S    ABASIS      S 
                                         1400     1410     1200     1210     1080     1600     1650     1300     1700     1800   
                                           T        V       H0       H01     AOSYM     SMH    MOLCAS    ERIS     OPER     GRID   

              2       5        3.59       700     1000      520     1800     2200   
                                         GEOM     BASIS   MCVARS    GRID      UKS  

 PROGRAMS   *        TOTAL       UKS       INT
 CPU TIMES  *        62.12     58.30      3.68
 REAL TIME  *        68.13 SEC
 DISK USED  *       409.85 MB      
 **********************************************************************************************************************************


 PROGRAM * Intrinsic Basis Bonding Analysis (IBBA)          Author: G. Knizia

 Molecular orbitals read from record     2200.2  Type=UKS/ALPHA (state 1.1)
 Fock matrix read from record            2200.2  Type=UKS/TOTAL (state 1.1)
 Orbital energies read from record       2200.2  Type=UKS/ALPHA (state 1.1)
 Density matrix read from record         2200.2  Type=UKS/CHARGE (state 1.1)

 Number of core orbitals:           5 (   5 )
 Number of closed-shell orbitals:  16 (  16 )

 Basis set MINAO-AUTO-PP generated.      Number of basis functions:   35 

 Polarized AO type:                A = (O Ot + (1-O)(1-Ot)) P12
 Orthogonalization method:         Symmetric (Loewdin)
 Localization functional:          L = sum[A,i] <i|n_A|i>^4 -> max

 Localization group 1:  21 orbitals, occupancy  2.000
 Iterative localization: IB/PM,    7 iter; Final gradient 0.32E-08

 Bond order analysis:       [THRPRINT= 0.020]

   CEN ATOM   CEN ATOM     WIBERG.BO      RENORM.BO
     1   O  -   2   C       0.984033       1.016270
     1   O  -   5   C       0.944969       0.964761
     1   O  -   4   H       0.030685       0.018032
     1   O  -  15   H       0.029379       0.017405
     1   O  -   7   C       0.027788       0.014489
     1   O  -   6   H       0.023222       0.013806

     2   C  -   1   O       0.984033       1.016270
     2   C  -   3   H       0.959001       0.979008
     2   C  -  15   H       0.953698       0.944300
     2   C  -   4   H       0.953612       0.943596

     3   H  -   2   C       0.959001       0.979008

     4   H  -   2   C       0.953612       0.943596
     4   H  -   1   O       0.030685       0.018032

     5   C  -   8   C       1.011142       1.004810
     5   C  -   7   C       1.004081       0.981513
     5   C  -   1   O       0.944969       0.964761
     5   C  -   6   H       0.931507       0.924579

     6   H  -   5   C       0.931507       0.924579
     6   H  -   1   O       0.023222       0.013806

     7   C  -   5   C       1.004081       0.981513
     7   C  -  14   H       0.964171       0.985251
     7   C  -  12   H       0.962429       0.988069
     7   C  -  13   H       0.961112       0.981393
     7   C  -   1   O       0.027788       0.014489

     8   C  -   5   C       1.011142       1.004810
     8   C  -   9   H       0.964792       0.988478
     8   C  -  10   H       0.961495       0.985343
     8   C  -  11   H       0.960606       0.981513

     9   H  -   8   C       0.964792       0.988478

    10   H  -   8   C       0.961495       0.985343

    11   H  -   8   C       0.960606       0.981513

    12   H  -   7   C       0.962429       0.988069

    13   H  -   7   C       0.961112       0.981393

    14   H  -   7   C       0.964171       0.985251

    15   H  -   2   C       0.953698       0.944300
    15   H  -   1   O       0.029379       0.017405


 Valency analysis:

   CEN ATOM   TOT.VALENCE
     1   O       2.088451
     2   C       3.869728
     3   H       0.978455
     4   H       0.988031
     5   C       3.917238
     6   H       0.990181
     7   C       3.939561
     8   C       3.938291
     9   H       0.983536
    10   H       0.980631
    11   H       0.981908
    12   H       0.982413
    13   H       0.982005
    14   H       0.983701
    15   H       0.988128

 Total charge composition:

   CEN ATOM         s          p       ELECTRONS ->P.CHARGE
     1   O       3.59088    4.81403      8.40491   -0.40491
     2   C       3.00753    3.16618      6.17370   -0.17370
     3   H       0.85322                 0.85322    0.14678
     4   H       0.89060                 0.89060    0.10940
     5   C       2.94724    2.93523      5.88247    0.11753
     6   H       0.90091                 0.90091    0.09909
     7   C       3.01493    3.39259      6.40752   -0.40752
     8   C       3.01298    3.37907      6.39205   -0.39205
     9   H       0.87169                 0.87169    0.12831
    10   H       0.86083                 0.86083    0.13917
    11   H       0.86549                 0.86549    0.13451
    12   H       0.86738                 0.86738    0.13262
    13   H       0.86585                 0.86585    0.13415
    14   H       0.87233                 0.87233    0.12767
    15   H       0.89104                 0.89104    0.10896

 Total charge composition, AO contributions:

   CEN ATOM SHL      SPHERICAL COMPONENTS
     1   O  1s       1.99702
     1   O  2s       1.59386
     1   O  2p       1.39216    1.52802    1.89385

     2   C  1s       1.99128
     2   C  2s       1.01625
     2   C  2p       0.83598    1.18201    1.14819

     3   H  1s       0.85322

     4   H  1s       0.89060

     5   C  1s       1.99187
     5   C  2s       0.95537
     5   C  2p       1.01203    0.83547    1.08773

     6   H  1s       0.90091

     7   C  1s       1.99062
     7   C  2s       1.02432
     7   C  2p       1.15621    1.12394    1.11244

     8   C  1s       1.99054
     8   C  2s       1.02244
     8   C  2p       1.04911    1.15946    1.17049

     9   H  1s       0.87169

    10   H  1s       0.86083

    11   H  1s       0.86549

    12   H  1s       0.86738

    13   H  1s       0.86585

    14   H  1s       0.87233

    15   H  1s       0.89104

 Summary of localized orbital composition:   [THRPRINT= 0.020]

   ORB  GRP  ORB.ENERGY      CENTERS/CHARGES
     1   1   -19.471115      O  1   2.000
     2   1   -10.497121      C  5   2.000
     3   1   -10.478210      C  2   2.000
     4   1   -10.423826      C  7   2.000
     5   1   -10.419336      C  8   2.000
     6   1    -0.847135      O  1   1.250   C  2   0.742
     7   1    -0.828503      O  1   1.268   C  5   0.716
     8   1    -0.650236      C  5   0.998   C  8   0.989
     9   1    -0.648679      C  7   1.005   C  5   0.986
    10   1    -0.631740      O  1   1.965   (other: 0.035)
    11   1    -0.590048      C  2   1.126   H  4   0.872
    12   1    -0.589239      C  2   1.125   H 15   0.873
    13   1    -0.587446      C  2   1.147   H  3   0.846
    14   1    -0.584626      C  5   1.105   H  6   0.878
    15   1    -0.570764      C  7   1.125   H 12   0.860
    16   1    -0.569332      C  7   1.124   H 14   0.865
    17   1    -0.567758      C  8   1.122   H  9   0.865
    18   1    -0.564656      C  7   1.131   H 13   0.859
    19   1    -0.561224      C  8   1.131   H 11   0.859
    20   1    -0.561130      C  8   1.136   H 10   0.854
    21   1    -0.382883      O  1   1.918   (other: 0.082)

 Localized orbitals saved to record      2200.2  (orbital set 4)


 **********************************************************************************************************************************
 DATASETS  * FILE   NREC   LENGTH (MB)   RECORD NAMES
              1      20      117.72       500      610      700      900      950      970     1000      129      960     1100   
                                          VAR    BASINP    GEOM    SYMINP    ZMAT    AOBASIS   BASIS     P2S    ABASIS      S 
                                         1400     1410     1200     1210     1080     1600     1650     1300     1700     1800   
                                           T        V       H0       H01     AOSYM     SMH    MOLCAS    ERIS     OPER     GRID   

              2       5        3.71       700     1000      520     1800     2200   
                                         GEOM     BASIS   MCVARS    GRID      UKS  

 PROGRAMS   *        TOTAL      IBBA       UKS       INT
 CPU TIMES  *        62.16      0.04     58.30      3.68
 REAL TIME  *        68.30 SEC
 DISK USED  *       409.85 MB      
 **********************************************************************************************************************************
 Molecular orbitals read from record     2200.2  Type=UKS/LOCAL(IBO)  
 Occupation numbers read from record     2200.2  Type=UKS/LOCAL(IBO)  
 Orbital energies read from record       2200.2  Type=UKS/LOCAL(IBO)  
 Redundancy group numbers read from rec  2200.2  Type=UKS/BETA (state 1.1)

 IBBA/SVP energy=      0.000000000000

        UKS-SCF 
   -233.35944411
 **********************************************************************************************************************************
 Molpro calculation terminated
