
 Primary working directories    : /tmp/sb13343
 Secondary working directories  : /tmp/sb13343
 Wavefunction directory         : /panfs/panasas01/chem/sb13343/wfu/
 Main file repository           : /tmp/sb13343/

 SHA1      : b4a5b34a9e711420743f49e6833241d17c61fb3c
 NAME      : 2099.9.b4a5b34
 ARCHNAME  : linux/x86_64_openmp
 FC        : /cm/shared/languages/GCC-6.1/bin/gfortran
 BLASLIB   : -lblas
 id        : simonbennie

 Nodes     nprocs
 node32-013    1

 Using customized tuning parameters: mindgm=1; mindgv=20; mindgc=4; mindgr=1; noblas=0; minvec=7
 default implementation of scratch files=df  

 memory,500,m
 geomtyp=xyz
 nosym
 noorient
 geometry={
 O          0.25818        0.93788        0.04074
 C          1.63656        1.04230        0.32330
 H          1.89907        2.10041        0.23555
 H          2.26234        0.47024       -0.37847
 C         -0.29581       -0.36510        0.22961
 H          0.07373       -0.77023        1.18842
 C          0.09996       -1.32219       -0.89979
 C         -1.80707       -0.17660        0.31883
 H         -2.30941       -1.13436        0.49338
 H         -2.05917        0.50650        1.13581
 H         -2.19015        0.25071       -0.61475
 H         -0.34617       -2.31074       -0.74107
 H         -0.25158       -0.93408       -1.86253
 H          1.18531       -1.45552       -0.96063
 H          1.86878        0.70360        1.34661
 }
 basis={ default,sto-3g }
 {uks,PBE,direct;wf,42,1,0}
 {ibba,bonds=1}

 Variables initialized (895), CPU time= 0.00 sec
 Commands  initialized (725), CPU time= 0.01 sec, 591 directives.
 Default parameters read. Elapsed time= 0.11 sec

 Checking input...
 Passed
1


                                         ***  PROGRAM SYSTEM MOLPRO  ***
                                       Copyright, TTI GmbH Stuttgart, 2015
                                    Version 2099.9 linked May 26 2017 16:03:21


 **********************************************************************************************************************************
 LABEL *                                                                                 
  64 bit serial version                                                                  DATE: 07-Jun-17          TIME: 21:44:00  
 **********************************************************************************************************************************

 SHA1:             b4a5b34a9e711420743f49e6833241d17c61fb3c
 **********************************************************************************************************************************
 SETTING GEOMTYP        =    XYZ

 Variable memory set to  500000000 words,  buffer space 

 ZSYMEL=NOSYM

 SETTING BASIS          =    STO-3G


 Recomputing integrals since basis changed


 Using spherical harmonics

 Library entry O      S STO-3G               selected for orbital group  1
 Library entry O      P STO-3G               selected for orbital group  1
 Library entry C      S STO-3G               selected for orbital group  2
 Library entry C      P STO-3G               selected for orbital group  2
 Library entry H      S STO-3G               selected for orbital group  3


 PROGRAM * SEWARD (Integral evaluation for generally contracted gaussian basis sets)     Author: Roland Lindh, 1990

 Geometry written to block  1 of record 700


 Point group  C1  



 ATOMIC COORDINATES

 NR  ATOM    CHARGE       X              Y              Z

   1  O       8.00    0.487889491    1.772336338    0.076987442
   2  C       6.00    3.092650186    1.969661540    0.610948456
   3  H       1.00    3.588722191    3.969199649    0.445124989
   4  H       1.00    4.275203001    0.888624813   -0.715204646
   5  C       6.00   -0.558999885   -0.689939008    0.433900015
   6  H       1.00    0.139329507   -1.455523753    2.245788321
   7  C       6.00    0.188897023   -2.498576985   -1.700356670
   8  C       6.00   -3.414867388   -0.333725634    0.602501380
   9  H       1.00   -4.364152409   -2.143629727    0.932353075
  10  H       1.00   -3.891267344    0.957146282    2.146369830
  11  H       1.00   -4.138783672    0.473773237   -1.161709135
  12  H       1.00   -0.654166493   -4.366665745   -1.400419339
  13  H       1.00   -0.475417298   -1.765155378   -3.519671599
  14  H       1.00    2.239911273   -2.750534169   -1.815327607
  15  H       1.00    3.531482387    1.329611301    2.544724097

 Bond lengths in Bohr (Angstrom)

  1- 2  2.666238902   1- 5  2.699289504   2- 3  2.066818209   2- 4  2.079844613   2-15  2.083680934
       ( 1.410912866)       ( 1.428402491)       ( 1.093713095)       ( 1.100606371)       ( 1.102636465)

  5- 6  2.087276497   5- 7  2.895785336   5- 8  2.882931422   7-12  2.071345966   7-13  2.071020903
       ( 1.104539155)       ( 1.532383608)       ( 1.525581609)       ( 1.096109081)       ( 1.095937065)

  7-14  2.069628032   8- 9  2.070192508   8-10  2.068051501   8-11  2.070880961
       ( 1.095199989)       ( 1.095498697)       ( 1.094365725)       ( 1.095863011)

 Bond angles

  1- 2- 3  106.85884507   1- 2- 4  112.91125973   1- 2-15  111.64621834   1- 5- 6  108.63888518

  1-5-7  111.84608248   1-5-8  106.21369660   2-1-5  114.82992588   3-2-4  108.37425913

  3- 2-15  108.72850466   4- 2-15  108.20064699   5- 7-12  110.57572754   5- 7-13  110.08520206

  5- 7-14  111.89623115   5- 8- 9  110.82645738   5- 8-10  110.42517473   5- 8-11  110.16013005

  6- 5- 7  108.92239636   6- 5- 8  109.02480146   7- 5- 8  112.09364518   9- 8-10  108.73162751

  9- 8-11  108.44218100  10- 8-11  108.18344616  12- 7-13  108.42317703  12- 7-14  107.55382926

 13- 7-14  108.19151953

 NUCLEAR CHARGE:                   42
 NUMBER OF PRIMITIVE AOS:         105
 NUMBER OF SYMMETRY AOS:          105
 NUMBER OF CONTRACTIONS:           35   (  35A   )
 NUMBER OF CORE ORBITALS:           5   (   5A   )
 NUMBER OF VALENCE ORBITALS:       30   (  30A   )


 NUCLEAR REPULSION ENERGY  195.74983609


 Eigenvalues of metric

         1 0.208E+00 0.227E+00 0.234E+00 0.281E+00 0.352E+00 0.360E+00 0.363E+00 0.368E+00


 Contracted 2-electron integrals neglected if value below      1.0D-11
 AO integral compression algorithm  1   Integral accuracy      1.0D-11

     1.573 MB (compressed) written to integral file ( 89.1%)


 NUMBER OF SORTED TWO-ELECTRON INTEGRALS:     198765.     BUFFER LENGTH:  32768
 NUMBER OF SEGMENTS:   1  SEGMENT LENGTH:     198765      RECORD LENGTH: 524288

 Memory used in sort:       0.76 MW

 SORT1 READ      224802. AND WROTE      193897. INTEGRALS IN      1 RECORDS. CPU TIME:     0.01 SEC, REAL TIME:     0.01 SEC
 SORT2 READ      193897. AND WROTE      198765. INTEGRALS IN      6 RECORDS. CPU TIME:     0.01 SEC, REAL TIME:     0.02 SEC

 FILE SIZES:   FILE 1:    31.8 MBYTE,  FILE 4:     4.2 MBYTE,   TOTAL:     36.0 MBYTE

 OPERATOR DM      FOR CENTER  0  COORDINATES:    0.000000    0.000000    0.000000


 **********************************************************************************************************************************
 DATASETS  * FILE   NREC   LENGTH (MB)   RECORD NAMES
              1      19       31.10       500      610      700      900      950      970     1000      129      960     1100   
                                          VAR    BASINP    GEOM    SYMINP    ZMAT    AOBASIS   BASIS     P2S    ABASIS      S 
                                         1400     1410     1200     1210     1080     1600     1650     1300     1700   
                                           T        V       H0       H01     AOSYM     SMH    MOLCAS    ERIS     OPER   

 PROGRAMS   *        TOTAL       INT
 CPU TIMES  *         0.57      0.43
 REAL TIME  *         0.96 SEC
 DISK USED  *        36.55 MB      
 **********************************************************************************************************************************

 Density functional group PBE=PBEX+PBEC
 Functional: PBEX(Automatically generated (new) PBEX)                          Gradient terms: 1
 Functional: PBEC(Automatically generated (new) PBEC)                          Gradient terms: 1
 Use grid at  1800.2

 Functional: PBEX                      Factor:  1.0000
 Functional: PBEC                      Factor:  1.0000

 Generated new metagrid on record  1800.2 with target accuracy 1.0D-06 and 52852 points in CPU time    1.3
 Computed new grid on record 1800.1 in CPU time    1.4
   32369 words reserved for DFT integration

 PROGRAM * UKS-SCF (Unrestricted Kohn-Sham)     Authors: W. Meyer, H.-J. Werner, P.J. Knowles, 1993

 NUMBER OF ELECTRONS:      21+   21-    SPACE SYMMETRY=1    SPIN SYMMETRY: Singlet 
 CONVERGENCE THRESHOLDS:    1.00E-05 (Density)    1.00E-06 (Energy)
 MAX. NUMBER OF ITERATIONS:       60
 INTERPOLATION TYPE:            DIIS
 INTERPOLATION STEPS:              2 (START)      1 (STEP)
 LEVEL SHIFTS:                 -0.20 (ALPHA)  -0.20 (BETA) 



 Use fine grid record 1800.2 for energy threshold  1.0D-06
 Orbital guess generated from atomic densities. Full valence occupancy:   21

 Molecular orbital dump at record        2200.2

 Initial alpha occupation  21
 Initial beta  occupation  21

 ITERATION    DDIFF          GRAD             ENERGY        2-EL.EN.            DIPOLE MOMENTS         DIIS
    1      0.000D+00      0.000D+00      -230.11365325    632.497494    0.61183   -0.96135    0.31242    0
    2      0.585D-01      0.186D-01      -230.40698146    614.396020    0.00270   -0.18031    0.01623    1
    3      0.994D-02      0.410D-02      -230.41985933    617.118947    0.14524   -0.33296    0.10966    2
    4      0.127D-02      0.415D-03      -230.42005139    617.089975    0.14504   -0.33345    0.11249    3
    5      0.427D-03      0.153D-03      -230.42007868    617.077498    0.14867   -0.33562    0.11432    4
    6      0.190D-03      0.363D-04      -230.42008123    617.075824    0.14854   -0.33310    0.11352    5
    7      0.442D-04      0.169D-04      -230.42008148    617.076971    0.14905   -0.33416    0.11391    6
    8      0.111D-04      0.289D-05      -230.42008149    617.076810    0.14899   -0.33396    0.11383    6
    9      0.193D-05      0.375D-06      -230.42008149    617.076870    0.14900   -0.33397    0.11384    6
   10      0.569D-06      0.196D-06      -230.42008149    617.076847    0.14899   -0.33396    0.11383    6

 Final alpha occupancy:  21
 Final beta  occupancy:  21

 !UKS STATE 1.1 Energy               -230.420081491204
 Nuclear energy                       195.74983609
 One-electron energy                 -700.92562798
 Two-electron energy                  308.53842363
 Density functional                   -33.78271323     PBEX=-32.37625334 PBEC= -1.40645989
 Virial quotient                       -1.01521824
 !UKS STATE 1.1 Dipole moment           0.14899024    -0.33396489     0.11383394
 Dipole moment /Debye                   0.37867062    -0.84879849     0.28931806

 Orbital energies for positive spin:

         1.1          2.1          3.1          4.1          5.1          6.1          7.1          8.1          9.1         10.1
    -18.493479    -9.763159    -9.747822    -9.707299    -9.703627    -0.874072    -0.664280    -0.585407    -0.563253    -0.472819

        11.1         12.1         13.1         14.1         15.1         16.1         17.1         18.1         19.1         20.1
     -0.391286    -0.368140    -0.350756    -0.332823    -0.309536    -0.301994    -0.286138    -0.262875    -0.253617    -0.143271

        21.1         22.1         23.1
     -0.068605     0.244023     0.321571

 Orbital energies for negative spin:

         1.1          2.1          3.1          4.1          5.1          6.1          7.1          8.1          9.1         10.1
    -18.493479    -9.763159    -9.747822    -9.707299    -9.703627    -0.874072    -0.664280    -0.585407    -0.563253    -0.472819

        11.1         12.1         13.1         14.1         15.1         16.1         17.1         18.1         19.1         20.1
     -0.391286    -0.368140    -0.350756    -0.332823    -0.309536    -0.301994    -0.286138    -0.262875    -0.253617    -0.143271

        21.1         22.1         23.1
     -0.068605     0.244023     0.321571

 HOMO     21.1    -0.068605 =      -1.8668eV
 LUMO     22.1     0.244023 =       6.6402eV
 LUMO-HOMO         0.312628 =       8.5070eV

 EXPECTATION VALUE OF S**2:             0.00000000

 Natural orbitals saved to record    2200.2 (Orbital set 3)

 Orbital spaces for UNO-CAS (Min. occupation: 0.020  Max. occupation: 1.980):

 Closed:       21
 Active:        0


 **********************************************************************************************************************************
 DATASETS  * FILE   NREC   LENGTH (MB)   RECORD NAMES
              1      20       32.79       500      610      700      900      950      970     1000      129      960     1100   
                                          VAR    BASINP    GEOM    SYMINP    ZMAT    AOBASIS   BASIS     P2S    ABASIS      S 
                                         1400     1410     1200     1210     1080     1600     1650     1300     1700     1800   
                                           T        V       H0       H01     AOSYM     SMH    MOLCAS    ERIS     OPER     GRID   

              2       5        3.05       700     1000      520     1800     2200   
                                         GEOM     BASIS   MCVARS    GRID      UKS  

 PROGRAMS   *        TOTAL       UKS       INT
 CPU TIMES  *         5.94      5.38      0.43
 REAL TIME  *         6.74 SEC
 DISK USED  *        36.55 MB      
 **********************************************************************************************************************************


 PROGRAM * Intrinsic Basis Bonding Analysis (IBBA)          Author: G. Knizia

 Molecular orbitals read from record     2200.2  Type=UKS/ALPHA (state 1.1)
 Fock matrix read from record            2200.2  Type=UKS/TOTAL (state 1.1)
 Orbital energies read from record       2200.2  Type=UKS/ALPHA (state 1.1)
 Density matrix read from record         2200.2  Type=UKS/CHARGE (state 1.1)

 Number of core orbitals:           5 (   5 )
 Number of closed-shell orbitals:  16 (  16 )

 Basis set MINAO-AUTO-PP generated.      Number of basis functions:   35 

 Polarized AO type:                A = (O Ot + (1-O)(1-Ot)) P12
 Orthogonalization method:         Symmetric (Loewdin)
 Localization functional:          L = sum[A,i] <i|n_A|i>^4 -> max

 Localization group 1:  21 orbitals, occupancy  2.000
 Iterative localization: IB/PM,    7 iter; Final gradient 0.38E-08

 Bond order analysis:       [THRPRINT= 0.020]

   CEN ATOM   CEN ATOM     WIBERG.BO      RENORM.BO
     1   O  -   2   C       1.026469       1.019395
     1   O  -   5   C       0.993423       0.977370
     1   O  -   4   H       0.034454       0.020539
     1   O  -  15   H       0.032484       0.019476
     1   O  -   7   C       0.032165       0.016977
     1   O  -   6   H       0.024773       0.015019

     2   C  -   1   O       1.026469       1.019395
     2   C  -   3   H       0.953248       0.972505
     2   C  -  15   H       0.949519       0.940208
     2   C  -   4   H       0.948657       0.937827

     3   H  -   2   C       0.953248       0.972505

     4   H  -   2   C       0.948657       0.937827
     4   H  -   1   O       0.034454       0.020539

     5   C  -   8   C       1.003533       0.995007
     5   C  -   7   C       0.994622       0.964057
     5   C  -   1   O       0.993423       0.977370
     5   C  -   6   H       0.930525       0.924884

     6   H  -   5   C       0.930525       0.924884
     6   H  -   1   O       0.024773       0.015019

     7   C  -   5   C       0.994622       0.964057
     7   C  -  14   H       0.963367       0.986198
     7   C  -  13   H       0.962629       0.985419
     7   C  -  12   H       0.962488       0.989430
     7   C  -   1   O       0.032165       0.016977

     8   C  -   5   C       1.003533       0.995007
     8   C  -   9   H       0.963458       0.990287
     8   C  -  11   H       0.961465       0.985416
     8   C  -  10   H       0.961356       0.987362

     9   H  -   8   C       0.963458       0.990287

    10   H  -   8   C       0.961356       0.987362

    11   H  -   8   C       0.961465       0.985416

    12   H  -   7   C       0.962488       0.989430

    13   H  -   7   C       0.962629       0.985419

    14   H  -   7   C       0.963367       0.986198

    15   H  -   2   C       0.949519       0.940208
    15   H  -   1   O       0.032484       0.019476


 Valency analysis:

   CEN ATOM   TOT.VALENCE
     1   O       2.190691
     2   C       3.899515
     3   H       0.979572
     4   H       0.987337
     5   C       3.949875
     6   H       0.987344
     7   C       3.932927
     8   C       3.930137
     9   H       0.981153
    10   H       0.979748
    11   H       0.980781
    12   H       0.981075
    13   H       0.981527
    14   H       0.982544
    15   H       0.987021

 Total charge composition:

   CEN ATOM         s          p       ELECTRONS ->P.CHARGE
     1   O       3.65862    4.54776      8.20639   -0.20639
     2   C       3.01000    3.26346      6.27346   -0.27346
     3   H       0.85707                 0.85707    0.14293
     4   H       0.88747                 0.88747    0.11253
     5   C       2.96706    3.04097      6.00803   -0.00803
     6   H       0.88750                 0.88750    0.11250
     7   C       3.00187    3.41194      6.41381   -0.41381
     8   C       3.00016    3.40386      6.40402   -0.40402
     9   H       0.86272                 0.86272    0.13728
    10   H       0.85769                 0.85769    0.14231
    11   H       0.86137                 0.86137    0.13863
    12   H       0.86243                 0.86243    0.13757
    13   H       0.86408                 0.86408    0.13592
    14   H       0.86788                 0.86788    0.13212
    15   H       0.88607                 0.88607    0.11393

 Total charge composition, AO contributions:

   CEN ATOM SHL      SPHERICAL COMPONENTS
     1   O  1s       1.99741
     1   O  2s       1.66121
     1   O  2p       1.28220    1.39742    1.86814

     2   C  1s       1.99266
     2   C  2s       1.01735
     2   C  2p       0.90719    1.18843    1.16784

     3   H  1s       0.85707

     4   H  1s       0.88747

     5   C  1s       1.99315
     5   C  2s       0.97392
     5   C  2p       1.03123    0.90142    1.10832

     6   H  1s       0.88750

     7   C  1s       1.99213
     7   C  2s       1.00974
     7   C  2p       1.16320    1.13094    1.11781

     8   C  1s       1.99205
     8   C  2s       1.00811
     8   C  2p       1.05496    1.17100    1.17790

     9   H  1s       0.86272

    10   H  1s       0.85769

    11   H  1s       0.86137

    12   H  1s       0.86243

    13   H  1s       0.86408

    14   H  1s       0.86788

    15   H  1s       0.88607

 Summary of localized orbital composition:   [THRPRINT= 0.020]

   ORB  GRP  ORB.ENERGY      CENTERS/CHARGES
     1   1   -18.338488      O  1   2.000
     2   1    -9.666840      C  5   2.000
     3   1    -9.642966      C  2   2.000
     4   1    -9.597367      C  8   2.000
     5   1    -9.594493      C  7   2.000
     6   1    -0.596766      O  1   1.161   C  2   0.829
     7   1    -0.574742      O  1   1.167   C  5   0.813   (other: 0.020)
     8   1    -0.475949      C  5   1.001   C  8   0.983
     9   1    -0.470497      C  5   0.996   C  7   0.995
    10   1    -0.429465      C  2   1.144   H  3   0.847
    11   1    -0.427309      C  2   1.132   H  4   0.867
    12   1    -0.427003      C  2   1.132   H 15   0.866
    13   1    -0.424169      C  5   1.122   H  6   0.863
    14   1    -0.420223      O  1   1.969   (other: 0.031)
    15   1    -0.413275      C  8   1.132   H  9   0.856
    16   1    -0.411726      C  7   1.129   H 14   0.861
    17   1    -0.411690      C  7   1.133   H 12   0.855
    18   1    -0.407724      C  8   1.139   H 10   0.851
    19   1    -0.406104      C  7   1.133   H 13   0.858
    20   1    -0.405943      C  8   1.135   H 11   0.855
    21   1    -0.101521      O  1   1.901   C  5   0.022   (other: 0.078)

 Localized orbitals saved to record      2200.2  (orbital set 4)


 **********************************************************************************************************************************
 DATASETS  * FILE   NREC   LENGTH (MB)   RECORD NAMES
              1      20       32.79       500      610      700      900      950      970     1000      129      960     1100   
                                          VAR    BASINP    GEOM    SYMINP    ZMAT    AOBASIS   BASIS     P2S    ABASIS      S 
                                         1400     1410     1200     1210     1080     1600     1650     1300     1700     1800   
                                           T        V       H0       H01     AOSYM     SMH    MOLCAS    ERIS     OPER     GRID   

              2       5        3.06       700     1000      520     1800     2200   
                                         GEOM     BASIS   MCVARS    GRID      UKS  

 PROGRAMS   *        TOTAL      IBBA       UKS       INT
 CPU TIMES  *         5.98      0.04      5.38      0.43
 REAL TIME  *         6.87 SEC
 DISK USED  *        36.55 MB      
 **********************************************************************************************************************************
 Molecular orbitals read from record     2200.2  Type=UKS/LOCAL(IBO)  
 Occupation numbers read from record     2200.2  Type=UKS/LOCAL(IBO)  
 Orbital energies read from record       2200.2  Type=UKS/LOCAL(IBO)  
 Redundancy group numbers read from rec  2200.2  Type=UKS/BETA (state 1.1)

 IBBA/STO-3G energy=      0.000000000000

        UKS-SCF 
   -230.42008149
 **********************************************************************************************************************************
 Molpro calculation terminated
