
 Primary working directories    : /tmp/sb13343
 Secondary working directories  : /tmp/sb13343
 Wavefunction directory         : /panfs/panasas01/chem/sb13343/wfu/
 Main file repository           : /tmp/sb13343/

 SHA1      : b4a5b34a9e711420743f49e6833241d17c61fb3c
 NAME      : 2099.9.b4a5b34
 ARCHNAME  : linux/x86_64_openmp
 FC        : /cm/shared/languages/GCC-6.1/bin/gfortran
 BLASLIB   : -lblas
 id        : simonbennie

 Nodes     nprocs
 node32-013    1

 Using customized tuning parameters: mindgm=1; mindgv=20; mindgc=4; mindgr=1; noblas=0; minvec=7
 default implementation of scratch files=df  

 memory,500,m
 geomtyp=xyz
 nosym
 noorient
 geometry={
 O          0.25818        0.93788        0.04074
 C          1.63656        1.04230        0.32330
 H          1.89907        2.10041        0.23555
 H          2.26234        0.47024       -0.37847
 C         -0.29581       -0.36510        0.22961
 H          0.07373       -0.77023        1.18842
 C          0.09996       -1.32219       -0.89979
 C         -1.80707       -0.17660        0.31883
 H         -2.30941       -1.13436        0.49338
 H         -2.05917        0.50650        1.13581
 H         -2.19015        0.25071       -0.61475
 H         -0.34617       -2.31074       -0.74107
 H         -0.25158       -0.93408       -1.86253
 H          1.18531       -1.45552       -0.96063
 H          1.86878        0.70360        1.34661
 }
 basis={ default,sto-3g }
 {uks,PW91,direct;wf,42,1,0}
 {ibba,bonds=1}

 Variables initialized (895), CPU time= 0.00 sec
 Commands  initialized (725), CPU time= 0.01 sec, 591 directives.
 Default parameters read. Elapsed time= 0.09 sec

 Checking input...
 Passed
1


                                         ***  PROGRAM SYSTEM MOLPRO  ***
                                       Copyright, TTI GmbH Stuttgart, 2015
                                    Version 2099.9 linked May 26 2017 16:03:21


 **********************************************************************************************************************************
 LABEL *                                                                                 
  64 bit serial version                                                                  DATE: 07-Jun-17          TIME: 21:46:08  
 **********************************************************************************************************************************

 SHA1:             b4a5b34a9e711420743f49e6833241d17c61fb3c
 **********************************************************************************************************************************
 SETTING GEOMTYP        =    XYZ

 Variable memory set to  500000000 words,  buffer space 

 ZSYMEL=NOSYM

 SETTING BASIS          =    STO-3G


 Recomputing integrals since basis changed


 Using spherical harmonics

 Library entry O      S STO-3G               selected for orbital group  1
 Library entry O      P STO-3G               selected for orbital group  1
 Library entry C      S STO-3G               selected for orbital group  2
 Library entry C      P STO-3G               selected for orbital group  2
 Library entry H      S STO-3G               selected for orbital group  3


 PROGRAM * SEWARD (Integral evaluation for generally contracted gaussian basis sets)     Author: Roland Lindh, 1990

 Geometry written to block  1 of record 700


 Point group  C1  



 ATOMIC COORDINATES

 NR  ATOM    CHARGE       X              Y              Z

   1  O       8.00    0.487889491    1.772336338    0.076987442
   2  C       6.00    3.092650186    1.969661540    0.610948456
   3  H       1.00    3.588722191    3.969199649    0.445124989
   4  H       1.00    4.275203001    0.888624813   -0.715204646
   5  C       6.00   -0.558999885   -0.689939008    0.433900015
   6  H       1.00    0.139329507   -1.455523753    2.245788321
   7  C       6.00    0.188897023   -2.498576985   -1.700356670
   8  C       6.00   -3.414867388   -0.333725634    0.602501380
   9  H       1.00   -4.364152409   -2.143629727    0.932353075
  10  H       1.00   -3.891267344    0.957146282    2.146369830
  11  H       1.00   -4.138783672    0.473773237   -1.161709135
  12  H       1.00   -0.654166493   -4.366665745   -1.400419339
  13  H       1.00   -0.475417298   -1.765155378   -3.519671599
  14  H       1.00    2.239911273   -2.750534169   -1.815327607
  15  H       1.00    3.531482387    1.329611301    2.544724097

 Bond lengths in Bohr (Angstrom)

  1- 2  2.666238902   1- 5  2.699289504   2- 3  2.066818209   2- 4  2.079844613   2-15  2.083680934
       ( 1.410912866)       ( 1.428402491)       ( 1.093713095)       ( 1.100606371)       ( 1.102636465)

  5- 6  2.087276497   5- 7  2.895785336   5- 8  2.882931422   7-12  2.071345966   7-13  2.071020903
       ( 1.104539155)       ( 1.532383608)       ( 1.525581609)       ( 1.096109081)       ( 1.095937065)

  7-14  2.069628032   8- 9  2.070192508   8-10  2.068051501   8-11  2.070880961
       ( 1.095199989)       ( 1.095498697)       ( 1.094365725)       ( 1.095863011)

 Bond angles

  1- 2- 3  106.85884507   1- 2- 4  112.91125973   1- 2-15  111.64621834   1- 5- 6  108.63888518

  1-5-7  111.84608248   1-5-8  106.21369660   2-1-5  114.82992588   3-2-4  108.37425913

  3- 2-15  108.72850466   4- 2-15  108.20064699   5- 7-12  110.57572754   5- 7-13  110.08520206

  5- 7-14  111.89623115   5- 8- 9  110.82645738   5- 8-10  110.42517473   5- 8-11  110.16013005

  6- 5- 7  108.92239636   6- 5- 8  109.02480146   7- 5- 8  112.09364518   9- 8-10  108.73162751

  9- 8-11  108.44218100  10- 8-11  108.18344616  12- 7-13  108.42317703  12- 7-14  107.55382926

 13- 7-14  108.19151953

 NUCLEAR CHARGE:                   42
 NUMBER OF PRIMITIVE AOS:         105
 NUMBER OF SYMMETRY AOS:          105
 NUMBER OF CONTRACTIONS:           35   (  35A   )
 NUMBER OF CORE ORBITALS:           5   (   5A   )
 NUMBER OF VALENCE ORBITALS:       30   (  30A   )


 NUCLEAR REPULSION ENERGY  195.74983609


 Eigenvalues of metric

         1 0.208E+00 0.227E+00 0.234E+00 0.281E+00 0.352E+00 0.360E+00 0.363E+00 0.368E+00


 Contracted 2-electron integrals neglected if value below      1.0D-11
 AO integral compression algorithm  1   Integral accuracy      1.0D-11

     1.573 MB (compressed) written to integral file ( 89.1%)


 NUMBER OF SORTED TWO-ELECTRON INTEGRALS:     198765.     BUFFER LENGTH:  32768
 NUMBER OF SEGMENTS:   1  SEGMENT LENGTH:     198765      RECORD LENGTH: 524288

 Memory used in sort:       0.76 MW

 SORT1 READ      224802. AND WROTE      193897. INTEGRALS IN      1 RECORDS. CPU TIME:     0.01 SEC, REAL TIME:     0.01 SEC
 SORT2 READ      193897. AND WROTE      198765. INTEGRALS IN      6 RECORDS. CPU TIME:     0.01 SEC, REAL TIME:     0.02 SEC

 FILE SIZES:   FILE 1:    31.8 MBYTE,  FILE 4:     4.2 MBYTE,   TOTAL:     36.0 MBYTE

 OPERATOR DM      FOR CENTER  0  COORDINATES:    0.000000    0.000000    0.000000


 **********************************************************************************************************************************
 DATASETS  * FILE   NREC   LENGTH (MB)   RECORD NAMES
              1      19       31.10       500      610      700      900      950      970     1000      129      960     1100   
                                          VAR    BASINP    GEOM    SYMINP    ZMAT    AOBASIS   BASIS     P2S    ABASIS      S 
                                         1400     1410     1200     1210     1080     1600     1650     1300     1700   
                                           T        V       H0       H01     AOSYM     SMH    MOLCAS    ERIS     OPER   

 PROGRAMS   *        TOTAL       INT
 CPU TIMES  *         0.57      0.43
 REAL TIME  *         0.93 SEC
 DISK USED  *        36.55 MB      
 **********************************************************************************************************************************

 Density functional group PW91=PW91X+PW91C
 Functional: PW91X(Automatically generated (new) PW91X)                        Gradient terms: 1
 Functional: PW91C(Automatically generated (new) PW91C)                        Gradient terms: 1
 Use grid at  1800.2

 Functional: PW91X                     Factor:  1.0000
 Functional: PW91C                     Factor:  1.0000

 Generated new metagrid on record  1800.2 with target accuracy 1.0D-06 and 52852 points in CPU time    1.3
 Computed new grid on record 1800.1 in CPU time    1.4
   32369 words reserved for DFT integration

 PROGRAM * UKS-SCF (Unrestricted Kohn-Sham)     Authors: W. Meyer, H.-J. Werner, P.J. Knowles, 1993

 NUMBER OF ELECTRONS:      21+   21-    SPACE SYMMETRY=1    SPIN SYMMETRY: Singlet 
 CONVERGENCE THRESHOLDS:    1.00E-05 (Density)    1.00E-06 (Energy)
 MAX. NUMBER OF ITERATIONS:       60
 INTERPOLATION TYPE:            DIIS
 INTERPOLATION STEPS:              2 (START)      1 (STEP)
 LEVEL SHIFTS:                 -0.20 (ALPHA)  -0.20 (BETA) 



 Use fine grid record 1800.2 for energy threshold  1.0D-06
 Orbital guess generated from atomic densities. Full valence occupancy:   21

 Molecular orbital dump at record        2200.2

 Initial alpha occupation  21
 Initial beta  occupation  21

 ITERATION    DDIFF          GRAD             ENERGY        2-EL.EN.            DIPOLE MOMENTS         DIIS
    1      0.000D+00      0.000D+00      -230.30748245    632.575871    0.61549   -0.96841    0.31426    0
    2      0.586D-01      0.186D-01      -230.60268304    614.437564    0.00386   -0.18212    0.01650    1
    3      0.986D-02      0.407D-02      -230.61532781    617.131200    0.14660   -0.33501    0.11011    2
    4      0.128D-02      0.417D-03      -230.61552162    617.101830    0.14644   -0.33516    0.11297    3
    5      0.427D-03      0.154D-03      -230.61554908    617.089276    0.15024   -0.33753    0.11490    4
    6      0.190D-03      0.364D-04      -230.61555165    617.087621    0.15013   -0.33503    0.11411    5
    7      0.444D-04      0.168D-04      -230.61555190    617.088764    0.15064   -0.33608    0.11450    6
    8      0.112D-04      0.289D-05      -230.61555191    617.088604    0.15058   -0.33588    0.11442    6
    9      0.191D-05      0.369D-06      -230.61555191    617.088664    0.15058   -0.33588    0.11442    6
   10      0.550D-06      0.189D-06      -230.61555191    617.088641    0.15058   -0.33588    0.11442    6

 Final alpha occupancy:  21
 Final beta  occupancy:  21

 !UKS STATE 1.1 Energy               -230.615551908770
 Nuclear energy                       195.74983609
 One-electron energy                 -700.93056985
 Two-electron energy                  308.54432066
 Density functional                   -33.97913881     PW91X=-32.48776690 PW91C= -1.49137191
 Virial quotient                       -1.01603979
 !UKS STATE 1.1 Dipole moment           0.15058028    -0.33587941     0.11442150
 Dipole moment /Debye                   0.38271182    -0.85366439     0.29081139

 Orbital energies for positive spin:

         1.1          2.1          3.1          4.1          5.1          6.1          7.1          8.1          9.1         10.1
    -18.512757    -9.779319    -9.764071    -9.723314    -9.719686    -0.876023    -0.666420    -0.587756    -0.565646    -0.475343

        11.1         12.1         13.1         14.1         15.1         16.1         17.1         18.1         19.1         20.1
     -0.393654    -0.370708    -0.353420    -0.335581    -0.312310    -0.304789    -0.288868    -0.265702    -0.256480    -0.146105

        21.1         22.1         23.1
     -0.072258     0.240609     0.317857

 Orbital energies for negative spin:

         1.1          2.1          3.1          4.1          5.1          6.1          7.1          8.1          9.1         10.1
    -18.512757    -9.779319    -9.764071    -9.723314    -9.719686    -0.876023    -0.666420    -0.587756    -0.565646    -0.475343

        11.1         12.1         13.1         14.1         15.1         16.1         17.1         18.1         19.1         20.1
     -0.393654    -0.370708    -0.353420    -0.335581    -0.312310    -0.304789    -0.288868    -0.265702    -0.256480    -0.146105

        21.1         22.1         23.1
     -0.072258     0.240609     0.317857

 HOMO     21.1    -0.072258 =      -1.9662eV
 LUMO     22.1     0.240609 =       6.5473eV
 LUMO-HOMO         0.312867 =       8.5135eV

 EXPECTATION VALUE OF S**2:             0.00000000

 Natural orbitals saved to record    2200.2 (Orbital set 3)

 Orbital spaces for UNO-CAS (Min. occupation: 0.020  Max. occupation: 1.980):

 Closed:       21
 Active:        0


 **********************************************************************************************************************************
 DATASETS  * FILE   NREC   LENGTH (MB)   RECORD NAMES
              1      20       32.79       500      610      700      900      950      970     1000      129      960     1100   
                                          VAR    BASINP    GEOM    SYMINP    ZMAT    AOBASIS   BASIS     P2S    ABASIS      S 
                                         1400     1410     1200     1210     1080     1600     1650     1300     1700     1800   
                                           T        V       H0       H01     AOSYM     SMH    MOLCAS    ERIS     OPER     GRID   

              2       5        3.05       700     1000      520     1800     2200   
                                         GEOM     BASIS   MCVARS    GRID      UKS  

 PROGRAMS   *        TOTAL       UKS       INT
 CPU TIMES  *         6.09      5.53      0.43
 REAL TIME  *         6.79 SEC
 DISK USED  *        36.55 MB      
 **********************************************************************************************************************************


 PROGRAM * Intrinsic Basis Bonding Analysis (IBBA)          Author: G. Knizia

 Molecular orbitals read from record     2200.2  Type=UKS/ALPHA (state 1.1)
 Fock matrix read from record            2200.2  Type=UKS/TOTAL (state 1.1)
 Orbital energies read from record       2200.2  Type=UKS/ALPHA (state 1.1)
 Density matrix read from record         2200.2  Type=UKS/CHARGE (state 1.1)

 Number of core orbitals:           5 (   5 )
 Number of closed-shell orbitals:  16 (  16 )

 Basis set MINAO-AUTO-PP generated.      Number of basis functions:   35 

 Polarized AO type:                A = (O Ot + (1-O)(1-Ot)) P12
 Orthogonalization method:         Symmetric (Loewdin)
 Localization functional:          L = sum[A,i] <i|n_A|i>^4 -> max

 Localization group 1:  21 orbitals, occupancy  2.000
 Iterative localization: IB/PM,    7 iter; Final gradient 0.39E-08

 Bond order analysis:       [THRPRINT= 0.020]

   CEN ATOM   CEN ATOM     WIBERG.BO      RENORM.BO
     1   O  -   2   C       1.025881       1.019295
     1   O  -   5   C       0.992979       0.977444
     1   O  -   4   H       0.034331       0.020463
     1   O  -  15   H       0.032381       0.019412
     1   O  -   7   C       0.032062       0.016919
     1   O  -   6   H       0.024714       0.014982

     2   C  -   1   O       1.025881       1.019295
     2   C  -   3   H       0.953283       0.972529
     2   C  -  15   H       0.949640       0.940416
     2   C  -   4   H       0.948786       0.938064

     3   H  -   2   C       0.953283       0.972529

     4   H  -   2   C       0.948786       0.938064
     4   H  -   1   O       0.034331       0.020463

     5   C  -   8   C       1.003459       0.994978
     5   C  -   7   C       0.994629       0.964198
     5   C  -   1   O       0.992979       0.977444
     5   C  -   6   H       0.930728       0.925119

     6   H  -   5   C       0.930728       0.925119
     6   H  -   1   O       0.024714       0.014982

     7   C  -   5   C       0.994629       0.964198
     7   C  -  14   H       0.963443       0.986244
     7   C  -  13   H       0.962700       0.985473
     7   C  -  12   H       0.962573       0.989467
     7   C  -   1   O       0.032062       0.016919

     8   C  -   5   C       1.003459       0.994978
     8   C  -   9   H       0.963547       0.990309
     8   C  -  11   H       0.961539       0.985473
     8   C  -  10   H       0.961424       0.987407

     9   H  -   8   C       0.963547       0.990309

    10   H  -   8   C       0.961424       0.987407

    11   H  -   8   C       0.961539       0.985473

    12   H  -   7   C       0.962573       0.989467

    13   H  -   7   C       0.962700       0.985473

    14   H  -   7   C       0.963443       0.986244

    15   H  -   2   C       0.949640       0.940416
    15   H  -   1   O       0.032381       0.019412


 Valency analysis:

   CEN ATOM   TOT.VALENCE
     1   O       2.189165
     2   C       3.899204
     3   H       0.979576
     4   H       0.987330
     5   C       3.949529
     6   H       0.987359
     7   C       3.933003
     8   C       3.930208
     9   H       0.981196
    10   H       0.979772
    11   H       0.980802
    12   H       0.981112
    13   H       0.981547
    14   H       0.982571
    15   H       0.987020

 Total charge composition:

   CEN ATOM         s          p       ELECTRONS ->P.CHARGE
     1   O       3.65874    4.55022      8.20896   -0.20896
     2   C       3.00971    3.26248      6.27219   -0.27219
     3   H       0.85709                 0.85709    0.14291
     4   H       0.88744                 0.88744    0.11256
     5   C       2.96689    3.04001      6.00690   -0.00690
     6   H       0.88757                 0.88757    0.11243
     7   C       3.00176    3.41163      6.41340   -0.41340
     8   C       3.00006    3.40354      6.40360   -0.40360
     9   H       0.86287                 0.86287    0.13713
    10   H       0.85777                 0.85777    0.14223
    11   H       0.86144                 0.86144    0.13856
    12   H       0.86257                 0.86257    0.13743
    13   H       0.86416                 0.86416    0.13584
    14   H       0.86798                 0.86798    0.13202
    15   H       0.88607                 0.88607    0.11393

 Total charge composition, AO contributions:

   CEN ATOM SHL      SPHERICAL COMPONENTS
     1   O  1s       1.99740
     1   O  2s       1.66133
     1   O  2p       1.28307    1.39851    1.86864

     2   C  1s       1.99264
     2   C  2s       1.01707
     2   C  2p       0.90634    1.18847    1.16768

     3   H  1s       0.85709

     4   H  1s       0.88744

     5   C  1s       1.99313
     5   C  2s       0.97376
     5   C  2p       1.03124    0.90059    1.10818

     6   H  1s       0.88757

     7   C  1s       1.99211
     7   C  2s       1.00965
     7   C  2p       1.16313    1.13079    1.11771

     8   C  1s       1.99203
     8   C  2s       1.00803
     8   C  2p       1.05476    1.17090    1.17788

     9   H  1s       0.86287

    10   H  1s       0.85777

    11   H  1s       0.86144

    12   H  1s       0.86257

    13   H  1s       0.86416

    14   H  1s       0.86798

    15   H  1s       0.88607

 Summary of localized orbital composition:   [THRPRINT= 0.020]

   ORB  GRP  ORB.ENERGY      CENTERS/CHARGES
     1   1   -18.357498      O  1   2.000
     2   1    -9.682892      C  5   2.000
     3   1    -9.659105      C  2   2.000
     4   1    -9.613257      C  8   2.000
     5   1    -9.610426      C  7   2.000
     6   1    -0.598959      O  1   1.162   C  2   0.828
     7   1    -0.576997      O  1   1.168   C  5   0.812   (other: 0.020)
     8   1    -0.478364      C  5   1.001   C  8   0.983
     9   1    -0.472963      C  5   0.996   C  7   0.995
    10   1    -0.432211      C  2   1.144   H  3   0.847
    11   1    -0.430137      C  2   1.132   H  4   0.867
    12   1    -0.429818      C  2   1.132   H 15   0.866
    13   1    -0.426994      C  5   1.122   H  6   0.863
    14   1    -0.422711      O  1   1.969   (other: 0.031)
    15   1    -0.415983      C  8   1.132   H  9   0.856
    16   1    -0.414461      C  7   1.129   H 14   0.861
    17   1    -0.414434      C  7   1.132   H 12   0.855
    18   1    -0.410411      C  8   1.139   H 10   0.851
    19   1    -0.408831      C  7   1.133   H 13   0.858
    20   1    -0.408640      C  8   1.135   H 11   0.855
    21   1    -0.105121      O  1   1.901   C  5   0.022   (other: 0.077)

 Localized orbitals saved to record      2200.2  (orbital set 4)


 **********************************************************************************************************************************
 DATASETS  * FILE   NREC   LENGTH (MB)   RECORD NAMES
              1      20       32.79       500      610      700      900      950      970     1000      129      960     1100   
                                          VAR    BASINP    GEOM    SYMINP    ZMAT    AOBASIS   BASIS     P2S    ABASIS      S 
                                         1400     1410     1200     1210     1080     1600     1650     1300     1700     1800   
                                           T        V       H0       H01     AOSYM     SMH    MOLCAS    ERIS     OPER     GRID   

              2       5        3.06       700     1000      520     1800     2200   
                                         GEOM     BASIS   MCVARS    GRID      UKS  

 PROGRAMS   *        TOTAL      IBBA       UKS       INT
 CPU TIMES  *         6.13      0.04      5.53      0.43
 REAL TIME  *         6.92 SEC
 DISK USED  *        36.55 MB      
 **********************************************************************************************************************************
 Molecular orbitals read from record     2200.2  Type=UKS/LOCAL(IBO)  
 Occupation numbers read from record     2200.2  Type=UKS/LOCAL(IBO)  
 Orbital energies read from record       2200.2  Type=UKS/LOCAL(IBO)  
 Redundancy group numbers read from rec  2200.2  Type=UKS/BETA (state 1.1)

 IBBA/STO-3G energy=      0.000000000000

        UKS-SCF 
   -230.61555191
 **********************************************************************************************************************************
 Molpro calculation terminated
