
 Primary working directories    : /tmp/sb13343
 Secondary working directories  : /tmp/sb13343
 Wavefunction directory         : /panfs/panasas01/chem/sb13343/wfu/
 Main file repository           : /tmp/sb13343/

 SHA1      : b4a5b34a9e711420743f49e6833241d17c61fb3c
 NAME      : 2099.9.b4a5b34
 ARCHNAME  : linux/x86_64_openmp
 FC        : /cm/shared/languages/GCC-6.1/bin/gfortran
 BLASLIB   : -lblas
 id        : simonbennie

 Nodes     nprocs
 node32-013    1

 Using customized tuning parameters: mindgm=1; mindgv=20; mindgc=4; mindgr=1; noblas=0; minvec=7
 default implementation of scratch files=df  

 memory,500,m
 geomtyp=xyz
 nosym
 noorient
 geometry={
 O          0.25818        0.93788        0.04074
 C          1.63656        1.04230        0.32330
 H          1.89907        2.10041        0.23555
 H          2.26234        0.47024       -0.37847
 C         -0.29581       -0.36510        0.22961
 H          0.07373       -0.77023        1.18842
 C          0.09996       -1.32219       -0.89979
 C         -1.80707       -0.17660        0.31883
 H         -2.30941       -1.13436        0.49338
 H         -2.05917        0.50650        1.13581
 H         -2.19015        0.25071       -0.61475
 H         -0.34617       -2.31074       -0.74107
 H         -0.25158       -0.93408       -1.86253
 H          1.18531       -1.45552       -0.96063
 H          1.86878        0.70360        1.34661
 }
 basis={ default,sto-3g }
 {ks,MM06-L,direct;wf,42,1,0}
 {ibba,bonds=1}

 Variables initialized (895), CPU time= 0.01 sec
 Commands  initialized (725), CPU time= 0.01 sec, 591 directives.
 Default parameters read. Elapsed time= 0.09 sec

 Checking input...
 Passed
1


                                         ***  PROGRAM SYSTEM MOLPRO  ***
                                       Copyright, TTI GmbH Stuttgart, 2015
                                    Version 2099.9 linked May 26 2017 16:03:21


 **********************************************************************************************************************************
 LABEL *                                                                                 
  64 bit serial version                                                                  DATE: 07-Jun-17          TIME: 21:43:29  
 **********************************************************************************************************************************

 SHA1:             b4a5b34a9e711420743f49e6833241d17c61fb3c
 **********************************************************************************************************************************
 SETTING GEOMTYP        =    XYZ

 Variable memory set to  500000000 words,  buffer space 

 ZSYMEL=NOSYM

 SETTING BASIS          =    STO-3G


 Recomputing integrals since basis changed


 Using spherical harmonics

 Library entry O      S STO-3G               selected for orbital group  1
 Library entry O      P STO-3G               selected for orbital group  1
 Library entry C      S STO-3G               selected for orbital group  2
 Library entry C      P STO-3G               selected for orbital group  2
 Library entry H      S STO-3G               selected for orbital group  3


 PROGRAM * SEWARD (Integral evaluation for generally contracted gaussian basis sets)     Author: Roland Lindh, 1990

 Geometry written to block  1 of record 700


 Point group  C1  



 ATOMIC COORDINATES

 NR  ATOM    CHARGE       X              Y              Z

   1  O       8.00    0.487889491    1.772336338    0.076987442
   2  C       6.00    3.092650186    1.969661540    0.610948456
   3  H       1.00    3.588722191    3.969199649    0.445124989
   4  H       1.00    4.275203001    0.888624813   -0.715204646
   5  C       6.00   -0.558999885   -0.689939008    0.433900015
   6  H       1.00    0.139329507   -1.455523753    2.245788321
   7  C       6.00    0.188897023   -2.498576985   -1.700356670
   8  C       6.00   -3.414867388   -0.333725634    0.602501380
   9  H       1.00   -4.364152409   -2.143629727    0.932353075
  10  H       1.00   -3.891267344    0.957146282    2.146369830
  11  H       1.00   -4.138783672    0.473773237   -1.161709135
  12  H       1.00   -0.654166493   -4.366665745   -1.400419339
  13  H       1.00   -0.475417298   -1.765155378   -3.519671599
  14  H       1.00    2.239911273   -2.750534169   -1.815327607
  15  H       1.00    3.531482387    1.329611301    2.544724097

 Bond lengths in Bohr (Angstrom)

  1- 2  2.666238902   1- 5  2.699289504   2- 3  2.066818209   2- 4  2.079844613   2-15  2.083680934
       ( 1.410912866)       ( 1.428402491)       ( 1.093713095)       ( 1.100606371)       ( 1.102636465)

  5- 6  2.087276497   5- 7  2.895785336   5- 8  2.882931422   7-12  2.071345966   7-13  2.071020903
       ( 1.104539155)       ( 1.532383608)       ( 1.525581609)       ( 1.096109081)       ( 1.095937065)

  7-14  2.069628032   8- 9  2.070192508   8-10  2.068051501   8-11  2.070880961
       ( 1.095199989)       ( 1.095498697)       ( 1.094365725)       ( 1.095863011)

 Bond angles

  1- 2- 3  106.85884507   1- 2- 4  112.91125973   1- 2-15  111.64621834   1- 5- 6  108.63888518

  1-5-7  111.84608248   1-5-8  106.21369660   2-1-5  114.82992588   3-2-4  108.37425913

  3- 2-15  108.72850466   4- 2-15  108.20064699   5- 7-12  110.57572754   5- 7-13  110.08520206

  5- 7-14  111.89623115   5- 8- 9  110.82645738   5- 8-10  110.42517473   5- 8-11  110.16013005

  6- 5- 7  108.92239636   6- 5- 8  109.02480146   7- 5- 8  112.09364518   9- 8-10  108.73162751

  9- 8-11  108.44218100  10- 8-11  108.18344616  12- 7-13  108.42317703  12- 7-14  107.55382926

 13- 7-14  108.19151953

 NUCLEAR CHARGE:                   42
 NUMBER OF PRIMITIVE AOS:         105
 NUMBER OF SYMMETRY AOS:          105
 NUMBER OF CONTRACTIONS:           35   (  35A   )
 NUMBER OF CORE ORBITALS:           5   (   5A   )
 NUMBER OF VALENCE ORBITALS:       30   (  30A   )


 NUCLEAR REPULSION ENERGY  195.74983609


 Eigenvalues of metric

         1 0.208E+00 0.227E+00 0.234E+00 0.281E+00 0.352E+00 0.360E+00 0.363E+00 0.368E+00


 Contracted 2-electron integrals neglected if value below      1.0D-11
 AO integral compression algorithm  1   Integral accuracy      1.0D-11

     1.573 MB (compressed) written to integral file ( 89.1%)


 NUMBER OF SORTED TWO-ELECTRON INTEGRALS:     198765.     BUFFER LENGTH:  32768
 NUMBER OF SEGMENTS:   1  SEGMENT LENGTH:     198765      RECORD LENGTH: 524288

 Memory used in sort:       0.76 MW

 SORT1 READ      224802. AND WROTE      193897. INTEGRALS IN      1 RECORDS. CPU TIME:     0.01 SEC, REAL TIME:     0.01 SEC
 SORT2 READ      193897. AND WROTE      198765. INTEGRALS IN      6 RECORDS. CPU TIME:     0.01 SEC, REAL TIME:     0.03 SEC

 FILE SIZES:   FILE 1:    31.8 MBYTE,  FILE 4:     4.2 MBYTE,   TOTAL:     36.0 MBYTE

 OPERATOR DM      FOR CENTER  0  COORDINATES:    0.000000    0.000000    0.000000


 **********************************************************************************************************************************
 DATASETS  * FILE   NREC   LENGTH (MB)   RECORD NAMES
              1      19       31.10       500      610      700      900      950      970     1000      129      960     1100   
                                          VAR    BASINP    GEOM    SYMINP    ZMAT    AOBASIS   BASIS     P2S    ABASIS      S 
                                         1400     1410     1200     1210     1080     1600     1650     1300     1700   
                                           T        V       H0       H01     AOSYM     SMH    MOLCAS    ERIS     OPER   

 PROGRAMS   *        TOTAL       INT
 CPU TIMES  *         0.72      0.58
 REAL TIME  *         1.79 SEC
 DISK USED  *        36.55 MB      
 **********************************************************************************************************************************

 Density functional group MM06-L=M06LX+M06LC
 Functional: M06LX(Automatically generated (new) M06LX)                        Gradient terms: 2
 Functional: M06LC(Automatically generated (new) M06LC)                        Gradient terms: 2
 Use grid at  1800.2

 Functional: M06LX                     Factor:  1.0000
 Functional: M06LC                     Factor:  1.0000

 Generated new metagrid on record  1800.2 with target accuracy 1.0D-06 and 52852 points in CPU time    1.3
 Computed new grid on record 1800.1 in CPU time    1.4
   59039 words reserved for DFT integration

 PROGRAM * RKS-SCF (Restricted closed shell Kohn-Sham)     Authors: W. Meyer, H.-J. Werner, P.J. Knowles, 1993

 NUMBER OF ELECTRONS:      21+   21-    SPACE SYMMETRY=1    SPIN SYMMETRY: Singlet 
 CONVERGENCE THRESHOLDS:    1.00E-05 (Density)    1.00E-06 (Energy)
 MAX. NUMBER OF ITERATIONS:       60
 INTERPOLATION TYPE:            DIIS
 INTERPOLATION STEPS:              2 (START)      1 (STEP)
 LEVEL SHIFTS:                  0.00 (CLOSED)  0.00 (OPEN) 



 Use fine grid record 1800.2 for energy threshold  1.0D-06
 Orbital guess generated from atomic densities. Full valence occupancy:   21

 Molecular orbital dump at record        2100.2

 Initial occupancy:  21

 ITERATION    DDIFF          GRAD             ENERGY        2-EL.EN.            DIPOLE MOMENTS         DIIS   ORB.
    1      0.000D+00      0.000D+00      -230.37830327    631.723508    0.61879   -0.99971    0.32273    0    start
    2      0.000D+00      0.255D-01      -230.35437513    603.443745   -0.81883    0.48537   -0.37394    1    diag
    3      0.956D-01      0.277D-01      -230.65068347    616.541772    0.27264   -0.47543    0.18884    2    diag
    4      0.511D-01      0.398D-02      -230.65581644    616.958125    0.14892   -0.31278    0.11315    3    diag
    5      0.802D-02      0.120D-02      -230.65631904    616.953577    0.15793   -0.36042    0.11806    4    diag
    6      0.193D-02      0.159D-03      -230.65632886    616.953164    0.16248   -0.35664    0.12105    5    diag
    7      0.324D-03      0.302D-04      -230.65632920    616.954992    0.16349   -0.35774    0.12214    6    diag
    8      0.579D-04      0.423D-05      -230.65632921    616.955189    0.16334   -0.35758    0.12181    7    diag
    9      0.981D-05      0.107D-05      -230.65632921    616.955125    0.16329   -0.35756    0.12183    0    orth

 Final occupancy:  21

 !RKS STATE 1.1 Energy               -230.656329208580
 Nuclear energy                       195.74983609
 One-electron energy                 -700.85119717
 Two-electron energy                  308.47756267
 Density functional                   -34.03253080     M06LX=-32.53042712 M06LC= -1.50210369
 Virial quotient                       -1.01551421
 !RKS STATE 1.1 Dipole moment           0.16329460    -0.35756246     0.12182949
 Dipole moment /Debye                   0.41502628    -0.90877359     0.30963941

 Orbital energies:

         1.1          2.1          3.1          4.1          5.1          6.1          7.1          8.1          9.1         10.1
    -18.681446    -9.927386    -9.911018    -9.867474    -9.864035    -0.926901    -0.705740    -0.622880    -0.599472    -0.502735

        11.1         12.1         13.1         14.1         15.1         16.1         17.1         18.1         19.1         20.1
     -0.411197    -0.386967    -0.369499    -0.351040    -0.328441    -0.320171    -0.303708    -0.279553    -0.270316    -0.159338

        21.1         22.1         23.1
     -0.078361     0.259644     0.336047

 HOMO     21.1    -0.078361 =      -2.1323eV
 LUMO     22.1     0.259644 =       7.0653eV
 LUMO-HOMO         0.338005 =       9.1976eV


 **********************************************************************************************************************************
 DATASETS  * FILE   NREC   LENGTH (MB)   RECORD NAMES
              1      20       32.79       500      610      700      900      950      970     1000      129      960     1100   
                                          VAR    BASINP    GEOM    SYMINP    ZMAT    AOBASIS   BASIS     P2S    ABASIS      S 
                                         1400     1410     1200     1210     1080     1600     1650     1300     1700     1800   
                                           T        V       H0       H01     AOSYM     SMH    MOLCAS    ERIS     OPER     GRID   

              2       5        3.02       700     1000      520     1800     2100   
                                         GEOM     BASIS   MCVARS    GRID      RKS  

 PROGRAMS   *        TOTAL        KS       INT
 CPU TIMES  *         9.22      8.50      0.58
 REAL TIME  *        10.78 SEC
 DISK USED  *        36.55 MB      
 **********************************************************************************************************************************


 PROGRAM * Intrinsic Basis Bonding Analysis (IBBA)          Author: G. Knizia

 Molecular orbitals read from record     2100.2  Type=RKS/CANONICAL (state 1.1)
 Fock matrix read from record            2100.2  Type=RKS/TOTAL (state 1.1)
 Orbital energies read from record       2100.2  Type=RKS/CANONICAL (state 1.1)
 Density matrix read from record         2100.2  Type=RKS/CHARGE (state 1.1)

 Number of core orbitals:           5 (   5 )
 Number of closed-shell orbitals:  16 (  16 )

 Basis set MINAO-AUTO-PP generated.      Number of basis functions:   35 

 Polarized AO type:                A = (O Ot + (1-O)(1-Ot)) P12
 Orthogonalization method:         Symmetric (Loewdin)
 Localization functional:          L = sum[A,i] <i|n_A|i>^4 -> max

 Localization group 1:  21 orbitals, occupancy  2.000
 Iterative localization: IB/PM,    7 iter; Final gradient 0.98E-09

 Bond order analysis:       [THRPRINT= 0.020]

   CEN ATOM   CEN ATOM     WIBERG.BO      RENORM.BO
     1   O  -   2   C       1.022328       1.020257
     1   O  -   5   C       0.986515       0.976930
     1   O  -   4   H       0.034008       0.020167
     1   O  -  15   H       0.032016       0.019093
     1   O  -   7   C       0.030721       0.016174
     1   O  -   6   H       0.024491       0.014768

     2   C  -   1   O       1.022328       1.020257
     2   C  -   3   H       0.955667       0.972195
     2   C  -  15   H       0.951616       0.940898
     2   C  -   4   H       0.950583       0.938405

     3   H  -   2   C       0.955667       0.972195

     4   H  -   2   C       0.950583       0.938405
     4   H  -   1   O       0.034008       0.020167

     5   C  -   8   C       1.005914       0.997573
     5   C  -   7   C       0.996977       0.967340
     5   C  -   1   O       0.986515       0.976930
     5   C  -   6   H       0.931677       0.924726

     6   H  -   5   C       0.931677       0.924726
     6   H  -   1   O       0.024491       0.014768

     7   C  -   5   C       0.996977       0.967340
     7   C  -  14   H       0.965820       0.986258
     7   C  -  13   H       0.964723       0.985140
     7   C  -  12   H       0.964692       0.989290
     7   C  -   1   O       0.030721       0.016174

     8   C  -   5   C       1.005914       0.997573
     8   C  -   9   H       0.965987       0.990282
     8   C  -  11   H       0.963672       0.985088
     8   C  -  10   H       0.963643       0.987015

     9   H  -   8   C       0.965987       0.990282

    10   H  -   8   C       0.963643       0.987015

    11   H  -   8   C       0.963672       0.985088

    12   H  -   7   C       0.964692       0.989290

    13   H  -   7   C       0.964723       0.985140

    14   H  -   7   C       0.965820       0.986258

    15   H  -   2   C       0.951616       0.940898
    15   H  -   1   O       0.032016       0.019093


 Valency analysis:

   CEN ATOM   TOT.VALENCE
     1   O       2.175490
     2   C       3.900684
     3   H       0.981134
     4   H       0.988109
     5   C       3.947268
     6   H       0.988356
     7   C       3.940147
     8   C       3.937777
     9   H       0.982586
    10   H       0.981242
    11   H       0.982205
    12   H       0.982376
    13   H       0.982869
    14   H       0.983843
    15   H       0.987879

 Total charge composition:

   CEN ATOM         s          p       ELECTRONS ->P.CHARGE
     1   O       3.66520    4.57209      8.23728   -0.23728
     2   C       3.01604    3.23010      6.24614   -0.24614
     3   H       0.86265                 0.86265    0.13735
     4   H       0.89095                 0.89095    0.10905
     5   C       2.97120    3.01442      5.98561    0.01439
     6   H       0.89209                 0.89209    0.10791
     7   C       3.01188    3.38755      6.39942   -0.39942
     8   C       3.01023    3.37878      6.38901   -0.38901
     9   H       0.86804                 0.86804    0.13196
    10   H       0.86304                 0.86304    0.13696
    11   H       0.86660                 0.86660    0.13340
    12   H       0.86724                 0.86724    0.13276
    13   H       0.86911                 0.86911    0.13089
    14   H       0.87289                 0.87289    0.12711
    15   H       0.88991                 0.88991    0.11009

 Total charge composition, AO contributions:

   CEN ATOM SHL      SPHERICAL COMPONENTS
     1   O  1s       1.99732
     1   O  2s       1.66787
     1   O  2p       1.29459    1.40683    1.87067

     2   C  1s       1.99227
     2   C  2s       1.02377
     2   C  2p       0.89233    1.17878    1.15898

     3   H  1s       0.86265

     4   H  1s       0.89095

     5   C  1s       1.99278
     5   C  2s       0.97842
     5   C  2p       1.02541    0.88799    1.10102

     6   H  1s       0.89209

     7   C  1s       1.99170
     7   C  2s       1.02018
     7   C  2p       1.15388    1.12287    1.11080

     8   C  1s       1.99162
     8   C  2s       1.01861
     8   C  2p       1.05000    1.16078    1.16800

     9   H  1s       0.86804

    10   H  1s       0.86304

    11   H  1s       0.86660

    12   H  1s       0.86724

    13   H  1s       0.86911

    14   H  1s       0.87289

    15   H  1s       0.88991

 Summary of localized orbital composition:   [THRPRINT= 0.020]

   ORB  GRP  ORB.ENERGY      CENTERS/CHARGES
     1   1   -18.518569      O  1   2.000
     2   1    -9.828878      C  5   2.000
     3   1    -9.803407      C  2   2.000
     4   1    -9.754357      C  8   2.000
     5   1    -9.751756      C  7   2.000
     6   1    -0.625727      O  1   1.175   C  2   0.815
     7   1    -0.603640      O  1   1.182   C  5   0.798   (other: 0.021)
     8   1    -0.503633      C  5   1.000   C  8   0.984
     9   1    -0.498252      C  7   0.997   C  5   0.995
    10   1    -0.461945      O  1   1.970   (other: 0.030)
    11   1    -0.452935      C  2   1.128   H  4   0.871
    12   1    -0.452315      C  2   1.128   H 15   0.871
    13   1    -0.452159      C  2   1.138   H  3   0.853
    14   1    -0.450258      C  5   1.117   H  6   0.868
    15   1    -0.436859      C  8   1.127   H  9   0.862
    16   1    -0.435790      C  7   1.128   H 12   0.860
    17   1    -0.435583      C  7   1.124   H 14   0.866
    18   1    -0.430464      C  8   1.134   H 10   0.857
    19   1    -0.429877      C  7   1.128   H 13   0.863
    20   1    -0.429011      C  8   1.130   H 11   0.861
    21   1    -0.112263      O  1   1.903   C  5   0.021   (other: 0.076)

 Localized orbitals saved to record      2100.2  (orbital set 2)


 **********************************************************************************************************************************
 DATASETS  * FILE   NREC   LENGTH (MB)   RECORD NAMES
              1      20       32.79       500      610      700      900      950      970     1000      129      960     1100   
                                          VAR    BASINP    GEOM    SYMINP    ZMAT    AOBASIS   BASIS     P2S    ABASIS      S 
                                         1400     1410     1200     1210     1080     1600     1650     1300     1700     1800   
                                           T        V       H0       H01     AOSYM     SMH    MOLCAS    ERIS     OPER     GRID   

              2       5        3.03       700     1000      520     1800     2100   
                                         GEOM     BASIS   MCVARS    GRID      RKS  

 PROGRAMS   *        TOTAL      IBBA        KS       INT
 CPU TIMES  *         9.26      0.03      8.50      0.58
 REAL TIME  *        10.90 SEC
 DISK USED  *        36.55 MB      
 **********************************************************************************************************************************
 Molecular orbitals read from record     2100.2  Type=RKS/LOCAL(IBO)  
 Occupation numbers read from record     2100.2  Type=RKS/LOCAL(IBO)  
 Orbital energies read from record       2100.2  Type=RKS/LOCAL(IBO)  
 Redundancy group numbers read from rec  2100.2  Type=RKS/LOCAL(IBO)  

 IBBA/STO-3G energy=      0.000000000000

        KS-SCF  
   -230.65632921
 **********************************************************************************************************************************
 Molpro calculation terminated
