
 Primary working directories    : /tmp/sb13343
 Secondary working directories  : /tmp/sb13343
 Wavefunction directory         : /panfs/panasas01/chem/sb13343/wfu/
 Main file repository           : /tmp/sb13343/

 SHA1      : b4a5b34a9e711420743f49e6833241d17c61fb3c
 NAME      : 2099.9.b4a5b34
 ARCHNAME  : linux/x86_64_openmp
 FC        : /cm/shared/languages/GCC-6.1/bin/gfortran
 BLASLIB   : -lblas
 id        : simonbennie

 Nodes     nprocs
 node32-013    1

 Using customized tuning parameters: mindgm=1; mindgv=20; mindgc=4; mindgr=1; noblas=0; minvec=7
 default implementation of scratch files=df  

 memory,500,m
 geomtyp=xyz
 nosym
 noorient
 geometry={
 O          0.25818        0.93788        0.04074
 C          1.63656        1.04230        0.32330
 H          1.89907        2.10041        0.23555
 H          2.26234        0.47024       -0.37847
 C         -0.29581       -0.36510        0.22961
 H          0.07373       -0.77023        1.18842
 C          0.09996       -1.32219       -0.89979
 C         -1.80707       -0.17660        0.31883
 H         -2.30941       -1.13436        0.49338
 H         -2.05917        0.50650        1.13581
 H         -2.19015        0.25071       -0.61475
 H         -0.34617       -2.31074       -0.74107
 H         -0.25158       -0.93408       -1.86253
 H          1.18531       -1.45552       -0.96063
 H          1.86878        0.70360        1.34661
 }
 basis={ default,sto-3g }
 {uks,B3LYP3,direct;wf,42,1,0}
 {ibba,bonds=1}

 Variables initialized (895), CPU time= 0.00 sec
 Commands  initialized (725), CPU time= 0.01 sec, 591 directives.
 Default parameters read. Elapsed time= 0.08 sec

 Checking input...
 Passed
1


                                         ***  PROGRAM SYSTEM MOLPRO  ***
                                       Copyright, TTI GmbH Stuttgart, 2015
                                    Version 2099.9 linked May 26 2017 16:03:21


 **********************************************************************************************************************************
 LABEL *                                                                                 
  64 bit serial version                                                                  DATE: 07-Jun-17          TIME: 21:36:32  
 **********************************************************************************************************************************

 SHA1:             b4a5b34a9e711420743f49e6833241d17c61fb3c
 **********************************************************************************************************************************
 SETTING GEOMTYP        =    XYZ

 Variable memory set to  500000000 words,  buffer space 

 ZSYMEL=NOSYM

 SETTING BASIS          =    STO-3G


 Recomputing integrals since basis changed


 Using spherical harmonics

 Library entry O      S STO-3G               selected for orbital group  1
 Library entry O      P STO-3G               selected for orbital group  1
 Library entry C      S STO-3G               selected for orbital group  2
 Library entry C      P STO-3G               selected for orbital group  2
 Library entry H      S STO-3G               selected for orbital group  3


 PROGRAM * SEWARD (Integral evaluation for generally contracted gaussian basis sets)     Author: Roland Lindh, 1990

 Geometry written to block  1 of record 700


 Point group  C1  



 ATOMIC COORDINATES

 NR  ATOM    CHARGE       X              Y              Z

   1  O       8.00    0.487889491    1.772336338    0.076987442
   2  C       6.00    3.092650186    1.969661540    0.610948456
   3  H       1.00    3.588722191    3.969199649    0.445124989
   4  H       1.00    4.275203001    0.888624813   -0.715204646
   5  C       6.00   -0.558999885   -0.689939008    0.433900015
   6  H       1.00    0.139329507   -1.455523753    2.245788321
   7  C       6.00    0.188897023   -2.498576985   -1.700356670
   8  C       6.00   -3.414867388   -0.333725634    0.602501380
   9  H       1.00   -4.364152409   -2.143629727    0.932353075
  10  H       1.00   -3.891267344    0.957146282    2.146369830
  11  H       1.00   -4.138783672    0.473773237   -1.161709135
  12  H       1.00   -0.654166493   -4.366665745   -1.400419339
  13  H       1.00   -0.475417298   -1.765155378   -3.519671599
  14  H       1.00    2.239911273   -2.750534169   -1.815327607
  15  H       1.00    3.531482387    1.329611301    2.544724097

 Bond lengths in Bohr (Angstrom)

  1- 2  2.666238902   1- 5  2.699289504   2- 3  2.066818209   2- 4  2.079844613   2-15  2.083680934
       ( 1.410912866)       ( 1.428402491)       ( 1.093713095)       ( 1.100606371)       ( 1.102636465)

  5- 6  2.087276497   5- 7  2.895785336   5- 8  2.882931422   7-12  2.071345966   7-13  2.071020903
       ( 1.104539155)       ( 1.532383608)       ( 1.525581609)       ( 1.096109081)       ( 1.095937065)

  7-14  2.069628032   8- 9  2.070192508   8-10  2.068051501   8-11  2.070880961
       ( 1.095199989)       ( 1.095498697)       ( 1.094365725)       ( 1.095863011)

 Bond angles

  1- 2- 3  106.85884507   1- 2- 4  112.91125973   1- 2-15  111.64621834   1- 5- 6  108.63888518

  1-5-7  111.84608248   1-5-8  106.21369660   2-1-5  114.82992588   3-2-4  108.37425913

  3- 2-15  108.72850466   4- 2-15  108.20064699   5- 7-12  110.57572754   5- 7-13  110.08520206

  5- 7-14  111.89623115   5- 8- 9  110.82645738   5- 8-10  110.42517473   5- 8-11  110.16013005

  6- 5- 7  108.92239636   6- 5- 8  109.02480146   7- 5- 8  112.09364518   9- 8-10  108.73162751

  9- 8-11  108.44218100  10- 8-11  108.18344616  12- 7-13  108.42317703  12- 7-14  107.55382926

 13- 7-14  108.19151953

 NUCLEAR CHARGE:                   42
 NUMBER OF PRIMITIVE AOS:         105
 NUMBER OF SYMMETRY AOS:          105
 NUMBER OF CONTRACTIONS:           35   (  35A   )
 NUMBER OF CORE ORBITALS:           5   (   5A   )
 NUMBER OF VALENCE ORBITALS:       30   (  30A   )


 NUCLEAR REPULSION ENERGY  195.74983609


 Eigenvalues of metric

         1 0.208E+00 0.227E+00 0.234E+00 0.281E+00 0.352E+00 0.360E+00 0.363E+00 0.368E+00


 Contracted 2-electron integrals neglected if value below      1.0D-11
 AO integral compression algorithm  1   Integral accuracy      1.0D-11

     1.573 MB (compressed) written to integral file ( 89.1%)


 NUMBER OF SORTED TWO-ELECTRON INTEGRALS:     198765.     BUFFER LENGTH:  32768
 NUMBER OF SEGMENTS:   1  SEGMENT LENGTH:     198765      RECORD LENGTH: 524288

 Memory used in sort:       0.76 MW

 SORT1 READ      224802. AND WROTE      193897. INTEGRALS IN      1 RECORDS. CPU TIME:     0.00 SEC, REAL TIME:     0.00 SEC
 SORT2 READ      193897. AND WROTE      198765. INTEGRALS IN      6 RECORDS. CPU TIME:     0.02 SEC, REAL TIME:     0.02 SEC

 FILE SIZES:   FILE 1:    31.8 MBYTE,  FILE 4:     4.2 MBYTE,   TOTAL:     36.0 MBYTE

 OPERATOR DM      FOR CENTER  0  COORDINATES:    0.000000    0.000000    0.000000


 **********************************************************************************************************************************
 DATASETS  * FILE   NREC   LENGTH (MB)   RECORD NAMES
              1      19       31.10       500      610      700      900      950      970     1000      129      960     1100   
                                          VAR    BASINP    GEOM    SYMINP    ZMAT    AOBASIS   BASIS     P2S    ABASIS      S 
                                         1400     1410     1200     1210     1080     1600     1650     1300     1700   
                                           T        V       H0       H01     AOSYM     SMH    MOLCAS    ERIS     OPER   

 PROGRAMS   *        TOTAL       INT
 CPU TIMES  *         0.73      0.60
 REAL TIME  *         1.11 SEC
 DISK USED  *        36.55 MB      
 **********************************************************************************************************************************

 Density functional group B3LYP3=B88+DIRAC+LYP+VWN3
 Functional: B88(Automatically generated (new) B88)                            Gradient terms: 1
 Functional: DIRAC(Automatically generated (new) DIRAC)                        Gradient terms: 0
 Functional: LYP(Automatically generated (new) LYP)                            Gradient terms: 1
 Functional: VWN3(Automatically generated (new) VWN3)                          Gradient terms: 0
 Use grid at  1800.2


 Exact exchange will be calculated, factor:  0.2000

 Functional: B88                       Factor:  0.7200
 Functional: DIRAC                     Factor:  0.0800
 Functional: LYP                       Factor:  0.8100
 Functional: VWN3                      Factor:  0.1900

 Generated new metagrid on record  1800.2 with target accuracy 1.0D-06 and 52852 points in CPU time    1.3
 Computed new grid on record 1800.1 in CPU time    1.4
   32369 words reserved for DFT integration

 PROGRAM * UKS-SCF (Unrestricted Kohn-Sham)     Authors: W. Meyer, H.-J. Werner, P.J. Knowles, 1993

 NUMBER OF ELECTRONS:      21+   21-    SPACE SYMMETRY=1    SPIN SYMMETRY: Singlet 
 CONVERGENCE THRESHOLDS:    1.00E-05 (Density)    1.00E-06 (Energy)
 MAX. NUMBER OF ITERATIONS:       60
 INTERPOLATION TYPE:            DIIS
 INTERPOLATION STEPS:              2 (START)      1 (STEP)
 LEVEL SHIFTS:                 -0.20 (ALPHA)  -0.20 (BETA) 



 Use fine grid record 1800.2 for energy threshold  1.0D-06
 Orbital guess generated from atomic densities. Full valence occupancy:   21

 Molecular orbital dump at record        2200.2

 Initial alpha occupation  21
 Initial beta  occupation  21

 ITERATION    DDIFF          GRAD             ENERGY        2-EL.EN.            DIPOLE MOMENTS         DIIS
    1      0.000D+00      0.000D+00      -230.46808349    617.905795    0.61034   -0.99686    0.32137    0
    2      0.491D-01      0.170D-01      -230.72591880    602.896587    0.08384   -0.26859    0.05289    1
    3      0.500D-02      0.220D-02      -230.72951563    603.917785    0.16115   -0.35142    0.11188    2
    4      0.130D-02      0.416D-03      -230.72973253    603.878947    0.16438   -0.35400    0.11804    3
    5      0.473D-03      0.140D-03      -230.72975950    603.867652    0.16798   -0.35691    0.12039    4
    6      0.181D-03      0.340D-04      -230.72976201    603.867861    0.16798   -0.35548    0.11967    5
    7      0.468D-04      0.117D-04      -230.72976220    603.867904    0.16826   -0.35599    0.11983    6
    8      0.109D-04      0.262D-05      -230.72976221    603.867810    0.16821   -0.35584    0.11979    6
    9      0.240D-05      0.448D-06      -230.72976221    603.867937    0.16821   -0.35586    0.11980    6
   10      0.349D-06      0.104D-06      -230.72976221    603.867882    0.16821   -0.35585    0.11979    6

 Final alpha occupancy:  21
 Final beta  occupancy:  21

 !UKS STATE 1.1 Energy               -230.729762209570
 Nuclear energy                       195.74983609
 One-electron energy                 -700.84733993
 Two-electron energy                  301.93394076
 Density functional                   -27.56619914     B88=-32.57080859 DIRAC=-29.35754262 LYP= -1.36562411 VWN3= -3.47609481
 Virial quotient                       -1.01642390
 !UKS STATE 1.1 Dipole moment           0.16820975    -0.35585190     0.11979473
 Dipole moment /Debye                   0.42751853    -0.90442608     0.30446790

 Orbital energies for positive spin:

         1.1          2.1          3.1          4.1          5.1          6.1          7.1          8.1          9.1         10.1
    -18.871185   -10.061247   -10.047268   -10.004479   -10.002000    -0.963525    -0.739490    -0.656463    -0.632084    -0.536298

        11.1         12.1         13.1         14.1         15.1         16.1         17.1         18.1         19.1         20.1
     -0.443950    -0.421982    -0.405622    -0.385763    -0.360903    -0.353415    -0.335024    -0.311707    -0.301171    -0.197784

        21.1         22.1         23.1
     -0.129716     0.290155     0.365228

 Orbital energies for negative spin:

         1.1          2.1          3.1          4.1          5.1          6.1          7.1          8.1          9.1         10.1
    -18.871185   -10.061247   -10.047268   -10.004479   -10.002000    -0.963525    -0.739490    -0.656463    -0.632084    -0.536298

        11.1         12.1         13.1         14.1         15.1         16.1         17.1         18.1         19.1         20.1
     -0.443950    -0.421982    -0.405622    -0.385763    -0.360903    -0.353415    -0.335024    -0.311707    -0.301171    -0.197784

        21.1         22.1         23.1
     -0.129716     0.290155     0.365228

 HOMO     21.1    -0.129716 =      -3.5297eV
 LUMO     22.1     0.290155 =       7.8955eV
 LUMO-HOMO         0.419871 =      11.4253eV

 EXPECTATION VALUE OF S**2:             0.00000000

 Natural orbitals saved to record    2200.2 (Orbital set 3)

 Orbital spaces for UNO-CAS (Min. occupation: 0.020  Max. occupation: 1.980):

 Closed:       21
 Active:        0


 **********************************************************************************************************************************
 DATASETS  * FILE   NREC   LENGTH (MB)   RECORD NAMES
              1      20       32.79       500      610      700      900      950      970     1000      129      960     1100   
                                          VAR    BASINP    GEOM    SYMINP    ZMAT    AOBASIS   BASIS     P2S    ABASIS      S 
                                         1400     1410     1200     1210     1080     1600     1650     1300     1700     1800   
                                           T        V       H0       H01     AOSYM     SMH    MOLCAS    ERIS     OPER     GRID   

              2       5        3.05       700     1000      520     1800     2200   
                                         GEOM     BASIS   MCVARS    GRID      UKS  

 PROGRAMS   *        TOTAL       UKS       INT
 CPU TIMES  *         6.37      5.64      0.60
 REAL TIME  *         7.14 SEC
 DISK USED  *        36.55 MB      
 **********************************************************************************************************************************


 PROGRAM * Intrinsic Basis Bonding Analysis (IBBA)          Author: G. Knizia

 Molecular orbitals read from record     2200.2  Type=UKS/ALPHA (state 1.1)
 Fock matrix read from record            2200.2  Type=UKS/TOTAL (state 1.1)
 Orbital energies read from record       2200.2  Type=UKS/ALPHA (state 1.1)
 Density matrix read from record         2200.2  Type=UKS/CHARGE (state 1.1)

 Number of core orbitals:           5 (   5 )
 Number of closed-shell orbitals:  16 (  16 )

 Basis set MINAO-AUTO-PP generated.      Number of basis functions:   35 

 Polarized AO type:                A = (O Ot + (1-O)(1-Ot)) P12
 Orthogonalization method:         Symmetric (Loewdin)
 Localization functional:          L = sum[A,i] <i|n_A|i>^4 -> max

 Localization group 1:  21 orbitals, occupancy  2.000
 Iterative localization: IB/PM,    7 iter; Final gradient 0.35E-08

 Bond order analysis:       [THRPRINT= 0.020]

   CEN ATOM   CEN ATOM     WIBERG.BO      RENORM.BO
     1   O  -   2   C       1.019396       1.016991
     1   O  -   5   C       0.988459       0.979044
     1   O  -   4   H       0.030242       0.017867
     1   O  -  15   H       0.028550       0.016982
     1   O  -   7   C       0.027755       0.014590
     1   O  -   6   H       0.022007       0.013240

     2   C  -   1   O       1.019396       1.016991
     2   C  -   3   H       0.956200       0.974885
     2   C  -  15   H       0.954595       0.947654
     2   C  -   4   H       0.953913       0.945671

     3   H  -   2   C       0.956200       0.974885

     4   H  -   2   C       0.953913       0.945671
     4   H  -   1   O       0.030242       0.017867

     5   C  -   8   C       1.003276       0.996391
     5   C  -   7   C       0.996558       0.970412
     5   C  -   1   O       0.988459       0.979044
     5   C  -   6   H       0.936245       0.931874

     6   H  -   5   C       0.936245       0.931874
     6   H  -   1   O       0.022007       0.013240

     7   C  -   5   C       0.996558       0.970412
     7   C  -  14   H       0.965745       0.987360
     7   C  -  12   H       0.965147       0.990478
     7   C  -  13   H       0.964690       0.986484
     7   C  -   1   O       0.027755       0.014590

     8   C  -   5   C       1.003276       0.996391
     8   C  -   9   H       0.966082       0.990875
     8   C  -  11   H       0.963658       0.986474
     8   C  -  10   H       0.963540       0.988258

     9   H  -   8   C       0.966082       0.990875

    10   H  -   8   C       0.963540       0.988258

    11   H  -   8   C       0.963658       0.986474

    12   H  -   7   C       0.965147       0.990478

    13   H  -   7   C       0.964690       0.986484

    14   H  -   7   C       0.965745       0.987360

    15   H  -   2   C       0.954595       0.947654
    15   H  -   1   O       0.028550       0.016982


 Valency analysis:

   CEN ATOM   TOT.VALENCE
     1   O       2.158240
     2   C       3.904107
     3   H       0.980590
     4   H       0.987873
     5   C       3.950516
     6   H       0.988130
     7   C       3.935988
     8   C       3.933336
     9   H       0.982518
    10   H       0.980936
    11   H       0.981929
    12   H       0.982295
    13   H       0.982564
    14   H       0.983651
    15   H       0.987604

 Total charge composition:

   CEN ATOM         s          p       ELECTRONS ->P.CHARGE
     1   O       3.65299    4.57291      8.22590   -0.22590
     2   C       3.00489    3.25038      6.25528   -0.25528
     3   H       0.86068                 0.86068    0.13932
     4   H       0.88988                 0.88988    0.11012
     5   C       2.96317    3.03266      5.99583    0.00417
     6   H       0.89105                 0.89105    0.10895
     7   C       2.99804    3.40195      6.39999   -0.39999
     8   C       2.99635    3.39407      6.39042   -0.39042
     9   H       0.86778                 0.86778    0.13222
    10   H       0.86193                 0.86193    0.13807
    11   H       0.86557                 0.86557    0.13443
    12   H       0.86694                 0.86694    0.13306
    13   H       0.86796                 0.86796    0.13204
    14   H       0.87214                 0.87214    0.12786
    15   H       0.88866                 0.88866    0.11134

 Total charge composition, AO contributions:

   CEN ATOM SHL      SPHERICAL COMPONENTS
     1   O  1s       1.99735
     1   O  2s       1.65564
     1   O  2p       1.28569    1.40571    1.88151

     2   C  1s       1.99244
     2   C  2s       1.01245
     2   C  2p       0.90560    1.18400    1.16078

     3   H  1s       0.86068

     4   H  1s       0.88988

     5   C  1s       1.99294
     5   C  2s       0.97023
     5   C  2p       1.03065    0.89883    1.10317

     6   H  1s       0.89105

     7   C  1s       1.99190
     7   C  2s       1.00614
     7   C  2p       1.15943    1.12786    1.11466

     8   C  1s       1.99182
     8   C  2s       1.00453
     8   C  2p       1.05282    1.16707    1.17419

     9   H  1s       0.86778

    10   H  1s       0.86193

    11   H  1s       0.86557

    12   H  1s       0.86694

    13   H  1s       0.86796

    14   H  1s       0.87214

    15   H  1s       0.88866

 Summary of localized orbital composition:   [THRPRINT= 0.020]

   ORB  GRP  ORB.ENERGY      CENTERS/CHARGES
     1   1   -18.707650      O  1   2.000
     2   1    -9.962364      C  5   2.000
     3   1    -9.939727      C  2   2.000
     4   1    -9.891547      C  8   2.000
     5   1    -9.889851      C  7   2.000
     6   1    -0.660421      O  1   1.162   C  2   0.828
     7   1    -0.638422      O  1   1.169   C  5   0.812
     8   1    -0.534717      C  5   1.002   C  8   0.983
     9   1    -0.530270      C  5   0.996   C  7   0.996
    10   1    -0.498575      O  1   1.972   (other: 0.028)
    11   1    -0.486772      C  2   1.140   H  3   0.852
    12   1    -0.485972      C  2   1.127   H  4   0.872
    13   1    -0.485463      C  2   1.127   H 15   0.871
    14   1    -0.482229      C  5   1.117   H  6   0.869
    15   1    -0.469975      C  8   1.128   H  9   0.861
    16   1    -0.469453      C  7   1.125   H 14   0.866
    17   1    -0.469238      C  7   1.129   H 12   0.860
    18   1    -0.464409      C  8   1.135   H 10   0.855
    19   1    -0.463713      C  7   1.130   H 13   0.862
    20   1    -0.462735      C  8   1.132   H 11   0.860
    21   1    -0.167581      O  1   1.915   (other: 0.085)

 Localized orbitals saved to record      2200.2  (orbital set 4)


 **********************************************************************************************************************************
 DATASETS  * FILE   NREC   LENGTH (MB)   RECORD NAMES
              1      20       32.79       500      610      700      900      950      970     1000      129      960     1100   
                                          VAR    BASINP    GEOM    SYMINP    ZMAT    AOBASIS   BASIS     P2S    ABASIS      S 
                                         1400     1410     1200     1210     1080     1600     1650     1300     1700     1800   
                                           T        V       H0       H01     AOSYM     SMH    MOLCAS    ERIS     OPER     GRID   

              2       5        3.06       700     1000      520     1800     2200   
                                         GEOM     BASIS   MCVARS    GRID      UKS  

 PROGRAMS   *        TOTAL      IBBA       UKS       INT
 CPU TIMES  *         6.42      0.04      5.64      0.60
 REAL TIME  *         7.27 SEC
 DISK USED  *        36.55 MB      
 **********************************************************************************************************************************
 Molecular orbitals read from record     2200.2  Type=UKS/LOCAL(IBO)  
 Occupation numbers read from record     2200.2  Type=UKS/LOCAL(IBO)  
 Orbital energies read from record       2200.2  Type=UKS/LOCAL(IBO)  
 Redundancy group numbers read from rec  2200.2  Type=UKS/BETA (state 1.1)

 IBBA/STO-3G energy=      0.000000000000

        UKS-SCF 
   -230.72976221
 **********************************************************************************************************************************
 Molpro calculation terminated
