
 Primary working directories    : /tmp/sb13343
 Secondary working directories  : /tmp/sb13343
 Wavefunction directory         : /panfs/panasas01/chem/sb13343/wfu/
 Main file repository           : /tmp/sb13343/

 SHA1      : b4a5b34a9e711420743f49e6833241d17c61fb3c
 NAME      : 2099.9.b4a5b34
 ARCHNAME  : linux/x86_64_openmp
 FC        : /cm/shared/languages/GCC-6.1/bin/gfortran
 BLASLIB   : -lblas
 id        : simonbennie

 Nodes     nprocs
 node35-006    1

 Using customized tuning parameters: mindgm=1; mindgv=20; mindgc=4; mindgr=1; noblas=0; minvec=7
 default implementation of scratch files=df  

 memory,500,m
 geomtyp=xyz
 nosym
 noorient
 geometry={
 O          0.25818        0.93788        0.04074
 C          1.63656        1.04230        0.32330
 H          1.89907        2.10041        0.23555
 H          2.26234        0.47024       -0.37847
 C         -0.29581       -0.36510        0.22961
 H          0.07373       -0.77023        1.18842
 C          0.09996       -1.32219       -0.89979
 C         -1.80707       -0.17660        0.31883
 H         -2.30941       -1.13436        0.49338
 H         -2.05917        0.50650        1.13581
 H         -2.19015        0.25071       -0.61475
 H         -0.34617       -2.31074       -0.74107
 H         -0.25158       -0.93408       -1.86253
 H          1.18531       -1.45552       -0.96063
 H          1.86878        0.70360        1.34661
 }
 basis={ default,svp }
 {ks,PW91,direct;wf,42,1,0}
 {ibba,bonds=1}

 Variables initialized (895), CPU time= 0.00 sec
 Commands  initialized (725), CPU time= 0.02 sec, 591 directives.
 Default parameters read. Elapsed time= 0.19 sec

 Checking input...
 Passed
1


                                         ***  PROGRAM SYSTEM MOLPRO  ***
                                       Copyright, TTI GmbH Stuttgart, 2015
                                    Version 2099.9 linked May 26 2017 16:03:21


 **********************************************************************************************************************************
 LABEL *                                                                                 
  64 bit serial version                                                                  DATE: 07-Jun-17          TIME: 22:03:48  
 **********************************************************************************************************************************

 SHA1:             b4a5b34a9e711420743f49e6833241d17c61fb3c
 **********************************************************************************************************************************
 SETTING GEOMTYP        =    XYZ

 Variable memory set to  500000000 words,  buffer space 

 ZSYMEL=NOSYM

 SETTING BASIS          =    SVP


 Recomputing integrals since basis changed


 Using spherical harmonics

 Library entry O      S def2-SVP             selected for orbital group  1
 Library entry O      P def2-SVP             selected for orbital group  1
 Library entry O      D def2-SVP             selected for orbital group  1
 Library entry C      S def2-SVP             selected for orbital group  2
 Library entry C      P def2-SVP             selected for orbital group  2
 Library entry C      D def2-SVP             selected for orbital group  2
 Library entry H      S def2-SVP             selected for orbital group  3
 Library entry H      P def2-SVP             selected for orbital group  3


 PROGRAM * SEWARD (Integral evaluation for generally contracted gaussian basis sets)     Author: Roland Lindh, 1990

 Geometry written to block  1 of record 700


 Point group  C1  



 ATOMIC COORDINATES

 NR  ATOM    CHARGE       X              Y              Z

   1  O       8.00    0.487889491    1.772336338    0.076987442
   2  C       6.00    3.092650186    1.969661540    0.610948456
   3  H       1.00    3.588722191    3.969199649    0.445124989
   4  H       1.00    4.275203001    0.888624813   -0.715204646
   5  C       6.00   -0.558999885   -0.689939008    0.433900015
   6  H       1.00    0.139329507   -1.455523753    2.245788321
   7  C       6.00    0.188897023   -2.498576985   -1.700356670
   8  C       6.00   -3.414867388   -0.333725634    0.602501380
   9  H       1.00   -4.364152409   -2.143629727    0.932353075
  10  H       1.00   -3.891267344    0.957146282    2.146369830
  11  H       1.00   -4.138783672    0.473773237   -1.161709135
  12  H       1.00   -0.654166493   -4.366665745   -1.400419339
  13  H       1.00   -0.475417298   -1.765155378   -3.519671599
  14  H       1.00    2.239911273   -2.750534169   -1.815327607
  15  H       1.00    3.531482387    1.329611301    2.544724097

 Bond lengths in Bohr (Angstrom)

  1- 2  2.666238902   1- 5  2.699289504   2- 3  2.066818209   2- 4  2.079844613   2-15  2.083680934
       ( 1.410912866)       ( 1.428402491)       ( 1.093713095)       ( 1.100606371)       ( 1.102636465)

  5- 6  2.087276497   5- 7  2.895785336   5- 8  2.882931422   7-12  2.071345966   7-13  2.071020903
       ( 1.104539155)       ( 1.532383608)       ( 1.525581609)       ( 1.096109081)       ( 1.095937065)

  7-14  2.069628032   8- 9  2.070192508   8-10  2.068051501   8-11  2.070880961
       ( 1.095199989)       ( 1.095498697)       ( 1.094365725)       ( 1.095863011)

 Bond angles

  1- 2- 3  106.85884507   1- 2- 4  112.91125973   1- 2-15  111.64621834   1- 5- 6  108.63888518

  1-5-7  111.84608248   1-5-8  106.21369660   2-1-5  114.82992588   3-2-4  108.37425913

  3- 2-15  108.72850466   4- 2-15  108.20064699   5- 7-12  110.57572754   5- 7-13  110.08520206

  5- 7-14  111.89623115   5- 8- 9  110.82645738   5- 8-10  110.42517473   5- 8-11  110.16013005

  6- 5- 7  108.92239636   6- 5- 8  109.02480146   7- 5- 8  112.09364518   9- 8-10  108.73162751

  9- 8-11  108.44218100  10- 8-11  108.18344616  12- 7-13  108.42317703  12- 7-14  107.55382926

 13- 7-14  108.19151953

 NUCLEAR CHARGE:                   42
 NUMBER OF PRIMITIVE AOS:         195
 NUMBER OF SYMMETRY AOS:          190
 NUMBER OF CONTRACTIONS:          120   ( 120A   )
 NUMBER OF CORE ORBITALS:           5   (   5A   )
 NUMBER OF VALENCE ORBITALS:       30   (  30A   )


 NUCLEAR REPULSION ENERGY  195.74983609


 Eigenvalues of metric

         1 0.241E-02 0.514E-02 0.104E-01 0.150E-01 0.214E-01 0.243E-01 0.289E-01 0.305E-01


 Contracted 2-electron integrals neglected if value below      1.0D-11
 AO integral compression algorithm  1   Integral accuracy      1.0D-11

     97.518 MB (compressed) written to integral file ( 44.4%)


 NUMBER OF SORTED TWO-ELECTRON INTEGRALS:   26357430.     BUFFER LENGTH:  32768
 NUMBER OF SEGMENTS:   2  SEGMENT LENGTH:   15997996      RECORD LENGTH: 524288

 Memory used in sort:      16.56 MW

 SORT1 READ    27501115. AND WROTE    22923365. INTEGRALS IN     67 RECORDS. CPU TIME:     0.36 SEC, REAL TIME:     0.71 SEC
 SORT2 READ    22923365. AND WROTE    26357430. INTEGRALS IN    372 RECORDS. CPU TIME:     0.61 SEC, REAL TIME:     4.67 SEC

 FILE SIZES:   FILE 1:   128.3 MBYTE,  FILE 4:   281.1 MBYTE,   TOTAL:    409.3 MBYTE

 OPERATOR DM      FOR CENTER  0  COORDINATES:    0.000000    0.000000    0.000000


 **********************************************************************************************************************************
 DATASETS  * FILE   NREC   LENGTH (MB)   RECORD NAMES
              1      19      116.03       500      610      700      900      950      970     1000      129      960     1100   
                                          VAR    BASINP    GEOM    SYMINP    ZMAT    AOBASIS   BASIS     P2S    ABASIS      S 
                                         1400     1410     1200     1210     1080     1600     1650     1300     1700   
                                           T        V       H0       H01     AOSYM     SMH    MOLCAS    ERIS     OPER   

 PROGRAMS   *        TOTAL       INT
 CPU TIMES  *         3.98      3.83
 REAL TIME  *         9.16 SEC
 DISK USED  *       409.85 MB      
 **********************************************************************************************************************************

 Density functional group PW91=PW91X+PW91C
 Functional: PW91X(Automatically generated (new) PW91X)                        Gradient terms: 1
 Functional: PW91C(Automatically generated (new) PW91C)                        Gradient terms: 1
 Use grid at  1800.2

 Functional: PW91X                     Factor:  1.0000
 Functional: PW91C                     Factor:  1.0000

 Generated new metagrid on record  1800.2 with target accuracy 1.0D-06 and 52852 points in CPU time    1.4
 Computed new grid on record 1800.1 in CPU time    1.6
   99539 words reserved for DFT integration

 PROGRAM * RKS-SCF (Restricted closed shell Kohn-Sham)     Authors: W. Meyer, H.-J. Werner, P.J. Knowles, 1993

 NUMBER OF ELECTRONS:      21+   21-    SPACE SYMMETRY=1    SPIN SYMMETRY: Singlet 
 CONVERGENCE THRESHOLDS:    1.00E-05 (Density)    1.00E-06 (Energy)
 MAX. NUMBER OF ITERATIONS:       60
 INTERPOLATION TYPE:            DIIS
 INTERPOLATION STEPS:              2 (START)      1 (STEP)
 LEVEL SHIFTS:                  0.00 (CLOSED)  0.00 (OPEN) 



 Use fine grid record 1800.2 for energy threshold  1.0D-06
 Orbital guess generated from atomic densities. Full valence occupancy:   21

 Molecular orbital dump at record        2100.2

 Initial occupancy:  21

 ITERATION    DDIFF          GRAD             ENERGY        2-EL.EN.            DIPOLE MOMENTS         DIIS   ORB.
    1      0.000D+00      0.000D+00      -233.12806136    631.696914    0.48536   -0.71552    0.26781    0    start
    2      0.000D+00      0.103D-01      -232.80253870    589.979945   -0.34291    0.54491   -0.30502    1    diag
    3      0.311D-01      0.157D-01      -233.37049325    616.800395    0.34445   -0.51887    0.22439    2    diag
    4      0.228D-01      0.202D-02      -233.37635328    615.377227    0.22005   -0.29391    0.11532    3    diag
    5      0.232D-02      0.889D-03      -233.37757488    615.384341    0.23056   -0.35360    0.11400    4    diag
    6      0.739D-03      0.190D-03      -233.37762824    615.446430    0.23427   -0.34660    0.12445    5    diag
    7      0.210D-03      0.839D-04      -233.37764146    615.436275    0.23560   -0.35036    0.12672    6    diag
    8      0.712D-04      0.104D-04      -233.37764168    615.442443    0.23562   -0.34940    0.12417    7    diag
    9      0.138D-04      0.331D-05      -233.37764170    615.443044    0.23552   -0.34979    0.12502    8    diag
   10      0.415D-05      0.928D-06      -233.37764170    615.442049    0.23559   -0.34968    0.12496    0    orth

 Final occupancy:  21

 !RKS STATE 1.1 Energy               -233.377641702093
 Nuclear energy                       195.74983609
 One-electron energy                 -702.96269638
 Two-electron energy                  307.72102459
 Density functional                   -33.88580601     PW91X=-32.42537583 PW91C= -1.46043018
 Virial quotient                       -1.01090569
 !RKS STATE 1.1 Dipole moment           0.23558895    -0.34967883     0.12496024
 Dipole moment /Debye                   0.59876817    -0.88873671     0.31759643

 Orbital energies:

         1.1          2.1          3.1          4.1          5.1          6.1          7.1          8.1          9.1         10.1
    -18.763755    -9.953993    -9.944909    -9.898236    -9.895462    -0.926494    -0.700985    -0.618262    -0.598932    -0.511137

        11.1         12.1         13.1         14.1         15.1         16.1         17.1         18.1         19.1         20.1
     -0.444732    -0.412468    -0.403018    -0.374971    -0.349487    -0.341663    -0.332563    -0.308267    -0.300424    -0.259552

        21.1         22.1         23.1
     -0.204398     0.031111     0.059842

 HOMO     21.1    -0.204398 =      -5.5620eV
 LUMO     22.1     0.031111 =       0.8466eV
 LUMO-HOMO         0.235509 =       6.4085eV


 **********************************************************************************************************************************
 DATASETS  * FILE   NREC   LENGTH (MB)   RECORD NAMES
              1      20      117.72       500      610      700      900      950      970     1000      129      960     1100   
                                          VAR    BASINP    GEOM    SYMINP    ZMAT    AOBASIS   BASIS     P2S    ABASIS      S 
                                         1400     1410     1200     1210     1080     1600     1650     1300     1700     1800   
                                           T        V       H0       H01     AOSYM     SMH    MOLCAS    ERIS     OPER     GRID   

              2       5        3.30       700     1000      520     1800     2100   
                                         GEOM     BASIS   MCVARS    GRID      RKS  

 PROGRAMS   *        TOTAL        KS       INT
 CPU TIMES  *        17.76     13.78      3.83
 REAL TIME  *        23.25 SEC
 DISK USED  *       409.85 MB      
 **********************************************************************************************************************************


 PROGRAM * Intrinsic Basis Bonding Analysis (IBBA)          Author: G. Knizia

 Molecular orbitals read from record     2100.2  Type=RKS/CANONICAL (state 1.1)
 Fock matrix read from record            2100.2  Type=RKS/TOTAL (state 1.1)
 Orbital energies read from record       2100.2  Type=RKS/CANONICAL (state 1.1)
 Density matrix read from record         2100.2  Type=RKS/CHARGE (state 1.1)

 Number of core orbitals:           5 (   5 )
 Number of closed-shell orbitals:  16 (  16 )

 Basis set MINAO-AUTO-PP generated.      Number of basis functions:   35 

 Polarized AO type:                A = (O Ot + (1-O)(1-Ot)) P12
 Orthogonalization method:         Symmetric (Loewdin)
 Localization functional:          L = sum[A,i] <i|n_A|i>^4 -> max

 Localization group 1:  21 orbitals, occupancy  2.000
 Iterative localization: IB/PM,    7 iter; Final gradient 0.23E-08

 Bond order analysis:       [THRPRINT= 0.020]

   CEN ATOM   CEN ATOM     WIBERG.BO      RENORM.BO
     1   O  -   2   C       0.996451       1.019329
     1   O  -   5   C       0.951291       0.958849
     1   O  -   4   H       0.036997       0.021980
     1   O  -  15   H       0.035327       0.021153
     1   O  -   7   C       0.033334       0.017403
     1   O  -   6   H       0.027283       0.016401

     2   C  -   1   O       0.996451       1.019329
     2   C  -   3   H       0.955763       0.976210
     2   C  -  15   H       0.945812       0.932119
     2   C  -   4   H       0.945743       0.931211

     3   H  -   2   C       0.955763       0.976210

     4   H  -   2   C       0.945743       0.931211
     4   H  -   1   O       0.036997       0.021980

     5   C  -   8   C       1.013835       1.005625
     5   C  -   7   C       1.005256       0.978036
     5   C  -   1   O       0.951291       0.958849
     5   C  -   6   H       0.920938       0.912012

     6   H  -   5   C       0.920938       0.912012
     6   H  -   1   O       0.027283       0.016401

     7   C  -   5   C       1.005256       0.978036
     7   C  -  14   H       0.960242       0.982054
     7   C  -  12   H       0.957775       0.984392
     7   C  -  13   H       0.957381       0.977318
     7   C  -   1   O       0.033334       0.017403

     8   C  -   5   C       1.013835       1.005625
     8   C  -   9   H       0.960585       0.986287
     8   C  -  10   H       0.958103       0.982403
     8   C  -  11   H       0.956669       0.977471

     9   H  -   8   C       0.960585       0.986287

    10   H  -   8   C       0.958103       0.982403

    11   H  -   8   C       0.956669       0.977471

    12   H  -   7   C       0.957775       0.984392

    13   H  -   7   C       0.957381       0.977318

    14   H  -   7   C       0.960242       0.982054

    15   H  -   2   C       0.945812       0.932119
    15   H  -   1   O       0.035327       0.021153


 Valency analysis:

   CEN ATOM   TOT.VALENCE
     1   O       2.139840
     2   C       3.867110
     3   H       0.977569
     4   H       0.987498
     5   C       3.919993
     6   H       0.989415
     7   C       3.938026
     8   C       3.936737
     9   H       0.981998
    10   H       0.979621
    11   H       0.980908
    12   H       0.981165
    13   H       0.981154
    14   H       0.982461
    15   H       0.987527

 Total charge composition:

   CEN ATOM         s          p       ELECTRONS ->P.CHARGE
     1   O       3.59937    4.77076      8.37013   -0.37013
     2   C       3.01878    3.18119      6.19996   -0.19996
     3   H       0.85023                 0.85023    0.14977
     4   H       0.88819                 0.88819    0.11181
     5   C       2.95494    2.94395      5.89889    0.10111
     6   H       0.89711                 0.89711    0.10289
     7   C       3.02730    3.39486      6.42216   -0.42216
     8   C       3.02490    3.38216      6.40706   -0.40706
     9   H       0.86583                 0.86583    0.13417
    10   H       0.85724                 0.85724    0.14276
    11   H       0.86182                 0.86182    0.13818
    12   H       0.86276                 0.86276    0.13724
    13   H       0.86272                 0.86272    0.13728
    14   H       0.86757                 0.86757    0.13243
    15   H       0.88832                 0.88832    0.11168

 Total charge composition, AO contributions:

   CEN ATOM SHL      SPHERICAL COMPONENTS
     1   O  1s       1.99724
     1   O  2s       1.60213
     1   O  2p       1.38141    1.51429    1.87506

     2   C  1s       1.99190
     2   C  2s       1.02688
     2   C  2p       0.84047    1.18507    1.15565

     3   H  1s       0.85023

     4   H  1s       0.88819

     5   C  1s       1.99249
     5   C  2s       0.96245
     5   C  2p       1.01205    0.84037    1.09153

     6   H  1s       0.89711

     7   C  1s       1.99127
     7   C  2s       1.03603
     7   C  2p       1.15836    1.12438    1.11212

     8   C  1s       1.99120
     8   C  2s       1.03370
     8   C  2p       1.04958    1.16080    1.17178

     9   H  1s       0.86583

    10   H  1s       0.85724

    11   H  1s       0.86182

    12   H  1s       0.86276

    13   H  1s       0.86272

    14   H  1s       0.86757

    15   H  1s       0.88832

 Summary of localized orbital composition:   [THRPRINT= 0.020]

   ORB  GRP  ORB.ENERGY      CENTERS/CHARGES
     1   1   -18.626777      O  1   2.000
     2   1    -9.858621      C  5   2.000
     3   1    -9.838502      C  2   2.000
     4   1    -9.786909      C  7   2.000
     5   1    -9.783390      C  8   2.000
     6   1    -0.693055      O  1   1.245   C  2   0.746
     7   1    -0.674479      O  1   1.262   C  5   0.718
     8   1    -0.521341      C  5   0.994   C  8   0.991
     9   1    -0.519474      C  7   1.005   C  5   0.985
    10   1    -0.473750      O  1   1.959   (other: 0.041)
    11   1    -0.465117      C  2   1.132   H  4   0.866
    12   1    -0.464779      C  2   1.131   H 15   0.867
    13   1    -0.464167      C  2   1.150   H  3   0.842
    14   1    -0.460193      C  5   1.109   H  6   0.871   (other: 0.020)
    15   1    -0.448996      C  7   1.129   H 12   0.854
    16   1    -0.446965      C  7   1.128   H 14   0.859
    17   1    -0.446526      C  8   1.126   H  9   0.858
    18   1    -0.442802      C  7   1.134   H 13   0.855
    19   1    -0.440227      C  8   1.135   H 11   0.854
    20   1    -0.439961      C  8   1.139   H 10   0.849
    21   1    -0.247678      O  1   1.899   C  5   0.021   C  2   0.020   (other: 0.060)

 Localized orbitals saved to record      2100.2  (orbital set 2)


 **********************************************************************************************************************************
 DATASETS  * FILE   NREC   LENGTH (MB)   RECORD NAMES
              1      20      117.72       500      610      700      900      950      970     1000      129      960     1100   
                                          VAR    BASINP    GEOM    SYMINP    ZMAT    AOBASIS   BASIS     P2S    ABASIS      S 
                                         1400     1410     1200     1210     1080     1600     1650     1300     1700     1800   
                                           T        V       H0       H01     AOSYM     SMH    MOLCAS    ERIS     OPER     GRID   

              2       5        3.42       700     1000      520     1800     2100   
                                         GEOM     BASIS   MCVARS    GRID      RKS  

 PROGRAMS   *        TOTAL      IBBA        KS       INT
 CPU TIMES  *        17.81      0.04     13.78      3.83
 REAL TIME  *        23.42 SEC
 DISK USED  *       409.85 MB      
 **********************************************************************************************************************************
 Molecular orbitals read from record     2100.2  Type=RKS/LOCAL(IBO)  
 Occupation numbers read from record     2100.2  Type=RKS/LOCAL(IBO)  
 Orbital energies read from record       2100.2  Type=RKS/LOCAL(IBO)  
 Redundancy group numbers read from rec  2100.2  Type=RKS/LOCAL(IBO)  

 IBBA/SVP energy=      0.000000000000

        KS-SCF  
   -233.37764170
 **********************************************************************************************************************************
 Molpro calculation terminated
