
 Primary working directories    : /tmp/sb13343
 Secondary working directories  : /tmp/sb13343
 Wavefunction directory         : /panfs/panasas01/chem/sb13343/wfu/
 Main file repository           : /tmp/sb13343/

 SHA1      : b4a5b34a9e711420743f49e6833241d17c61fb3c
 NAME      : 2099.9.b4a5b34
 ARCHNAME  : linux/x86_64_openmp
 FC        : /cm/shared/languages/GCC-6.1/bin/gfortran
 BLASLIB   : -lblas
 id        : simonbennie

 Nodes     nprocs
 node32-013    1

 Using customized tuning parameters: mindgm=1; mindgv=20; mindgc=4; mindgr=1; noblas=0; minvec=7
 default implementation of scratch files=df  

 memory,500,m
 geomtyp=xyz
 nosym
 noorient
 geometry={
 O          0.25818        0.93788        0.04074
 C          1.63656        1.04230        0.32330
 H          1.89907        2.10041        0.23555
 H          2.26234        0.47024       -0.37847
 C         -0.29581       -0.36510        0.22961
 H          0.07373       -0.77023        1.18842
 C          0.09996       -1.32219       -0.89979
 C         -1.80707       -0.17660        0.31883
 H         -2.30941       -1.13436        0.49338
 H         -2.05917        0.50650        1.13581
 H         -2.19015        0.25071       -0.61475
 H         -0.34617       -2.31074       -0.74107
 H         -0.25158       -0.93408       -1.86253
 H          1.18531       -1.45552       -0.96063
 H          1.86878        0.70360        1.34661
 }
 basis={ default,sto-3g }
 {uks,PBE0MOL,direct;wf,42,1,0}
 {ibba,bonds=1}

 Variables initialized (895), CPU time= 0.01 sec
 Commands  initialized (725), CPU time= 0.01 sec, 591 directives.
 Default parameters read. Elapsed time= 0.09 sec

 Checking input...
 Passed
1


                                         ***  PROGRAM SYSTEM MOLPRO  ***
                                       Copyright, TTI GmbH Stuttgart, 2015
                                    Version 2099.9 linked May 26 2017 16:03:21


 **********************************************************************************************************************************
 LABEL *                                                                                 
  64 bit serial version                                                                  DATE: 07-Jun-17          TIME: 21:38:08  
 **********************************************************************************************************************************

 SHA1:             b4a5b34a9e711420743f49e6833241d17c61fb3c
 **********************************************************************************************************************************
 SETTING GEOMTYP        =    XYZ

 Variable memory set to  500000000 words,  buffer space 

 ZSYMEL=NOSYM

 SETTING BASIS          =    STO-3G


 Recomputing integrals since basis changed


 Using spherical harmonics

 Library entry O      S STO-3G               selected for orbital group  1
 Library entry O      P STO-3G               selected for orbital group  1
 Library entry C      S STO-3G               selected for orbital group  2
 Library entry C      P STO-3G               selected for orbital group  2
 Library entry H      S STO-3G               selected for orbital group  3


 PROGRAM * SEWARD (Integral evaluation for generally contracted gaussian basis sets)     Author: Roland Lindh, 1990

 Geometry written to block  1 of record 700


 Point group  C1  



 ATOMIC COORDINATES

 NR  ATOM    CHARGE       X              Y              Z

   1  O       8.00    0.487889491    1.772336338    0.076987442
   2  C       6.00    3.092650186    1.969661540    0.610948456
   3  H       1.00    3.588722191    3.969199649    0.445124989
   4  H       1.00    4.275203001    0.888624813   -0.715204646
   5  C       6.00   -0.558999885   -0.689939008    0.433900015
   6  H       1.00    0.139329507   -1.455523753    2.245788321
   7  C       6.00    0.188897023   -2.498576985   -1.700356670
   8  C       6.00   -3.414867388   -0.333725634    0.602501380
   9  H       1.00   -4.364152409   -2.143629727    0.932353075
  10  H       1.00   -3.891267344    0.957146282    2.146369830
  11  H       1.00   -4.138783672    0.473773237   -1.161709135
  12  H       1.00   -0.654166493   -4.366665745   -1.400419339
  13  H       1.00   -0.475417298   -1.765155378   -3.519671599
  14  H       1.00    2.239911273   -2.750534169   -1.815327607
  15  H       1.00    3.531482387    1.329611301    2.544724097

 Bond lengths in Bohr (Angstrom)

  1- 2  2.666238902   1- 5  2.699289504   2- 3  2.066818209   2- 4  2.079844613   2-15  2.083680934
       ( 1.410912866)       ( 1.428402491)       ( 1.093713095)       ( 1.100606371)       ( 1.102636465)

  5- 6  2.087276497   5- 7  2.895785336   5- 8  2.882931422   7-12  2.071345966   7-13  2.071020903
       ( 1.104539155)       ( 1.532383608)       ( 1.525581609)       ( 1.096109081)       ( 1.095937065)

  7-14  2.069628032   8- 9  2.070192508   8-10  2.068051501   8-11  2.070880961
       ( 1.095199989)       ( 1.095498697)       ( 1.094365725)       ( 1.095863011)

 Bond angles

  1- 2- 3  106.85884507   1- 2- 4  112.91125973   1- 2-15  111.64621834   1- 5- 6  108.63888518

  1-5-7  111.84608248   1-5-8  106.21369660   2-1-5  114.82992588   3-2-4  108.37425913

  3- 2-15  108.72850466   4- 2-15  108.20064699   5- 7-12  110.57572754   5- 7-13  110.08520206

  5- 7-14  111.89623115   5- 8- 9  110.82645738   5- 8-10  110.42517473   5- 8-11  110.16013005

  6- 5- 7  108.92239636   6- 5- 8  109.02480146   7- 5- 8  112.09364518   9- 8-10  108.73162751

  9- 8-11  108.44218100  10- 8-11  108.18344616  12- 7-13  108.42317703  12- 7-14  107.55382926

 13- 7-14  108.19151953

 NUCLEAR CHARGE:                   42
 NUMBER OF PRIMITIVE AOS:         105
 NUMBER OF SYMMETRY AOS:          105
 NUMBER OF CONTRACTIONS:           35   (  35A   )
 NUMBER OF CORE ORBITALS:           5   (   5A   )
 NUMBER OF VALENCE ORBITALS:       30   (  30A   )


 NUCLEAR REPULSION ENERGY  195.74983609


 Eigenvalues of metric

         1 0.208E+00 0.227E+00 0.234E+00 0.281E+00 0.352E+00 0.360E+00 0.363E+00 0.368E+00


 Contracted 2-electron integrals neglected if value below      1.0D-11
 AO integral compression algorithm  1   Integral accuracy      1.0D-11

     1.573 MB (compressed) written to integral file ( 89.1%)


 NUMBER OF SORTED TWO-ELECTRON INTEGRALS:     198765.     BUFFER LENGTH:  32768
 NUMBER OF SEGMENTS:   1  SEGMENT LENGTH:     198765      RECORD LENGTH: 524288

 Memory used in sort:       0.76 MW

 SORT1 READ      224802. AND WROTE      193897. INTEGRALS IN      1 RECORDS. CPU TIME:     0.01 SEC, REAL TIME:     0.01 SEC
 SORT2 READ      193897. AND WROTE      198765. INTEGRALS IN      6 RECORDS. CPU TIME:     0.02 SEC, REAL TIME:     0.02 SEC

 FILE SIZES:   FILE 1:    31.8 MBYTE,  FILE 4:     4.2 MBYTE,   TOTAL:     36.0 MBYTE

 OPERATOR DM      FOR CENTER  0  COORDINATES:    0.000000    0.000000    0.000000


 **********************************************************************************************************************************
 DATASETS  * FILE   NREC   LENGTH (MB)   RECORD NAMES
              1      19       31.10       500      610      700      900      950      970     1000      129      960     1100   
                                          VAR    BASINP    GEOM    SYMINP    ZMAT    AOBASIS   BASIS     P2S    ABASIS      S 
                                         1400     1410     1200     1210     1080     1600     1650     1300     1700   
                                           T        V       H0       H01     AOSYM     SMH    MOLCAS    ERIS     OPER   

 PROGRAMS   *        TOTAL       INT
 CPU TIMES  *         0.73      0.59
 REAL TIME  *         1.11 SEC
 DISK USED  *        36.55 MB      
 **********************************************************************************************************************************

 Density functional group PBE0MOL=PBEX+PW91C
 Functional: PBEX(Automatically generated (new) PBEX)                          Gradient terms: 1
 Functional: PW91C(Automatically generated (new) PW91C)                        Gradient terms: 1
 Use grid at  1800.2


 Exact exchange will be calculated, factor:  0.2500

 Functional: PBEX                      Factor:  0.7500
 Functional: PW91C                     Factor:  1.0000

 Generated new metagrid on record  1800.2 with target accuracy 1.0D-06 and 52852 points in CPU time    1.3
 Computed new grid on record 1800.1 in CPU time    1.4
   32369 words reserved for DFT integration

 PROGRAM * UKS-SCF (Unrestricted Kohn-Sham)     Authors: W. Meyer, H.-J. Werner, P.J. Knowles, 1993

 NUMBER OF ELECTRONS:      21+   21-    SPACE SYMMETRY=1    SPIN SYMMETRY: Singlet 
 CONVERGENCE THRESHOLDS:    1.00E-05 (Density)    1.00E-06 (Energy)
 MAX. NUMBER OF ITERATIONS:       60
 INTERPOLATION TYPE:            DIIS
 INTERPOLATION STEPS:              2 (START)      1 (STEP)
 LEVEL SHIFTS:                 -0.20 (ALPHA)  -0.20 (BETA) 



 Use fine grid record 1800.2 for energy threshold  1.0D-06
 Orbital guess generated from atomic densities. Full valence occupancy:   21

 Molecular orbital dump at record        2200.2

 Initial alpha occupation  21
 Initial beta  occupation  21

 ITERATION    DDIFF          GRAD             ENERGY        2-EL.EN.            DIPOLE MOMENTS         DIIS
    1      0.000D+00      0.000D+00      -230.31699700    614.588792    0.60749   -0.99808    0.32115    0
    2      0.475D-01      0.169D-01      -230.56947699    600.072394    0.10141   -0.28985    0.06209    1
    3      0.439D-02      0.198D-02      -230.57238465    600.871567    0.16609   -0.35842    0.11409    2
    4      0.130D-02      0.417D-03      -230.57260691    600.830918    0.16974   -0.36211    0.12065    3
    5      0.473D-03      0.136D-03      -230.57263299    600.821019    0.17281   -0.36451    0.12267    4
    6      0.179D-03      0.339D-04      -230.57263546    600.821360    0.17275   -0.36317    0.12194    5
    7      0.458D-04      0.111D-04      -230.57263563    600.821884    0.17303   -0.36369    0.12210    5
    8      0.118D-04      0.332D-05      -230.57263565    600.821176    0.17295   -0.36347    0.12204    6
    9      0.258D-05      0.531D-06      -230.57263565    600.821384    0.17295   -0.36348    0.12204    6
   10      0.528D-06      0.137D-06      -230.57263565    600.821295    0.17295   -0.36348    0.12204    6

 Final alpha occupancy:  21
 Final beta  occupancy:  21

 !UKS STATE 1.1 Energy               -230.572635646948
 Nuclear energy                       195.74983609
 One-electron energy                 -700.95160318
 Two-electron energy                  300.41064735
 Density functional                   -25.78151591     PBEX=-32.38713174 PW91C= -1.49116710
 Virial quotient                       -1.01544385
 !UKS STATE 1.1 Dipole moment           0.17294689    -0.36347986     0.12204032
 Dipole moment /Debye                   0.43955837    -0.92381314     0.31017523

 Orbital energies for positive spin:

         1.1          2.1          3.1          4.1          5.1          6.1          7.1          8.1          9.1         10.1
    -18.943360   -10.106664   -10.091546   -10.048672   -10.046416    -0.990206    -0.760993    -0.675321    -0.650318    -0.552298

        11.1         12.1         13.1         14.1         15.1         16.1         17.1         18.1         19.1         20.1
     -0.457630    -0.434749    -0.418236    -0.397056    -0.371660    -0.363765    -0.345460    -0.321349    -0.310612    -0.210777

        21.1         22.1         23.1
     -0.141302     0.305228     0.382367

 Orbital energies for negative spin:

         1.1          2.1          3.1          4.1          5.1          6.1          7.1          8.1          9.1         10.1
    -18.943360   -10.106664   -10.091546   -10.048672   -10.046416    -0.990206    -0.760993    -0.675321    -0.650318    -0.552298

        11.1         12.1         13.1         14.1         15.1         16.1         17.1         18.1         19.1         20.1
     -0.457630    -0.434749    -0.418236    -0.397056    -0.371660    -0.363765    -0.345460    -0.321349    -0.310612    -0.210777

        21.1         22.1         23.1
     -0.141302     0.305228     0.382367

 HOMO     21.1    -0.141302 =      -3.8450eV
 LUMO     22.1     0.305228 =       8.3057eV
 LUMO-HOMO         0.446530 =      12.1507eV

 EXPECTATION VALUE OF S**2:            -0.00000000

 Natural orbitals saved to record    2200.2 (Orbital set 3)

 Orbital spaces for UNO-CAS (Min. occupation: 0.020  Max. occupation: 1.980):

 Closed:       21
 Active:        0


 **********************************************************************************************************************************
 DATASETS  * FILE   NREC   LENGTH (MB)   RECORD NAMES
              1      20       32.79       500      610      700      900      950      970     1000      129      960     1100   
                                          VAR    BASINP    GEOM    SYMINP    ZMAT    AOBASIS   BASIS     P2S    ABASIS      S 
                                         1400     1410     1200     1210     1080     1600     1650     1300     1700     1800   
                                           T        V       H0       H01     AOSYM     SMH    MOLCAS    ERIS     OPER     GRID   

              2       5        3.05       700     1000      520     1800     2200   
                                         GEOM     BASIS   MCVARS    GRID      UKS  

 PROGRAMS   *        TOTAL       UKS       INT
 CPU TIMES  *         6.19      5.46      0.59
 REAL TIME  *         6.94 SEC
 DISK USED  *        36.55 MB      
 **********************************************************************************************************************************


 PROGRAM * Intrinsic Basis Bonding Analysis (IBBA)          Author: G. Knizia

 Molecular orbitals read from record     2200.2  Type=UKS/ALPHA (state 1.1)
 Fock matrix read from record            2200.2  Type=UKS/TOTAL (state 1.1)
 Orbital energies read from record       2200.2  Type=UKS/ALPHA (state 1.1)
 Density matrix read from record         2200.2  Type=UKS/CHARGE (state 1.1)

 Number of core orbitals:           5 (   5 )
 Number of closed-shell orbitals:  16 (  16 )

 Basis set MINAO-AUTO-PP generated.      Number of basis functions:   35 

 Polarized AO type:                A = (O Ot + (1-O)(1-Ot)) P12
 Orthogonalization method:         Symmetric (Loewdin)
 Localization functional:          L = sum[A,i] <i|n_A|i>^4 -> max

 Localization group 1:  21 orbitals, occupancy  2.000
 Iterative localization: IB/PM,    7 iter; Final gradient 0.15E-08

 Bond order analysis:       [THRPRINT= 0.020]

   CEN ATOM   CEN ATOM     WIBERG.BO      RENORM.BO
     1   O  -   2   C       1.018817       1.016263
     1   O  -   5   C       0.987944       0.978033
     1   O  -   4   H       0.029474       0.017457
     1   O  -  15   H       0.027797       0.016578
     1   O  -   7   C       0.027108       0.014256
     1   O  -   6   H       0.021421       0.012923

     2   C  -   1   O       1.018817       1.016263
     2   C  -   3   H       0.955665       0.975436
     2   C  -  15   H       0.954704       0.949152
     2   C  -   4   H       0.954041       0.947179

     3   H  -   2   C       0.955665       0.975436

     4   H  -   2   C       0.954041       0.947179
     4   H  -   1   O       0.029474       0.017457

     5   C  -   8   C       1.003776       0.996870
     5   C  -   7   C       0.997369       0.971571
     5   C  -   1   O       0.987944       0.978033
     5   C  -   6   H       0.936007       0.932799

     6   H  -   5   C       0.936007       0.932799
     6   H  -   1   O       0.021421       0.012923

     7   C  -   5   C       0.997369       0.971571
     7   C  -  14   H       0.964984       0.987414
     7   C  -  12   H       0.964333       0.990598
     7   C  -  13   H       0.963821       0.986460
     7   C  -   1   O       0.027108       0.014256

     8   C  -   5   C       1.003776       0.996870
     8   C  -   9   H       0.965273       0.990946
     8   C  -  11   H       0.962796       0.986440
     8   C  -  10   H       0.962651       0.988233

     9   H  -   8   C       0.965273       0.990946

    10   H  -   8   C       0.962651       0.988233

    11   H  -   8   C       0.962796       0.986440

    12   H  -   7   C       0.964333       0.990598

    13   H  -   7   C       0.963821       0.986460

    14   H  -   7   C       0.964984       0.987414

    15   H  -   2   C       0.954704       0.949152
    15   H  -   1   O       0.027797       0.016578


 Valency analysis:

   CEN ATOM   TOT.VALENCE
     1   O       2.153774
     2   C       3.902902
     3   H       0.979691
     4   H       0.987133
     5   C       3.950826
     6   H       0.987397
     7   C       3.933689
     8   C       3.930990
     9   H       0.981681
    10   H       0.980071
    11   H       0.981096
    12   H       0.981427
    13   H       0.981720
    14   H       0.982851
    15   H       0.986848

 Total charge composition:

   CEN ATOM         s          p       ELECTRONS ->P.CHARGE
     1   O       3.65190    4.57223      8.22412   -0.22412
     2   C       3.00819    3.25773      6.26592   -0.26592
     3   H       0.85749                 0.85749    0.14251
     4   H       0.88657                 0.88657    0.11343
     5   C       2.96495    3.03602      6.00097   -0.00097
     6   H       0.88773                 0.88773    0.11227
     7   C       3.00061    3.40828      6.40889   -0.40889
     8   C       2.99893    3.40050      6.39944   -0.39944
     9   H       0.86465                 0.86465    0.13535
    10   H       0.85883                 0.85883    0.14117
    11   H       0.86251                 0.86251    0.13749
    12   H       0.86372                 0.86372    0.13628
    13   H       0.86480                 0.86480    0.13520
    14   H       0.86905                 0.86905    0.13095
    15   H       0.88532                 0.88532    0.11468

 Total charge composition, AO contributions:

   CEN ATOM SHL      SPHERICAL COMPONENTS
     1   O  1s       1.99734
     1   O  2s       1.65456
     1   O  2p       1.28434    1.40431    1.88357

     2   C  1s       1.99233
     2   C  2s       1.01586
     2   C  2p       0.90822    1.18650    1.16301

     3   H  1s       0.85749

     4   H  1s       0.88657

     5   C  1s       1.99283
     5   C  2s       0.97212
     5   C  2p       1.03073    0.90093    1.10435

     6   H  1s       0.88773

     7   C  1s       1.99178
     7   C  2s       1.00883
     7   C  2p       1.16205    1.12993    1.11630

     8   C  1s       1.99170
     8   C  2s       1.00723
     8   C  2p       1.05363    1.16989    1.17698

     9   H  1s       0.86465

    10   H  1s       0.85883

    11   H  1s       0.86251

    12   H  1s       0.86372

    13   H  1s       0.86480

    14   H  1s       0.86905

    15   H  1s       0.88532

 Summary of localized orbital composition:   [THRPRINT= 0.020]

   ORB  GRP  ORB.ENERGY      CENTERS/CHARGES
     1   1   -18.778023      O  1   2.000
     2   1   -10.007111      C  5   2.000
     3   1    -9.983075      C  2   2.000
     4   1    -9.934829      C  8   2.000
     5   1    -9.933358      C  7   2.000
     6   1    -0.679155      O  1   1.160   C  2   0.831
     7   1    -0.656845      O  1   1.167   C  5   0.815
     8   1    -0.550522      C  5   1.002   C  8   0.983
     9   1    -0.546116      C  5   0.996   C  7   0.996
    10   1    -0.520636      O  1   1.973   (other: 0.027)
    11   1    -0.499542      C  2   1.143   H  3   0.848
    12   1    -0.498959      C  2   1.130   H  4   0.869
    13   1    -0.498497      C  2   1.130   H 15   0.868
    14   1    -0.495263      C  5   1.120   H  6   0.866
    15   1    -0.482625      C  8   1.131   H  9   0.858
    16   1    -0.482260      C  7   1.128   H 14   0.863
    17   1    -0.482029      C  7   1.132   H 12   0.857
    18   1    -0.476946      C  8   1.138   H 10   0.852
    19   1    -0.476299      C  7   1.133   H 13   0.859
    20   1    -0.475174      C  8   1.135   H 11   0.857
    21   1    -0.181138      O  1   1.917   (other: 0.083)

 Localized orbitals saved to record      2200.2  (orbital set 4)


 **********************************************************************************************************************************
 DATASETS  * FILE   NREC   LENGTH (MB)   RECORD NAMES
              1      20       32.79       500      610      700      900      950      970     1000      129      960     1100   
                                          VAR    BASINP    GEOM    SYMINP    ZMAT    AOBASIS   BASIS     P2S    ABASIS      S 
                                         1400     1410     1200     1210     1080     1600     1650     1300     1700     1800   
                                           T        V       H0       H01     AOSYM     SMH    MOLCAS    ERIS     OPER     GRID   

              2       5        3.06       700     1000      520     1800     2200   
                                         GEOM     BASIS   MCVARS    GRID      UKS  

 PROGRAMS   *        TOTAL      IBBA       UKS       INT
 CPU TIMES  *         6.23      0.04      5.46      0.59
 REAL TIME  *         7.07 SEC
 DISK USED  *        36.55 MB      
 **********************************************************************************************************************************
 Molecular orbitals read from record     2200.2  Type=UKS/LOCAL(IBO)  
 Occupation numbers read from record     2200.2  Type=UKS/LOCAL(IBO)  
 Orbital energies read from record       2200.2  Type=UKS/LOCAL(IBO)  
 Redundancy group numbers read from rec  2200.2  Type=UKS/BETA (state 1.1)

 IBBA/STO-3G energy=      0.000000000000

        UKS-SCF 
   -230.57263565
 **********************************************************************************************************************************
 Molpro calculation terminated
