
 Primary working directories    : /tmp/sb13343
 Secondary working directories  : /tmp/sb13343
 Wavefunction directory         : /panfs/panasas01/chem/sb13343/wfu/
 Main file repository           : /tmp/sb13343/

 SHA1      : b4a5b34a9e711420743f49e6833241d17c61fb3c
 NAME      : 2099.9.b4a5b34
 ARCHNAME  : linux/x86_64_openmp
 FC        : /cm/shared/languages/GCC-6.1/bin/gfortran
 BLASLIB   : -lblas
 id        : simonbennie

 Nodes     nprocs
 node32-013    1

 Using customized tuning parameters: mindgm=1; mindgv=20; mindgc=4; mindgr=1; noblas=0; minvec=7
 default implementation of scratch files=df  

 memory,500,m
 geomtyp=xyz
 nosym
 noorient
 geometry={
 O          0.25818        0.93788        0.04074
 C          1.63656        1.04230        0.32330
 H          1.89907        2.10041        0.23555
 H          2.26234        0.47024       -0.37847
 C         -0.29581       -0.36510        0.22961
 H          0.07373       -0.77023        1.18842
 C          0.09996       -1.32219       -0.89979
 C         -1.80707       -0.17660        0.31883
 H         -2.30941       -1.13436        0.49338
 H         -2.05917        0.50650        1.13581
 H         -2.19015        0.25071       -0.61475
 H         -0.34617       -2.31074       -0.74107
 H         -0.25158       -0.93408       -1.86253
 H          1.18531       -1.45552       -0.96063
 H          1.86878        0.70360        1.34661
 }
 basis={ default,svp }
 {uks,CS,direct;wf,42,1,0}
 {ibba,bonds=1}

 Variables initialized (895), CPU time= 0.00 sec
 Commands  initialized (725), CPU time= 0.01 sec, 591 directives.
 Default parameters read. Elapsed time= 0.10 sec

 Checking input...
 Passed
1


                                         ***  PROGRAM SYSTEM MOLPRO  ***
                                       Copyright, TTI GmbH Stuttgart, 2015
                                    Version 2099.9 linked May 26 2017 16:03:21


 **********************************************************************************************************************************
 LABEL *                                                                                 
  64 bit serial version                                                                  DATE: 07-Jun-17          TIME: 21:57:22  
 **********************************************************************************************************************************

 SHA1:             b4a5b34a9e711420743f49e6833241d17c61fb3c
 **********************************************************************************************************************************
 SETTING GEOMTYP        =    XYZ

 Variable memory set to  500000000 words,  buffer space 

 ZSYMEL=NOSYM

 SETTING BASIS          =    SVP


 Recomputing integrals since basis changed


 Using spherical harmonics

 Library entry O      S def2-SVP             selected for orbital group  1
 Library entry O      P def2-SVP             selected for orbital group  1
 Library entry O      D def2-SVP             selected for orbital group  1
 Library entry C      S def2-SVP             selected for orbital group  2
 Library entry C      P def2-SVP             selected for orbital group  2
 Library entry C      D def2-SVP             selected for orbital group  2
 Library entry H      S def2-SVP             selected for orbital group  3
 Library entry H      P def2-SVP             selected for orbital group  3


 PROGRAM * SEWARD (Integral evaluation for generally contracted gaussian basis sets)     Author: Roland Lindh, 1990

 Geometry written to block  1 of record 700


 Point group  C1  



 ATOMIC COORDINATES

 NR  ATOM    CHARGE       X              Y              Z

   1  O       8.00    0.487889491    1.772336338    0.076987442
   2  C       6.00    3.092650186    1.969661540    0.610948456
   3  H       1.00    3.588722191    3.969199649    0.445124989
   4  H       1.00    4.275203001    0.888624813   -0.715204646
   5  C       6.00   -0.558999885   -0.689939008    0.433900015
   6  H       1.00    0.139329507   -1.455523753    2.245788321
   7  C       6.00    0.188897023   -2.498576985   -1.700356670
   8  C       6.00   -3.414867388   -0.333725634    0.602501380
   9  H       1.00   -4.364152409   -2.143629727    0.932353075
  10  H       1.00   -3.891267344    0.957146282    2.146369830
  11  H       1.00   -4.138783672    0.473773237   -1.161709135
  12  H       1.00   -0.654166493   -4.366665745   -1.400419339
  13  H       1.00   -0.475417298   -1.765155378   -3.519671599
  14  H       1.00    2.239911273   -2.750534169   -1.815327607
  15  H       1.00    3.531482387    1.329611301    2.544724097

 Bond lengths in Bohr (Angstrom)

  1- 2  2.666238902   1- 5  2.699289504   2- 3  2.066818209   2- 4  2.079844613   2-15  2.083680934
       ( 1.410912866)       ( 1.428402491)       ( 1.093713095)       ( 1.100606371)       ( 1.102636465)

  5- 6  2.087276497   5- 7  2.895785336   5- 8  2.882931422   7-12  2.071345966   7-13  2.071020903
       ( 1.104539155)       ( 1.532383608)       ( 1.525581609)       ( 1.096109081)       ( 1.095937065)

  7-14  2.069628032   8- 9  2.070192508   8-10  2.068051501   8-11  2.070880961
       ( 1.095199989)       ( 1.095498697)       ( 1.094365725)       ( 1.095863011)

 Bond angles

  1- 2- 3  106.85884507   1- 2- 4  112.91125973   1- 2-15  111.64621834   1- 5- 6  108.63888518

  1-5-7  111.84608248   1-5-8  106.21369660   2-1-5  114.82992588   3-2-4  108.37425913

  3- 2-15  108.72850466   4- 2-15  108.20064699   5- 7-12  110.57572754   5- 7-13  110.08520206

  5- 7-14  111.89623115   5- 8- 9  110.82645738   5- 8-10  110.42517473   5- 8-11  110.16013005

  6- 5- 7  108.92239636   6- 5- 8  109.02480146   7- 5- 8  112.09364518   9- 8-10  108.73162751

  9- 8-11  108.44218100  10- 8-11  108.18344616  12- 7-13  108.42317703  12- 7-14  107.55382926

 13- 7-14  108.19151953

 NUCLEAR CHARGE:                   42
 NUMBER OF PRIMITIVE AOS:         195
 NUMBER OF SYMMETRY AOS:          190
 NUMBER OF CONTRACTIONS:          120   ( 120A   )
 NUMBER OF CORE ORBITALS:           5   (   5A   )
 NUMBER OF VALENCE ORBITALS:       30   (  30A   )


 NUCLEAR REPULSION ENERGY  195.74983609


 Eigenvalues of metric

         1 0.241E-02 0.514E-02 0.104E-01 0.150E-01 0.214E-01 0.243E-01 0.289E-01 0.305E-01


 Contracted 2-electron integrals neglected if value below      1.0D-11
 AO integral compression algorithm  1   Integral accuracy      1.0D-11

     97.518 MB (compressed) written to integral file ( 44.4%)


 NUMBER OF SORTED TWO-ELECTRON INTEGRALS:   26357430.     BUFFER LENGTH:  32768
 NUMBER OF SEGMENTS:   2  SEGMENT LENGTH:   15997996      RECORD LENGTH: 524288

 Memory used in sort:      16.56 MW

 SORT1 READ    27501115. AND WROTE    22923365. INTEGRALS IN     67 RECORDS. CPU TIME:     0.33 SEC, REAL TIME:     0.61 SEC
 SORT2 READ    22923365. AND WROTE    26357430. INTEGRALS IN    372 RECORDS. CPU TIME:     0.57 SEC, REAL TIME:     3.85 SEC

 FILE SIZES:   FILE 1:   128.3 MBYTE,  FILE 4:   281.1 MBYTE,   TOTAL:    409.3 MBYTE

 OPERATOR DM      FOR CENTER  0  COORDINATES:    0.000000    0.000000    0.000000


 **********************************************************************************************************************************
 DATASETS  * FILE   NREC   LENGTH (MB)   RECORD NAMES
              1      19      116.03       500      610      700      900      950      970     1000      129      960     1100   
                                          VAR    BASINP    GEOM    SYMINP    ZMAT    AOBASIS   BASIS     P2S    ABASIS      S 
                                         1400     1410     1200     1210     1080     1600     1650     1300     1700   
                                           T        V       H0       H01     AOSYM     SMH    MOLCAS    ERIS     OPER   

 PROGRAMS   *        TOTAL       INT
 CPU TIMES  *         3.68      3.54
 REAL TIME  *         8.69 SEC
 DISK USED  *       409.85 MB      
 **********************************************************************************************************************************

 Density functional group CS=CS1
 Functional: CS1(Colle-Salvetti (Gradient form))                               Gradient terms: 1
 Use grid at  1800.2

 Functional: CS1                       Factor:  1.0000

 Generated new metagrid on record  1800.2 with target accuracy 1.0D-06 and 52852 points in CPU time    1.3
 Computed new grid on record 1800.1 in CPU time    1.4
   99539 words reserved for DFT integration

 PROGRAM * UKS-SCF (Unrestricted Kohn-Sham)     Authors: W. Meyer, H.-J. Werner, P.J. Knowles, 1993

 NUMBER OF ELECTRONS:      21+   21-    SPACE SYMMETRY=1    SPIN SYMMETRY: Singlet 
 CONVERGENCE THRESHOLDS:    1.00E-05 (Density)    1.00E-06 (Energy)
 MAX. NUMBER OF ITERATIONS:       60
 INTERPOLATION TYPE:            DIIS
 INTERPOLATION STEPS:              2 (START)      1 (STEP)
 LEVEL SHIFTS:                 -0.20 (ALPHA)  -0.20 (BETA) 



 Use fine grid record 1800.2 for energy threshold  1.0D-06
 Orbital guess generated from atomic densities. Full valence occupancy:   21

 Molecular orbital dump at record        2200.2

 Initial alpha occupation  21
 Initial beta  occupation  21

 ITERATION    DDIFF          GRAD             ENERGY        2-EL.EN.            DIPOLE MOMENTS         DIIS
    1      0.000D+00      0.000D+00      -200.19193071    553.551327    0.36983    4.80122   -0.97704    0
    2      0.145D+00      0.152D-01      -199.50601160    624.120273    0.82501   -2.84330    0.64031    1
    3      0.311D-01      0.211D-01      -201.66255772    592.171028    0.30263   -0.13091    0.02246    2
    4      0.521D-02      0.227D-02      -201.69649508    587.108958    0.23592    0.21689   -0.04555    3
    5      0.410D-02      0.895D-03      -201.70289208    587.906702    0.19164    0.23740   -0.04087    4
    6      0.664D-02      0.284D-03      -201.70628276    587.721867    0.14082    0.17370   -0.01876    5
    7      0.262D-02      0.107D-03      -201.70676111    587.837266    0.12030    0.18089   -0.02682    6
    8      0.908D-03      0.736D-04      -201.70684672    587.866308    0.11348    0.15964   -0.02038    7
    9      0.452D-03      0.285D-04      -201.70686435    587.904936    0.11204    0.15053   -0.01850    8
   10      0.273D-03      0.970D-05      -201.70686830    587.897402    0.10979    0.15030   -0.02070    7
   11      0.112D-03      0.452D-05      -201.70686896    587.901168    0.10993    0.14960   -0.02008    8
   12      0.526D-04      0.243D-05      -201.70686912    587.900807    0.10990    0.14914   -0.02007    9
   13      0.324D-04      0.918D-06      -201.70686916    587.901151    0.10996    0.14914   -0.02033    9
   14      0.155D-04      0.439D-06      -201.70686917    587.900687    0.11003    0.14912   -0.02023    9
   15      0.325D-05      0.192D-06      -201.70686917    587.900438    0.11004    0.14911   -0.02025    9
   16      0.123D-05      0.143D-06      -201.70686917    587.900794    0.11003    0.14910   -0.02025    9

 Final alpha occupancy:  21
 Final beta  occupancy:  21

 !UKS STATE 1.1 Energy               -201.706869171619
 Nuclear energy                       195.74983609
 One-electron energy                 -690.08204913
 Two-electron energy                  293.95039724
 Density functional                    -1.32505337     CS1=-1.32505337
 Virial quotient                       -0.92748916
 !UKS STATE 1.1 Dipole moment           0.11003115     0.14910158    -0.02025169
 Dipole moment /Debye                   0.27965298     0.37895358    -0.05147130

 Orbital energies for positive spin:

         1.1          2.1          3.1          4.1          5.1          6.1          7.1          8.1          9.1         10.1
    -16.600561    -8.235266    -8.225383    -8.196103    -8.193874    -0.592384    -0.385888    -0.302272    -0.276850    -0.206645

        11.1         12.1         13.1         14.1         15.1         16.1         17.1         18.1         19.1         20.1
     -0.167191    -0.135780    -0.129467    -0.096700    -0.064242    -0.055761    -0.042717    -0.021518    -0.011050     0.031516

        21.1         22.1         23.1
      0.081699     0.190216     0.213097

 Orbital energies for negative spin:

         1.1          2.1          3.1          4.1          5.1          6.1          7.1          8.1          9.1         10.1
    -16.600561    -8.235266    -8.225383    -8.196103    -8.193874    -0.592384    -0.385888    -0.302272    -0.276850    -0.206645

        11.1         12.1         13.1         14.1         15.1         16.1         17.1         18.1         19.1         20.1
     -0.167191    -0.135780    -0.129467    -0.096700    -0.064242    -0.055761    -0.042717    -0.021518    -0.011050     0.031516

        21.1         22.1         23.1
      0.081699     0.190216     0.213097

 HOMO     21.1     0.081699 =       2.2231eV
 LUMO     22.1     0.190216 =       5.1760eV
 LUMO-HOMO         0.108516 =       2.9529eV

 EXPECTATION VALUE OF S**2:             0.00000000

 Natural orbitals saved to record    2200.2 (Orbital set 3)

 Orbital spaces for UNO-CAS (Min. occupation: 0.020  Max. occupation: 1.980):

 Closed:       21
 Active:        0


 **********************************************************************************************************************************
 DATASETS  * FILE   NREC   LENGTH (MB)   RECORD NAMES
              1      20      117.72       500      610      700      900      950      970     1000      129      960     1100   
                                          VAR    BASINP    GEOM    SYMINP    ZMAT    AOBASIS   BASIS     P2S    ABASIS      S 
                                         1400     1410     1200     1210     1080     1600     1650     1300     1700     1800   
                                           T        V       H0       H01     AOSYM     SMH    MOLCAS    ERIS     OPER     GRID   

              2       5        3.59       700     1000      520     1800     2200   
                                         GEOM     BASIS   MCVARS    GRID      UKS  

 PROGRAMS   *        TOTAL       UKS       INT
 CPU TIMES  *        57.95     54.27      3.54
 REAL TIME  *        63.81 SEC
 DISK USED  *       409.85 MB      
 **********************************************************************************************************************************


 PROGRAM * Intrinsic Basis Bonding Analysis (IBBA)          Author: G. Knizia

 Molecular orbitals read from record     2200.2  Type=UKS/ALPHA (state 1.1)
 Fock matrix read from record            2200.2  Type=UKS/TOTAL (state 1.1)
 Orbital energies read from record       2200.2  Type=UKS/ALPHA (state 1.1)
 Density matrix read from record         2200.2  Type=UKS/CHARGE (state 1.1)

 Number of core orbitals:           5 (   5 )
 Number of closed-shell orbitals:  16 (  16 )

 Basis set MINAO-AUTO-PP generated.      Number of basis functions:   35 

 Polarized AO type:                A = (O Ot + (1-O)(1-Ot)) P12
 Orthogonalization method:         Symmetric (Loewdin)
 Localization functional:          L = sum[A,i] <i|n_A|i>^4 -> max

 Localization group 1:  21 orbitals, occupancy  2.000
 Iterative localization: IB/PM,    7 iter; Final gradient 0.81E-08

 Bond order analysis:       [THRPRINT= 0.020]

   CEN ATOM   CEN ATOM     WIBERG.BO      RENORM.BO
     1   O  -   2   C       1.092284       1.052727
     1   O  -   5   C       1.013846       0.969878
     1   O  -   4   H       0.062705       0.034718
     1   O  -  15   H       0.059341       0.033512
     1   O  -   7   C       0.053909       0.029804
     1   O  -   6   H       0.048115       0.026887
     1   O  -   8   C       0.040548       0.023823
     1   O  -  12   H       0.026581       0.020127
     1   O  -   9   H       0.023267       0.017317

     2   C  -   1   O       1.092284       1.052727
     2   C  -   3   H       0.959891       0.961735
     2   C  -   4   H       0.918355       0.871434
     2   C  -  15   H       0.912942       0.864337

     3   H  -   2   C       0.959891       0.961735

     4   H  -   2   C       0.918355       0.871434
     4   H  -   1   O       0.062705       0.034718

     5   C  -   8   C       1.016083       1.012671
     5   C  -   1   O       1.013846       0.969878
     5   C  -   7   C       1.006357       0.985173
     5   C  -   6   H       0.859715       0.827085

     6   H  -   5   C       0.859715       0.827085
     6   H  -   1   O       0.048115       0.026887
     6   H  -  13   H       0.030937       0.031765
     6   H  -  11   H       0.030502       0.031335

     7   C  -   5   C       1.006357       0.985173
     7   C  -  12   H       0.948156       0.962711
     7   C  -  14   H       0.947890       0.960147
     7   C  -  13   H       0.942504       0.942146
     7   C  -   1   O       0.053909       0.029804
     7   C  -  10   H       0.022411       0.023046

     8   C  -   5   C       1.016083       1.012671
     8   C  -  10   H       0.953488       0.960493
     8   C  -   9   H       0.953443       0.965741
     8   C  -  11   H       0.943173       0.943466
     8   C  -   1   O       0.040548       0.023823

     9   H  -   8   C       0.953443       0.965741
     9   H  -   1   O       0.023267       0.017317

    10   H  -   8   C       0.953488       0.960493
    10   H  -   7   C       0.022411       0.023046

    11   H  -   8   C       0.943173       0.943466
    11   H  -   6   H       0.030502       0.031335

    12   H  -   7   C       0.948156       0.962711
    12   H  -   1   O       0.026581       0.020127

    13   H  -   7   C       0.942504       0.942146
    13   H  -   6   H       0.030937       0.031765

    14   H  -   7   C       0.947890       0.960147

    15   H  -   2   C       0.912942       0.864337
    15   H  -   1   O       0.059341       0.033512


 Valency analysis:

   CEN ATOM   TOT.VALENCE
     1   O       2.452948
     2   C       3.929672
     3   H       0.997716
     4   H       0.999928
     5   C       3.947264
     6   H       0.999788
     7   C       3.959234
     8   C       3.964447
     9   H       0.997664
    10   H       0.997959
    11   H       0.998356
    12   H       0.997189
    13   H       0.998396
    14   H       0.997415
    15   H       0.999968

 Total charge composition:

   CEN ATOM         s          p       ELECTRONS ->P.CHARGE
     1   O       3.47704    4.61817      8.09521   -0.09521
     2   C       2.89160    3.14099      6.03260   -0.03260
     3   H       0.95221                 0.95221    0.04779
     4   H       0.99150                 0.99150    0.00850
     5   C       2.85881    2.97640      5.83521    0.16479
     6   H       1.01456                 1.01456   -0.01456
     7   C       2.90290    3.29245      6.19535   -0.19535
     8   C       2.90320    3.26380      6.16700   -0.16700
     9   H       0.95166                 0.95166    0.04834
    10   H       0.95482                 0.95482    0.04518
    11   H       0.95945                 0.95945    0.04055
    12   H       0.94698                 0.94698    0.05302
    13   H       0.95996                 0.95996    0.04004
    14   H       0.94916                 0.94916    0.05084
    15   H       0.99432                 0.99432    0.00568

 Total charge composition, AO contributions:

   CEN ATOM SHL      SPHERICAL COMPONENTS
     1   O  1s       1.99898
     1   O  2s       1.47806
     1   O  2p       1.34783    1.48833    1.78201

     2   C  1s       1.99799
     2   C  2s       0.89361
     2   C  2p       0.89126    1.12913    1.12060

     3   H  1s       0.95221

     4   H  1s       0.99150

     5   C  1s       1.99821
     5   C  2s       0.86060
     5   C  2p       1.02860    0.88664    1.06116

     6   H  1s       1.01456

     7   C  1s       1.99783
     7   C  2s       0.90507
     7   C  2p       1.11529    1.09816    1.07900

     8   C  1s       1.99779
     8   C  2s       0.90541
     8   C  2p       1.05023    1.10423    1.10934

     9   H  1s       0.95166

    10   H  1s       0.95482

    11   H  1s       0.95945

    12   H  1s       0.94698

    13   H  1s       0.95996

    14   H  1s       0.94916

    15   H  1s       0.99432

 Summary of localized orbital composition:   [THRPRINT= 0.020]

   ORB  GRP  ORB.ENERGY      CENTERS/CHARGES
     1   1   -16.514570      O  1   2.000
     2   1    -8.160080      C  2   2.000
     3   1    -8.154420      C  5   2.000
     4   1    -8.116995      C  7   2.000
     5   1    -8.114105      C  8   2.000
     6   1    -0.396478      O  1   1.173   C  2   0.815
     7   1    -0.376477      O  1   1.199   C  5   0.775   (other: 0.027)
     8   1    -0.220714      C  7   1.020   C  5   0.963
     9   1    -0.220653      C  8   1.005   C  5   0.975   (other: 0.020)
    10   1    -0.155836      C  2   1.050   H  3   0.939
    11   1    -0.155560      C  2   1.042   H  4   0.952
    12   1    -0.155224      C  2   1.036   H 15   0.955
    13   1    -0.153915      C  5   0.979   H  6   0.972   (other: 0.048)
    14   1    -0.143431      C  7   1.036   H 13   0.942   (other: 0.022)
    15   1    -0.143128      C  7   1.044   H 12   0.931   (other: 0.026)
    16   1    -0.142716      C  7   1.045   H 14   0.932   (other: 0.022)
    17   1    -0.141277      C  8   1.037   H 11   0.941   (other: 0.021)
    18   1    -0.140637      C  8   1.041   H  9   0.937   (other: 0.022)
    19   1    -0.138785      C  8   1.041   H 10   0.940
    20   1    -0.102302      O  1   1.910   (other: 0.090)
    21   1     0.020914      O  1   1.803   C  2   0.048   C  5   0.044   H 15   0.028   H  4   0.023   C  7   0.021   (other: 0.034)

 Localized orbitals saved to record      2200.2  (orbital set 4)


 **********************************************************************************************************************************
 DATASETS  * FILE   NREC   LENGTH (MB)   RECORD NAMES
              1      20      117.72       500      610      700      900      950      970     1000      129      960     1100   
                                          VAR    BASINP    GEOM    SYMINP    ZMAT    AOBASIS   BASIS     P2S    ABASIS      S 
                                         1400     1410     1200     1210     1080     1600     1650     1300     1700     1800   
                                           T        V       H0       H01     AOSYM     SMH    MOLCAS    ERIS     OPER     GRID   

              2       5        3.71       700     1000      520     1800     2200   
                                         GEOM     BASIS   MCVARS    GRID      UKS  

 PROGRAMS   *        TOTAL      IBBA       UKS       INT
 CPU TIMES  *        58.00      0.04     54.27      3.54
 REAL TIME  *        63.95 SEC
 DISK USED  *       409.85 MB      
 **********************************************************************************************************************************
 Molecular orbitals read from record     2200.2  Type=UKS/LOCAL(IBO)  
 Occupation numbers read from record     2200.2  Type=UKS/LOCAL(IBO)  
 Orbital energies read from record       2200.2  Type=UKS/LOCAL(IBO)  
 Redundancy group numbers read from rec  2200.2  Type=UKS/BETA (state 1.1)

 IBBA/SVP energy=      0.000000000000

        UKS-SCF 
   -201.70686917
 **********************************************************************************************************************************
 Molpro calculation terminated
