
 Primary working directories    : /tmp/sb13343
 Secondary working directories  : /tmp/sb13343
 Wavefunction directory         : /panfs/panasas01/chem/sb13343/wfu/
 Main file repository           : /tmp/sb13343/

 SHA1      : b4a5b34a9e711420743f49e6833241d17c61fb3c
 NAME      : 2099.9.b4a5b34
 ARCHNAME  : linux/x86_64_openmp
 FC        : /cm/shared/languages/GCC-6.1/bin/gfortran
 BLASLIB   : -lblas
 id        : simonbennie

 Nodes     nprocs
 node32-012    1

 Using customized tuning parameters: mindgm=1; mindgv=20; mindgc=4; mindgr=1; noblas=0; minvec=7
 default implementation of scratch files=df  

 memory,500,m
 geomtyp=xyz
 nosym
 noorient
 geometry={
 O          0.25818        0.93788        0.04074
 C          1.63656        1.04230        0.32330
 H          1.89907        2.10041        0.23555
 H          2.26234        0.47024       -0.37847
 C         -0.29581       -0.36510        0.22961
 H          0.07373       -0.77023        1.18842
 C          0.09996       -1.32219       -0.89979
 C         -1.80707       -0.17660        0.31883
 H         -2.30941       -1.13436        0.49338
 H         -2.05917        0.50650        1.13581
 H         -2.19015        0.25071       -0.61475
 H         -0.34617       -2.31074       -0.74107
 H         -0.25158       -0.93408       -1.86253
 H          1.18531       -1.45552       -0.96063
 H          1.86878        0.70360        1.34661
 }
 basis={ default,sto-3g }
 {uks,M08-SO,direct;wf,42,1,0}
 {ibba,bonds=1}

 Variables initialized (895), CPU time= 0.00 sec
 Commands  initialized (725), CPU time= 0.02 sec, 591 directives.
 Default parameters read. Elapsed time= 0.09 sec

 Checking input...
 Passed
1


                                         ***  PROGRAM SYSTEM MOLPRO  ***
                                       Copyright, TTI GmbH Stuttgart, 2015
                                    Version 2099.9 linked May 26 2017 16:03:21


 **********************************************************************************************************************************
 LABEL *                                                                                 
  64 bit serial version                                                                  DATE: 07-Jun-17          TIME: 21:51:28  
 **********************************************************************************************************************************

 SHA1:             b4a5b34a9e711420743f49e6833241d17c61fb3c
 **********************************************************************************************************************************
 SETTING GEOMTYP        =    XYZ

 Variable memory set to  500000000 words,  buffer space 

 ZSYMEL=NOSYM

 SETTING BASIS          =    STO-3G


 Recomputing integrals since basis changed


 Using spherical harmonics

 Library entry O      S STO-3G               selected for orbital group  1
 Library entry O      P STO-3G               selected for orbital group  1
 Library entry C      S STO-3G               selected for orbital group  2
 Library entry C      P STO-3G               selected for orbital group  2
 Library entry H      S STO-3G               selected for orbital group  3


 PROGRAM * SEWARD (Integral evaluation for generally contracted gaussian basis sets)     Author: Roland Lindh, 1990

 Geometry written to block  1 of record 700


 Point group  C1  



 ATOMIC COORDINATES

 NR  ATOM    CHARGE       X              Y              Z

   1  O       8.00    0.487889491    1.772336338    0.076987442
   2  C       6.00    3.092650186    1.969661540    0.610948456
   3  H       1.00    3.588722191    3.969199649    0.445124989
   4  H       1.00    4.275203001    0.888624813   -0.715204646
   5  C       6.00   -0.558999885   -0.689939008    0.433900015
   6  H       1.00    0.139329507   -1.455523753    2.245788321
   7  C       6.00    0.188897023   -2.498576985   -1.700356670
   8  C       6.00   -3.414867388   -0.333725634    0.602501380
   9  H       1.00   -4.364152409   -2.143629727    0.932353075
  10  H       1.00   -3.891267344    0.957146282    2.146369830
  11  H       1.00   -4.138783672    0.473773237   -1.161709135
  12  H       1.00   -0.654166493   -4.366665745   -1.400419339
  13  H       1.00   -0.475417298   -1.765155378   -3.519671599
  14  H       1.00    2.239911273   -2.750534169   -1.815327607
  15  H       1.00    3.531482387    1.329611301    2.544724097

 Bond lengths in Bohr (Angstrom)

  1- 2  2.666238902   1- 5  2.699289504   2- 3  2.066818209   2- 4  2.079844613   2-15  2.083680934
       ( 1.410912866)       ( 1.428402491)       ( 1.093713095)       ( 1.100606371)       ( 1.102636465)

  5- 6  2.087276497   5- 7  2.895785336   5- 8  2.882931422   7-12  2.071345966   7-13  2.071020903
       ( 1.104539155)       ( 1.532383608)       ( 1.525581609)       ( 1.096109081)       ( 1.095937065)

  7-14  2.069628032   8- 9  2.070192508   8-10  2.068051501   8-11  2.070880961
       ( 1.095199989)       ( 1.095498697)       ( 1.094365725)       ( 1.095863011)

 Bond angles

  1- 2- 3  106.85884507   1- 2- 4  112.91125973   1- 2-15  111.64621834   1- 5- 6  108.63888518

  1-5-7  111.84608248   1-5-8  106.21369660   2-1-5  114.82992588   3-2-4  108.37425913

  3- 2-15  108.72850466   4- 2-15  108.20064699   5- 7-12  110.57572754   5- 7-13  110.08520206

  5- 7-14  111.89623115   5- 8- 9  110.82645738   5- 8-10  110.42517473   5- 8-11  110.16013005

  6- 5- 7  108.92239636   6- 5- 8  109.02480146   7- 5- 8  112.09364518   9- 8-10  108.73162751

  9- 8-11  108.44218100  10- 8-11  108.18344616  12- 7-13  108.42317703  12- 7-14  107.55382926

 13- 7-14  108.19151953

 NUCLEAR CHARGE:                   42
 NUMBER OF PRIMITIVE AOS:         105
 NUMBER OF SYMMETRY AOS:          105
 NUMBER OF CONTRACTIONS:           35   (  35A   )
 NUMBER OF CORE ORBITALS:           5   (   5A   )
 NUMBER OF VALENCE ORBITALS:       30   (  30A   )


 NUCLEAR REPULSION ENERGY  195.74983609


 Eigenvalues of metric

         1 0.208E+00 0.227E+00 0.234E+00 0.281E+00 0.352E+00 0.360E+00 0.363E+00 0.368E+00


 Contracted 2-electron integrals neglected if value below      1.0D-11
 AO integral compression algorithm  1   Integral accuracy      1.0D-11

     1.573 MB (compressed) written to integral file ( 89.1%)


 NUMBER OF SORTED TWO-ELECTRON INTEGRALS:     198765.     BUFFER LENGTH:  32768
 NUMBER OF SEGMENTS:   1  SEGMENT LENGTH:     198765      RECORD LENGTH: 524288

 Memory used in sort:       0.76 MW

 SORT1 READ      224802. AND WROTE      193897. INTEGRALS IN      1 RECORDS. CPU TIME:     0.01 SEC, REAL TIME:     0.01 SEC
 SORT2 READ      193897. AND WROTE      198765. INTEGRALS IN      6 RECORDS. CPU TIME:     0.01 SEC, REAL TIME:     0.02 SEC

 FILE SIZES:   FILE 1:    31.8 MBYTE,  FILE 4:     4.2 MBYTE,   TOTAL:     36.0 MBYTE

 OPERATOR DM      FOR CENTER  0  COORDINATES:    0.000000    0.000000    0.000000


 **********************************************************************************************************************************
 DATASETS  * FILE   NREC   LENGTH (MB)   RECORD NAMES
              1      19       31.10       500      610      700      900      950      970     1000      129      960     1100   
                                          VAR    BASINP    GEOM    SYMINP    ZMAT    AOBASIS   BASIS     P2S    ABASIS      S 
                                         1400     1410     1200     1210     1080     1600     1650     1300     1700   
                                           T        V       H0       H01     AOSYM     SMH    MOLCAS    ERIS     OPER   

 PROGRAMS   *        TOTAL       INT
 CPU TIMES  *         0.59      0.45
 REAL TIME  *         0.98 SEC
 DISK USED  *        36.55 MB      
 **********************************************************************************************************************************

 Density functional group M08-SO=XC-M08-SO
 Functional: XC-M08-SO(via MFM 1.6)                                            Gradient terms: 1
 Use grid at  1800.2


 Exact exchange will be calculated, factor:  0.5679

 Functional: XC-M08-SO                 Factor:  1.0000

 Generated new metagrid on record  1800.2 with target accuracy 1.0D-06 and 52852 points in CPU time    1.3
 Computed new grid on record 1800.1 in CPU time    1.5
   32369 words reserved for DFT integration

 PROGRAM * UKS-SCF (Unrestricted Kohn-Sham)     Authors: W. Meyer, H.-J. Werner, P.J. Knowles, 1993

 NUMBER OF ELECTRONS:      21+   21-    SPACE SYMMETRY=1    SPIN SYMMETRY: Singlet 
 CONVERGENCE THRESHOLDS:    1.00E-05 (Density)    1.00E-06 (Energy)
 MAX. NUMBER OF ITERATIONS:       60
 INTERPOLATION TYPE:            DIIS
 INTERPOLATION STEPS:              2 (START)      1 (STEP)
 LEVEL SHIFTS:                 -0.20 (ALPHA)  -0.20 (BETA) 



 Use fine grid record 1800.2 for energy threshold  1.0D-06
 Orbital guess generated from atomic densities. Full valence occupancy:   21

 Molecular orbital dump at record        2200.2

 Initial alpha occupation  21
 Initial beta  occupation  21

 ITERATION    DDIFF          GRAD             ENERGY        2-EL.EN.            DIPOLE MOMENTS         DIIS
    1      0.000D+00      0.000D+00      -230.26868616    592.539225    0.58921   -1.00107    0.31840    0
    2      0.413D-01      0.160D-01      -230.49680446    580.186059    0.16373   -0.37076    0.08836    1
    3      0.354D-02      0.164D-02      -230.49929790    579.903599    0.18280   -0.37531    0.11695    2
    4      0.171D-02      0.543D-03      -230.49969038    579.837234    0.18887   -0.37774    0.12701    3
    5      0.640D-03      0.162D-03      -230.49973166    579.828688    0.19174   -0.37921    0.12926    4
    6      0.232D-03      0.444D-04      -230.49973599    579.829008    0.19157   -0.37798    0.12833    5
    7      0.689D-04      0.133D-04      -230.49973633    579.828561    0.19170   -0.37822    0.12836    6
    8      0.129D-04      0.278D-05      -230.49973634    579.828747    0.19166   -0.37813    0.12835    6
    9      0.335D-05      0.711D-06      -230.49973634    579.828591    0.19165   -0.37813    0.12835    6
   10      0.361D-06      0.983D-07      -230.49973634    579.828613    0.19165   -0.37813    0.12835    6

 Final alpha occupancy:  21
 Final beta  occupancy:  21

 !UKS STATE 1.1 Energy               -230.499736343415
 Nuclear energy                       195.74983609
 One-electron energy                 -700.84227538
 Two-electron energy                  289.91430665
 Density functional                   -15.32160371     XC-M08-SO=-15.32160371
 Virial quotient                       -1.01552112
 !UKS STATE 1.1 Dipole moment           0.19165050    -0.37813407     0.12835274
 Dipole moment /Debye                   0.48709509    -0.96105799     0.32621877

 Orbital energies for positive spin:

         1.1          2.1          3.1          4.1          5.1          6.1          7.1          8.1          9.1         10.1
    -19.287813   -10.366255   -10.353427   -10.309342   -10.307521    -1.070730    -0.831603    -0.742238    -0.715749    -0.614569

        11.1         12.1         13.1         14.1         15.1         16.1         17.1         18.1         19.1         20.1
     -0.515420    -0.492333    -0.477468    -0.453468    -0.425855    -0.418223    -0.397948    -0.372918    -0.360704    -0.267749

        21.1         22.1         23.1
     -0.205249     0.360159     0.434108

 Orbital energies for negative spin:

         1.1          2.1          3.1          4.1          5.1          6.1          7.1          8.1          9.1         10.1
    -19.287813   -10.366255   -10.353427   -10.309342   -10.307521    -1.070730    -0.831603    -0.742238    -0.715749    -0.614569

        11.1         12.1         13.1         14.1         15.1         16.1         17.1         18.1         19.1         20.1
     -0.515420    -0.492333    -0.477468    -0.453468    -0.425855    -0.418223    -0.397948    -0.372918    -0.360704    -0.267749

        21.1         22.1         23.1
     -0.205249     0.360159     0.434108

 HOMO     21.1    -0.205249 =      -5.5851eV
 LUMO     22.1     0.360159 =       9.8004eV
 LUMO-HOMO         0.565407 =      15.3855eV

 EXPECTATION VALUE OF S**2:             0.00000000

 Natural orbitals saved to record    2200.2 (Orbital set 3)

 Orbital spaces for UNO-CAS (Min. occupation: 0.020  Max. occupation: 1.980):

 Closed:       21
 Active:        0


 **********************************************************************************************************************************
 DATASETS  * FILE   NREC   LENGTH (MB)   RECORD NAMES
              1      20       32.79       500      610      700      900      950      970     1000      129      960     1100   
                                          VAR    BASINP    GEOM    SYMINP    ZMAT    AOBASIS   BASIS     P2S    ABASIS      S 
                                         1400     1410     1200     1210     1080     1600     1650     1300     1700     1800   
                                           T        V       H0       H01     AOSYM     SMH    MOLCAS    ERIS     OPER     GRID   

              2       5        3.05       700     1000      520     1800     2200   
                                         GEOM     BASIS   MCVARS    GRID      UKS  

 PROGRAMS   *        TOTAL       UKS       INT
 CPU TIMES  *        12.32     11.72      0.45
 REAL TIME  *        13.12 SEC
 DISK USED  *        36.55 MB      
 **********************************************************************************************************************************


 PROGRAM * Intrinsic Basis Bonding Analysis (IBBA)          Author: G. Knizia

 Molecular orbitals read from record     2200.2  Type=UKS/ALPHA (state 1.1)
 Fock matrix read from record            2200.2  Type=UKS/TOTAL (state 1.1)
 Orbital energies read from record       2200.2  Type=UKS/ALPHA (state 1.1)
 Density matrix read from record         2200.2  Type=UKS/CHARGE (state 1.1)

 Number of core orbitals:           5 (   5 )
 Number of closed-shell orbitals:  16 (  16 )

 Basis set MINAO-AUTO-PP generated.      Number of basis functions:   35 

 Polarized AO type:                A = (O Ot + (1-O)(1-Ot)) P12
 Orthogonalization method:         Symmetric (Loewdin)
 Localization functional:          L = sum[A,i] <i|n_A|i>^4 -> max

 Localization group 1:  21 orbitals, occupancy  2.000
 Iterative localization: IB/PM,    7 iter; Final gradient 0.14E-08

 Bond order analysis:       [THRPRINT= 0.020]

   CEN ATOM   CEN ATOM     WIBERG.BO      RENORM.BO
     1   O  -   2   C       1.015321       1.014987
     1   O  -   5   C       0.987423       0.980423
     1   O  -   4   H       0.027151       0.016003
     1   O  -  15   H       0.025613       0.015198
     1   O  -   7   C       0.025200       0.013240
     1   O  -   6   H       0.020018       0.012007

     2   C  -   1   O       1.015321       1.014987
     2   C  -  15   H       0.957435       0.953430
     2   C  -   3   H       0.957144       0.976476
     2   C  -   4   H       0.956773       0.951682

     3   H  -   2   C       0.957144       0.976476

     4   H  -   2   C       0.956773       0.951682
     4   H  -   1   O       0.027151       0.016003

     5   C  -   8   C       1.002020       0.996479
     5   C  -   7   C       0.996378       0.973405
     5   C  -   1   O       0.987423       0.980423
     5   C  -   6   H       0.939645       0.937378

     6   H  -   5   C       0.939645       0.937378
     6   H  -   1   O       0.020018       0.012007

     7   C  -   5   C       0.996378       0.973405
     7   C  -  14   H       0.966318       0.988418
     7   C  -  12   H       0.965923       0.991523
     7   C  -  13   H       0.965174       0.987487
     7   C  -   1   O       0.025200       0.013240

     8   C  -   5   C       1.002020       0.996479
     8   C  -   9   H       0.966912       0.991459
     8   C  -  11   H       0.964252       0.987413
     8   C  -  10   H       0.964104       0.988935

     9   H  -   8   C       0.966912       0.991459

    10   H  -   8   C       0.964104       0.988935

    11   H  -   8   C       0.964252       0.987413

    12   H  -   7   C       0.965923       0.991523

    13   H  -   7   C       0.965174       0.987487

    14   H  -   7   C       0.966318       0.988418

    15   H  -   2   C       0.957435       0.953430
    15   H  -   1   O       0.025613       0.015198


 Valency analysis:

   CEN ATOM   TOT.VALENCE
     1   O       2.139323
     2   C       3.905117
     3   H       0.980617
     4   H       0.987623
     5   C       3.950779
     6   H       0.987943
     7   C       3.934114
     8   C       3.931958
     9   H       0.982866
    10   H       0.981281
    11   H       0.982182
    12   H       0.982506
    13   H       0.982731
    14   H       0.983760
    15   H       0.987427

 Total charge composition:

   CEN ATOM         s          p       ELECTRONS ->P.CHARGE
     1   O       3.63780    4.59288      8.23068   -0.23068
     2   C       2.99712    3.25700      6.25413   -0.25413
     3   H       0.86078                 0.86078    0.13922
     4   H       0.88875                 0.88875    0.11125
     5   C       2.95587    3.04042      5.99630    0.00370
     6   H       0.89020                 0.89020    0.10980
     7   C       2.98901    3.40804      6.39705   -0.39705
     8   C       2.98776    3.39881      6.38657   -0.38657
     9   H       0.86910                 0.86910    0.13090
    10   H       0.86318                 0.86318    0.13682
    11   H       0.86652                 0.86652    0.13348
    12   H       0.86774                 0.86774    0.13226
    13   H       0.86859                 0.86859    0.13141
    14   H       0.87256                 0.87256    0.12744
    15   H       0.88787                 0.88787    0.11213

 Total charge composition, AO contributions:

   CEN ATOM SHL      SPHERICAL COMPONENTS
     1   O  1s       1.99734
     1   O  2s       1.64046
     1   O  2p       1.28882    1.41343    1.89064

     2   C  1s       1.99233
     2   C  2s       1.00479
     2   C  2p       0.91023    1.18576    1.16102

     3   H  1s       0.86078

     4   H  1s       0.88875

     5   C  1s       1.99283
     5   C  2s       0.96305
     5   C  2p       1.03296    0.90302    1.10444

     6   H  1s       0.89020

     7   C  1s       1.99179
     7   C  2s       0.99722
     7   C  2p       1.16157    1.13005    1.11642

     8   C  1s       1.99171
     8   C  2s       0.99605
     8   C  2p       1.05449    1.16865    1.17566

     9   H  1s       0.86910

    10   H  1s       0.86318

    11   H  1s       0.86652

    12   H  1s       0.86774

    13   H  1s       0.86859

    14   H  1s       0.87256

    15   H  1s       0.88787

 Summary of localized orbital composition:   [THRPRINT= 0.020]

   ORB  GRP  ORB.ENERGY      CENTERS/CHARGES
     1   1   -19.122054      O  1   2.000
     2   1   -10.265344      C  5   2.000
     3   1   -10.243742      C  2   2.000
     4   1   -10.194201      C  8   2.000
     5   1   -10.193199      C  7   2.000
     6   1    -0.747891      O  1   1.159   C  2   0.832
     7   1    -0.725566      O  1   1.166   C  5   0.817
     8   1    -0.608629      C  5   1.003   C  8   0.982
     9   1    -0.604549      C  5   0.996   C  7   0.995
    10   1    -0.580137      O  1   1.974   (other: 0.026)
    11   1    -0.558174      C  2   1.126   H  4   0.873
    12   1    -0.557558      C  2   1.126   H 15   0.872
    13   1    -0.557463      C  2   1.140   H  3   0.852
    14   1    -0.553953      C  5   1.118   H  6   0.870
    15   1    -0.540867      C  7   1.125   H 14   0.866
    16   1    -0.540138      C  8   1.127   H  9   0.863
    17   1    -0.539993      C  7   1.128   H 12   0.861
    18   1    -0.534365      C  7   1.129   H 13   0.863
    19   1    -0.534048      C  8   1.135   H 10   0.857
    20   1    -0.532669      C  8   1.131   H 11   0.861
    21   1    -0.252036      O  1   1.924   (other: 0.076)

 Localized orbitals saved to record      2200.2  (orbital set 4)


 **********************************************************************************************************************************
 DATASETS  * FILE   NREC   LENGTH (MB)   RECORD NAMES
              1      20       32.79       500      610      700      900      950      970     1000      129      960     1100   
                                          VAR    BASINP    GEOM    SYMINP    ZMAT    AOBASIS   BASIS     P2S    ABASIS      S 
                                         1400     1410     1200     1210     1080     1600     1650     1300     1700     1800   
                                           T        V       H0       H01     AOSYM     SMH    MOLCAS    ERIS     OPER     GRID   

              2       5        3.06       700     1000      520     1800     2200   
                                         GEOM     BASIS   MCVARS    GRID      UKS  

 PROGRAMS   *        TOTAL      IBBA       UKS       INT
 CPU TIMES  *        12.36      0.03     11.72      0.45
 REAL TIME  *        13.26 SEC
 DISK USED  *        36.55 MB      
 **********************************************************************************************************************************
 Molecular orbitals read from record     2200.2  Type=UKS/LOCAL(IBO)  
 Occupation numbers read from record     2200.2  Type=UKS/LOCAL(IBO)  
 Orbital energies read from record       2200.2  Type=UKS/LOCAL(IBO)  
 Redundancy group numbers read from rec  2200.2  Type=UKS/BETA (state 1.1)

 IBBA/STO-3G energy=      0.000000000000

        UKS-SCF 
   -230.49973634
 **********************************************************************************************************************************
 Molpro calculation terminated
