
 Primary working directories    : /tmp/sb13343
 Secondary working directories  : /tmp/sb13343
 Wavefunction directory         : /panfs/panasas01/chem/sb13343/wfu/
 Main file repository           : /tmp/sb13343/

 SHA1      : b4a5b34a9e711420743f49e6833241d17c61fb3c
 NAME      : 2099.9.b4a5b34
 ARCHNAME  : linux/x86_64_openmp
 FC        : /cm/shared/languages/GCC-6.1/bin/gfortran
 BLASLIB   : -lblas
 id        : simonbennie

 Nodes     nprocs
 node32-013    1

 Using customized tuning parameters: mindgm=1; mindgv=20; mindgc=4; mindgr=1; noblas=0; minvec=7
 default implementation of scratch files=df  

 memory,500,m
 geomtyp=xyz
 nosym
 noorient
 geometry={
 O          0.25818        0.93788        0.04074
 C          1.63656        1.04230        0.32330
 H          1.89907        2.10041        0.23555
 H          2.26234        0.47024       -0.37847
 C         -0.29581       -0.36510        0.22961
 H          0.07373       -0.77023        1.18842
 C          0.09996       -1.32219       -0.89979
 C         -1.80707       -0.17660        0.31883
 H         -2.30941       -1.13436        0.49338
 H         -2.05917        0.50650        1.13581
 H         -2.19015        0.25071       -0.61475
 H         -0.34617       -2.31074       -0.74107
 H         -0.25158       -0.93408       -1.86253
 H          1.18531       -1.45552       -0.96063
 H          1.86878        0.70360        1.34661
 }
 basis={ default,sto-3g }
 {ks,B-VWN,direct;wf,42,1,0}
 {ibba,bonds=1}

 Variables initialized (895), CPU time= 0.00 sec
 Commands  initialized (725), CPU time= 0.01 sec, 591 directives.
 Default parameters read. Elapsed time= 2.46 sec

 Checking input...
 Passed
1


                                         ***  PROGRAM SYSTEM MOLPRO  ***
                                       Copyright, TTI GmbH Stuttgart, 2015
                                    Version 2099.9 linked May 26 2017 16:03:21


 **********************************************************************************************************************************
 LABEL *                                                                                 
  64 bit serial version                                                                  DATE: 07-Jun-17          TIME: 21:24:21  
 **********************************************************************************************************************************

 SHA1:             b4a5b34a9e711420743f49e6833241d17c61fb3c
 **********************************************************************************************************************************
 SETTING GEOMTYP        =    XYZ

 Variable memory set to  500000000 words,  buffer space 

 ZSYMEL=NOSYM

 SETTING BASIS          =    STO-3G


 Recomputing integrals since basis changed


 Using spherical harmonics

 Library entry O      S STO-3G               selected for orbital group  1
 Library entry O      P STO-3G               selected for orbital group  1
 Library entry C      S STO-3G               selected for orbital group  2
 Library entry C      P STO-3G               selected for orbital group  2
 Library entry H      S STO-3G               selected for orbital group  3


 PROGRAM * SEWARD (Integral evaluation for generally contracted gaussian basis sets)     Author: Roland Lindh, 1990

 Geometry written to block  1 of record 700


 Point group  C1  



 ATOMIC COORDINATES

 NR  ATOM    CHARGE       X              Y              Z

   1  O       8.00    0.487889491    1.772336338    0.076987442
   2  C       6.00    3.092650186    1.969661540    0.610948456
   3  H       1.00    3.588722191    3.969199649    0.445124989
   4  H       1.00    4.275203001    0.888624813   -0.715204646
   5  C       6.00   -0.558999885   -0.689939008    0.433900015
   6  H       1.00    0.139329507   -1.455523753    2.245788321
   7  C       6.00    0.188897023   -2.498576985   -1.700356670
   8  C       6.00   -3.414867388   -0.333725634    0.602501380
   9  H       1.00   -4.364152409   -2.143629727    0.932353075
  10  H       1.00   -3.891267344    0.957146282    2.146369830
  11  H       1.00   -4.138783672    0.473773237   -1.161709135
  12  H       1.00   -0.654166493   -4.366665745   -1.400419339
  13  H       1.00   -0.475417298   -1.765155378   -3.519671599
  14  H       1.00    2.239911273   -2.750534169   -1.815327607
  15  H       1.00    3.531482387    1.329611301    2.544724097

 Bond lengths in Bohr (Angstrom)

  1- 2  2.666238902   1- 5  2.699289504   2- 3  2.066818209   2- 4  2.079844613   2-15  2.083680934
       ( 1.410912866)       ( 1.428402491)       ( 1.093713095)       ( 1.100606371)       ( 1.102636465)

  5- 6  2.087276497   5- 7  2.895785336   5- 8  2.882931422   7-12  2.071345966   7-13  2.071020903
       ( 1.104539155)       ( 1.532383608)       ( 1.525581609)       ( 1.096109081)       ( 1.095937065)

  7-14  2.069628032   8- 9  2.070192508   8-10  2.068051501   8-11  2.070880961
       ( 1.095199989)       ( 1.095498697)       ( 1.094365725)       ( 1.095863011)

 Bond angles

  1- 2- 3  106.85884507   1- 2- 4  112.91125973   1- 2-15  111.64621834   1- 5- 6  108.63888518

  1-5-7  111.84608248   1-5-8  106.21369660   2-1-5  114.82992588   3-2-4  108.37425913

  3- 2-15  108.72850466   4- 2-15  108.20064699   5- 7-12  110.57572754   5- 7-13  110.08520206

  5- 7-14  111.89623115   5- 8- 9  110.82645738   5- 8-10  110.42517473   5- 8-11  110.16013005

  6- 5- 7  108.92239636   6- 5- 8  109.02480146   7- 5- 8  112.09364518   9- 8-10  108.73162751

  9- 8-11  108.44218100  10- 8-11  108.18344616  12- 7-13  108.42317703  12- 7-14  107.55382926

 13- 7-14  108.19151953

 NUCLEAR CHARGE:                   42
 NUMBER OF PRIMITIVE AOS:         105
 NUMBER OF SYMMETRY AOS:          105
 NUMBER OF CONTRACTIONS:           35   (  35A   )
 NUMBER OF CORE ORBITALS:           5   (   5A   )
 NUMBER OF VALENCE ORBITALS:       30   (  30A   )


 NUCLEAR REPULSION ENERGY  195.74983609


 Eigenvalues of metric

         1 0.208E+00 0.227E+00 0.234E+00 0.281E+00 0.352E+00 0.360E+00 0.363E+00 0.368E+00


 Contracted 2-electron integrals neglected if value below      1.0D-11
 AO integral compression algorithm  1   Integral accuracy      1.0D-11

     1.573 MB (compressed) written to integral file ( 89.1%)


 NUMBER OF SORTED TWO-ELECTRON INTEGRALS:     198765.     BUFFER LENGTH:  32768
 NUMBER OF SEGMENTS:   1  SEGMENT LENGTH:     198765      RECORD LENGTH: 524288

 Memory used in sort:       0.76 MW

 SORT1 READ      224802. AND WROTE      193897. INTEGRALS IN      1 RECORDS. CPU TIME:     0.01 SEC, REAL TIME:     0.01 SEC
 SORT2 READ      193897. AND WROTE      198765. INTEGRALS IN      6 RECORDS. CPU TIME:     0.02 SEC, REAL TIME:     0.02 SEC

 FILE SIZES:   FILE 1:    31.8 MBYTE,  FILE 4:     4.2 MBYTE,   TOTAL:     36.0 MBYTE

 OPERATOR DM      FOR CENTER  0  COORDINATES:    0.000000    0.000000    0.000000


 **********************************************************************************************************************************
 DATASETS  * FILE   NREC   LENGTH (MB)   RECORD NAMES
              1      19       31.10       500      610      700      900      950      970     1000      129      960     1100   
                                          VAR    BASINP    GEOM    SYMINP    ZMAT    AOBASIS   BASIS     P2S    ABASIS      S 
                                         1400     1410     1200     1210     1080     1600     1650     1300     1700   
                                           T        V       H0       H01     AOSYM     SMH    MOLCAS    ERIS     OPER   

 PROGRAMS   *        TOTAL       INT
 CPU TIMES  *         0.73      0.58
 REAL TIME  *         3.56 SEC
 DISK USED  *        36.55 MB      
 **********************************************************************************************************************************

 Density functional group B-VWN=B88+VWN5
 Functional: B88(Automatically generated (new) B88)                            Gradient terms: 1
 Functional: VWN5(Automatically generated (new) VWN5)                          Gradient terms: 0
 Use grid at  1800.2

 Functional: B88                       Factor:  1.0000
 Functional: VWN5                      Factor:  1.0000

 Generated new metagrid on record  1800.2 with target accuracy 1.0D-06 and 52852 points in CPU time    1.3
 Computed new grid on record 1800.1 in CPU time    1.5
   32369 words reserved for DFT integration

 PROGRAM * RKS-SCF (Restricted closed shell Kohn-Sham)     Authors: W. Meyer, H.-J. Werner, P.J. Knowles, 1993

 NUMBER OF ELECTRONS:      21+   21-    SPACE SYMMETRY=1    SPIN SYMMETRY: Singlet 
 CONVERGENCE THRESHOLDS:    1.00E-05 (Density)    1.00E-06 (Energy)
 MAX. NUMBER OF ITERATIONS:       60
 INTERPOLATION TYPE:            DIIS
 INTERPOLATION STEPS:              2 (START)      1 (STEP)
 LEVEL SHIFTS:                  0.00 (CLOSED)  0.00 (OPEN) 



 Use fine grid record 1800.2 for energy threshold  1.0D-06
 Orbital guess generated from atomic densities. Full valence occupancy:   21

 Molecular orbital dump at record        2100.2

 Initial occupancy:  21

 ITERATION    DDIFF          GRAD             ENERGY        2-EL.EN.            DIPOLE MOMENTS         DIIS   ORB.
    1      0.000D+00      0.000D+00      -231.57415012    631.828403    0.61490   -0.97481    0.31606    0    start
    2      0.000D+00      0.265D-01      -231.52192176    601.905601   -0.88085    0.52895   -0.36897    1    diag
    3      0.101D+00      0.296D-01      -231.86110076    616.359064    0.28812   -0.47188    0.19471    2    diag
    4      0.555D-01      0.462D-02      -231.86796992    616.703040    0.14133   -0.28559    0.10882    3    diag
    5      0.922D-02      0.140D-02      -231.86862749    616.644754    0.14071   -0.33272    0.10662    4    diag
    6      0.225D-02      0.215D-03      -231.86864524    616.639917    0.14691   -0.32812    0.11103    5    diag
    7      0.449D-03      0.507D-04      -231.86864625    616.642255    0.14854   -0.33026    0.11274    6    diag
    8      0.943D-04      0.454D-05      -231.86864626    616.642789    0.14858   -0.33014    0.11249    7    diag
    9      0.110D-04      0.179D-05      -231.86864626    616.642728    0.14856   -0.33010    0.11248    8    diag
   10      0.325D-05      0.202D-06      -231.86864626    616.642820    0.14857   -0.33013    0.11250    0    orth

 Final occupancy:  21

 !RKS STATE 1.1 Energy               -231.868646261124
 Nuclear energy                       195.74983609
 One-electron energy                 -700.71208374
 Two-electron energy                  308.32140980
 Density functional                   -35.22780842     B88=-32.56359149 VWN5= -2.66421693
 Virial quotient                       -1.02161699
 !RKS STATE 1.1 Dipole moment           0.14856583    -0.33012739     0.11249884
 Dipole moment /Debye                   0.37759194    -0.83904518     0.28592480

 Orbital energies:

         1.1          2.1          3.1          4.1          5.1          6.1          7.1          8.1          9.1         10.1
    -18.576293    -9.848761    -9.835721    -9.794193    -9.790615    -0.890117    -0.681762    -0.604875    -0.582942    -0.493134

        11.1         12.1         13.1         14.1         15.1         16.1         17.1         18.1         19.1         20.1
     -0.409325    -0.387870    -0.371162    -0.354625    -0.331984    -0.325114    -0.308476    -0.285854    -0.276669    -0.165050

        21.1         22.1         23.1
     -0.093841     0.221843     0.295852

 HOMO     21.1    -0.093841 =      -2.5536eV
 LUMO     22.1     0.221843 =       6.0367eV
 LUMO-HOMO         0.315685 =       8.5902eV


 **********************************************************************************************************************************
 DATASETS  * FILE   NREC   LENGTH (MB)   RECORD NAMES
              1      20       32.79       500      610      700      900      950      970     1000      129      960     1100   
                                          VAR    BASINP    GEOM    SYMINP    ZMAT    AOBASIS   BASIS     P2S    ABASIS      S 
                                         1400     1410     1200     1210     1080     1600     1650     1300     1700     1800   
                                           T        V       H0       H01     AOSYM     SMH    MOLCAS    ERIS     OPER     GRID   

              2       5        3.02       700     1000      520     1800     2100   
                                         GEOM     BASIS   MCVARS    GRID      RKS  

 PROGRAMS   *        TOTAL        KS       INT
 CPU TIMES  *         5.04      4.31      0.58
 REAL TIME  *         8.73 SEC
 DISK USED  *        36.55 MB      
 **********************************************************************************************************************************


 PROGRAM * Intrinsic Basis Bonding Analysis (IBBA)          Author: G. Knizia

 Molecular orbitals read from record     2100.2  Type=RKS/CANONICAL (state 1.1)
 Fock matrix read from record            2100.2  Type=RKS/TOTAL (state 1.1)
 Orbital energies read from record       2100.2  Type=RKS/CANONICAL (state 1.1)
 Density matrix read from record         2100.2  Type=RKS/CHARGE (state 1.1)

 Number of core orbitals:           5 (   5 )
 Number of closed-shell orbitals:  16 (  16 )

 Basis set MINAO-AUTO-PP generated.      Number of basis functions:   35 

 Polarized AO type:                A = (O Ot + (1-O)(1-Ot)) P12
 Orthogonalization method:         Symmetric (Loewdin)
 Localization functional:          L = sum[A,i] <i|n_A|i>^4 -> max

 Localization group 1:  21 orbitals, occupancy  2.000
 Iterative localization: IB/PM,    7 iter; Final gradient 0.55E-08

 Bond order analysis:       [THRPRINT= 0.020]

   CEN ATOM   CEN ATOM     WIBERG.BO      RENORM.BO
     1   O  -   2   C       1.024613       1.019914
     1   O  -   5   C       0.991691       0.979679
     1   O  -   4   H       0.033999       0.020091
     1   O  -  15   H       0.032095       0.019075
     1   O  -   7   C       0.031251       0.016455
     1   O  -   6   H       0.024541       0.014752

     2   C  -   1   O       1.024613       1.019914
     2   C  -   3   H       0.955906       0.972540
     2   C  -  15   H       0.951862       0.940706
     2   C  -   4   H       0.950963       0.938393

     3   H  -   2   C       0.955906       0.972540

     4   H  -   2   C       0.950963       0.938393
     4   H  -   1   O       0.033999       0.020091

     5   C  -   8   C       1.003317       0.995320
     5   C  -   7   C       0.994728       0.965257
     5   C  -   1   O       0.991691       0.979679
     5   C  -   6   H       0.933297       0.925904

     6   H  -   5   C       0.933297       0.925904
     6   H  -   1   O       0.024541       0.014752

     7   C  -   5   C       0.994728       0.965257
     7   C  -  14   H       0.966047       0.986530
     7   C  -  12   H       0.965362       0.989539
     7   C  -  13   H       0.965317       0.985769
     7   C  -   1   O       0.031251       0.016455

     8   C  -   5   C       1.003317       0.995320
     8   C  -   9   H       0.966338       0.990364
     8   C  -  11   H       0.964220       0.985781
     8   C  -  10   H       0.964150       0.987602

     9   H  -   8   C       0.966338       0.990364

    10   H  -   8   C       0.964150       0.987602

    11   H  -   8   C       0.964220       0.985781

    12   H  -   7   C       0.965362       0.989539

    13   H  -   7   C       0.965317       0.985769

    14   H  -   7   C       0.966047       0.986530

    15   H  -   2   C       0.951862       0.940706
    15   H  -   1   O       0.032095       0.019075


 Valency analysis:

   CEN ATOM   TOT.VALENCE
     1   O       2.183743
     2   C       3.904651
     3   H       0.981706
     4   H       0.988884
     5   C       3.949999
     6   H       0.988980
     7   C       3.939672
     8   C       3.937091
     9   H       0.983272
    10   H       0.981860
    11   H       0.982808
    12   H       0.983186
    13   H       0.983514
    14   H       0.984431
    15   H       0.988645

 Total charge composition:

   CEN ATOM         s          p       ELECTRONS ->P.CHARGE
     1   O       3.66079    4.55838      8.21918   -0.21918
     2   C       3.00643    3.23889      6.24532   -0.24532
     3   H       0.86475                 0.86475    0.13525
     4   H       0.89457                 0.89457    0.10543
     5   C       2.96600    3.02652      5.99252    0.00748
     6   H       0.89502                 0.89502    0.10498
     7   C       3.00029    3.39128      6.39157   -0.39157
     8   C       2.99849    3.38313      6.38163   -0.38163
     9   H       0.87066                 0.87066    0.12934
    10   H       0.86531                 0.86531    0.13469
    11   H       0.86888                 0.86888    0.13112
    12   H       0.87033                 0.87033    0.12967
    13   H       0.87160                 0.87160    0.12840
    14   H       0.87523                 0.87523    0.12477
    15   H       0.89344                 0.89344    0.10656

 Total charge composition, AO contributions:

   CEN ATOM SHL      SPHERICAL COMPONENTS
     1   O  1s       1.99737
     1   O  2s       1.66342
     1   O  2p       1.28612    1.40223    1.87003

     2   C  1s       1.99253
     2   C  2s       1.01390
     2   C  2p       0.90044    1.17966    1.15879

     3   H  1s       0.86475

     4   H  1s       0.89457

     5   C  1s       1.99302
     5   C  2s       0.97298
     5   C  2p       1.02883    0.89532    1.10237

     6   H  1s       0.89502

     7   C  1s       1.99199
     7   C  2s       1.00830
     7   C  2p       1.15507    1.12420    1.11201

     8   C  1s       1.99191
     8   C  2s       1.00658
     8   C  2p       1.05157    1.16230    1.16926

     9   H  1s       0.87066

    10   H  1s       0.86531

    11   H  1s       0.86888

    12   H  1s       0.87033

    13   H  1s       0.87160

    14   H  1s       0.87523

    15   H  1s       0.89344

 Summary of localized orbital composition:   [THRPRINT= 0.020]

   ORB  GRP  ORB.ENERGY      CENTERS/CHARGES
     1   1   -18.418792      O  1   2.000
     2   1    -9.751996      C  5   2.000
     3   1    -9.730604      C  2   2.000
     4   1    -9.683806      C  8   2.000
     5   1    -9.681015      C  7   2.000
     6   1    -0.612490      O  1   1.167   C  2   0.823
     7   1    -0.590963      O  1   1.173   C  5   0.807   (other: 0.020)
     8   1    -0.494327      C  5   1.001   C  8   0.983
     9   1    -0.489238      C  5   0.996   C  7   0.996
    10   1    -0.451519      C  2   1.136   H  3   0.855
    11   1    -0.449372      C  2   1.124   H  4   0.874
    12   1    -0.448957      C  2   1.124   H 15   0.874
    13   1    -0.446143      C  5   1.114   H  6   0.871
    14   1    -0.443235      O  1   1.969   (other: 0.031)
    15   1    -0.435374      C  8   1.125   H  9   0.864
    16   1    -0.433894      C  7   1.125   H 12   0.863
    17   1    -0.433889      C  7   1.122   H 14   0.869
    18   1    -0.430022      C  8   1.132   H 10   0.859
    19   1    -0.428673      C  7   1.126   H 13   0.866
    20   1    -0.428393      C  8   1.128   H 11   0.863
    21   1    -0.125682      O  1   1.902   C  5   0.021   (other: 0.076)

 Localized orbitals saved to record      2100.2  (orbital set 2)


 **********************************************************************************************************************************
 DATASETS  * FILE   NREC   LENGTH (MB)   RECORD NAMES
              1      20       32.79       500      610      700      900      950      970     1000      129      960     1100   
                                          VAR    BASINP    GEOM    SYMINP    ZMAT    AOBASIS   BASIS     P2S    ABASIS      S 
                                         1400     1410     1200     1210     1080     1600     1650     1300     1700     1800   
                                           T        V       H0       H01     AOSYM     SMH    MOLCAS    ERIS     OPER     GRID   

              2       5        3.03       700     1000      520     1800     2100   
                                         GEOM     BASIS   MCVARS    GRID      RKS  

 PROGRAMS   *        TOTAL      IBBA        KS       INT
 CPU TIMES  *         5.08      0.04      4.31      0.58
 REAL TIME  *         8.86 SEC
 DISK USED  *        36.55 MB      
 **********************************************************************************************************************************
 Molecular orbitals read from record     2100.2  Type=RKS/LOCAL(IBO)  
 Occupation numbers read from record     2100.2  Type=RKS/LOCAL(IBO)  
 Orbital energies read from record       2100.2  Type=RKS/LOCAL(IBO)  
 Redundancy group numbers read from rec  2100.2  Type=RKS/LOCAL(IBO)  

 IBBA/STO-3G energy=      0.000000000000

        KS-SCF  
   -231.86864626
 **********************************************************************************************************************************
 Molpro calculation terminated
