
 Primary working directories    : /tmp/sb13343
 Secondary working directories  : /tmp/sb13343
 Wavefunction directory         : /panfs/panasas01/chem/sb13343/wfu/
 Main file repository           : /tmp/sb13343/

 SHA1      : b4a5b34a9e711420743f49e6833241d17c61fb3c
 NAME      : 2099.9.b4a5b34
 ARCHNAME  : linux/x86_64_openmp
 FC        : /cm/shared/languages/GCC-6.1/bin/gfortran
 BLASLIB   : -lblas
 id        : simonbennie

 Nodes     nprocs
 node33-019    1

 Using customized tuning parameters: mindgm=1; mindgv=20; mindgc=4; mindgr=1; noblas=0; minvec=7
 default implementation of scratch files=df  

 memory,500,m
 geomtyp=xyz
 nosym
 noorient
 geometry={
 C          0.00000        0.00000        0.00000
 H          0.00000        0.00000        1.10056
 C          1.46209        0.00000       -0.46855
 C         -0.73105       -1.26621       -0.46855
 C         -0.73105        1.26621       -0.46855
 H          1.52118        0.00000       -1.56505
 H         -0.76059       -1.31738       -1.56505
 H         -0.76059        1.31738       -1.56505
 H          1.99755        0.88622       -0.10723
 H          1.99755       -0.88622       -0.10723
 H         -0.23129       -2.17304       -0.10723
 H         -1.76626       -1.28682       -0.10723
 H         -1.76626        1.28682       -0.10723
 H         -0.23129        2.17304       -0.10723
 }
 basis={ default,svp }
 {uks,M06-L,direct;wf,34,1,0}
 {ibba,bonds=1}

 Variables initialized (895), CPU time= 0.00 sec
 Commands  initialized (725), CPU time= 0.02 sec, 591 directives.
 Default parameters read. Elapsed time= 2.65 sec

 Checking input...
 Passed
1


                                         ***  PROGRAM SYSTEM MOLPRO  ***
                                       Copyright, TTI GmbH Stuttgart, 2015
                                    Version 2099.9 linked May 26 2017 16:03:21


 **********************************************************************************************************************************
 LABEL *                                                                                 
  64 bit serial version                                                                  DATE: 07-Jun-17          TIME: 20:13:55  
 **********************************************************************************************************************************

 SHA1:             b4a5b34a9e711420743f49e6833241d17c61fb3c
 **********************************************************************************************************************************
 SETTING GEOMTYP        =    XYZ

 Variable memory set to  500000000 words,  buffer space 

 ZSYMEL=NOSYM

 SETTING BASIS          =    SVP


 Recomputing integrals since basis changed


 Using spherical harmonics

 Library entry C      S def2-SVP             selected for orbital group  1
 Library entry C      P def2-SVP             selected for orbital group  1
 Library entry C      D def2-SVP             selected for orbital group  1
 Library entry H      S def2-SVP             selected for orbital group  2
 Library entry H      P def2-SVP             selected for orbital group  2


 PROGRAM * SEWARD (Integral evaluation for generally contracted gaussian basis sets)     Author: Roland Lindh, 1990

 Geometry written to block  1 of record 700


 Point group  C1  



 ATOMIC COORDINATES

 NR  ATOM    CHARGE       X              Y              Z

   1  C       6.00    0.000000000    0.000000000    0.000000000
   2  H       1.00    0.000000000    0.000000000    2.079756984
   3  C       6.00    2.762949669    0.000000000   -0.885431176
   4  C       6.00   -1.381484283   -2.392790116   -0.885431176
   5  C       6.00   -1.381484283    2.392790116   -0.885431176
   6  H       1.00    2.874613586    0.000000000   -2.957515871
   7  H       1.00   -1.437306793   -2.489487402   -2.957515871
   8  H       1.00   -1.437306793    2.489487402   -2.957515871
   9  H       1.00    3.774822420    1.674713086   -0.202635332
  10  H       1.00    3.774822420   -1.674713086   -0.202635332
  11  H       1.00   -0.437074755   -4.106450458   -0.202635332
  12  H       1.00   -3.337747665   -2.431737372   -0.202635332
  13  H       1.00   -3.337747665    2.431737372   -0.202635332
  14  H       1.00   -0.437074755    4.106450458   -0.202635332

 Bond lengths in Bohr (Angstrom)

 1-2  2.079756984  1-3  2.901358172  1-4  2.901367218  1-5  2.901367218  3-6  2.075091279
     ( 1.100560000)     ( 1.535332625)     ( 1.535337412)     ( 1.535337412)     ( 1.098091015)

  3- 9  2.072380406   3-10  2.072380406   4- 7  2.075090722   4-11  2.072378172   4-12  2.072364222
       ( 1.096656483)       ( 1.096656483)       ( 1.098090721)       ( 1.096655301)       ( 1.096647919)

  5- 8  2.075090722   5-13  2.072364222   5-14  2.072378172
       ( 1.098090721)       ( 1.096647919)       ( 1.096655301)

 Bond angles

  1- 3- 6  110.85354902   1- 3- 9  111.37220114   1- 3-10  111.37220114   1- 4- 7  110.85320625

  1- 4-11  111.37204414   1- 4-12  111.37216555   1- 5- 8  110.85320625   1- 5-13  111.37216555

  1- 5-14  111.37204414   2- 1- 3  107.76888332   2- 1- 4  107.76882608   2- 1- 5  107.76882608

  3-1-4  111.11870751   3-1-5  111.11870751   4-1-5  111.11845005   6-3-9  107.62119374

  6- 3-10  107.62119374   7- 4-11  107.62125572   7- 4-12  107.62162102   8- 5-13  107.62162102

  8- 5-14  107.62125572   9- 3-10  107.82352924  11- 4-12  107.82360822  13- 5-14  107.82360822

 NUCLEAR CHARGE:                   34
 NUMBER OF PRIMITIVE AOS:         170
 NUMBER OF SYMMETRY AOS:          166
 NUMBER OF CONTRACTIONS:          106   ( 106A   )
 NUMBER OF CORE ORBITALS:           4   (   4A   )
 NUMBER OF VALENCE ORBITALS:       26   (  26A   )


 NUCLEAR REPULSION ENERGY  134.07051350


 Eigenvalues of metric

         1 0.225E-02 0.614E-02 0.614E-02 0.233E-01 0.256E-01 0.268E-01 0.268E-01 0.277E-01


 Contracted 2-electron integrals neglected if value below      1.0D-11
 AO integral compression algorithm  1   Integral accuracy      1.0D-11

     64.750 MB (compressed) written to integral file ( 46.7%)


 NUMBER OF SORTED TWO-ELECTRON INTEGRALS:   16082956.     BUFFER LENGTH:  32768
 NUMBER OF SEGMENTS:   2  SEGMENT LENGTH:   15997996      RECORD LENGTH: 524288

 Memory used in sort:      16.56 MW

 SORT1 READ    17384690. AND WROTE    14795173. INTEGRALS IN     44 RECORDS. CPU TIME:     0.21 SEC, REAL TIME:     0.43 SEC
 SORT2 READ    14795173. AND WROTE    16082956. INTEGRALS IN    247 RECORDS. CPU TIME:     0.38 SEC, REAL TIME:     0.50 SEC

 FILE SIZES:   FILE 1:    95.4 MBYTE,  FILE 4:   184.6 MBYTE,   TOTAL:    279.9 MBYTE

 OPERATOR DM      FOR CENTER  0  COORDINATES:    0.000000    0.000000    0.000000


 **********************************************************************************************************************************
 DATASETS  * FILE   NREC   LENGTH (MB)   RECORD NAMES
              1      19       87.57       500      610      700      900      950      970     1000      129      960     1100   
                                          VAR    BASINP    GEOM    SYMINP    ZMAT    AOBASIS   BASIS     P2S    ABASIS      S 
                                         1400     1410     1200     1210     1080     1600     1650     1300     1700   
                                           T        V       H0       H01     AOSYM     SMH    MOLCAS    ERIS     OPER   

 PROGRAMS   *        TOTAL       INT
 CPU TIMES  *         2.62      2.48
 REAL TIME  *         6.46 SEC
 DISK USED  *       280.45 MB      
 **********************************************************************************************************************************

 Density functional group M06-L=XC-M06-L
 Functional: XC-M06-L(via MFM 1.6)                                             Gradient terms: 1
 Use grid at  1800.2

 Functional: XC-M06-L                  Factor:  1.0000

 Generated new metagrid on record  1800.2 with target accuracy 1.0D-06 and 45620 points in CPU time    1.0
 Computed new grid on record 1800.1 in CPU time    1.2
   88342 words reserved for DFT integration

 PROGRAM * UKS-SCF (Unrestricted Kohn-Sham)     Authors: W. Meyer, H.-J. Werner, P.J. Knowles, 1993

 NUMBER OF ELECTRONS:      17+   17-    SPACE SYMMETRY=1    SPIN SYMMETRY: Singlet 
 CONVERGENCE THRESHOLDS:    1.00E-05 (Density)    1.00E-06 (Energy)
 MAX. NUMBER OF ITERATIONS:       60
 INTERPOLATION TYPE:            DIIS
 INTERPOLATION STEPS:              2 (START)      1 (STEP)
 LEVEL SHIFTS:                 -0.20 (ALPHA)  -0.20 (BETA) 



 Use fine grid record 1800.2 for energy threshold  1.0D-06
 Orbital guess generated from atomic densities. Full valence occupancy:   17

 Molecular orbital dump at record        2200.2

 Initial alpha occupation  17
 Initial beta  occupation  17

 ITERATION    DDIFF          GRAD             ENERGY        2-EL.EN.            DIPOLE MOMENTS         DIIS
    1      0.000D+00      0.000D+00      -158.10002389    432.094834   -0.00015   -0.00000   -0.01759    0
    2      0.122D-01      0.568D-02      -158.28048194    414.645040   -0.01541   -0.00000   -0.02418    1
    3      0.380D-02      0.251D-02      -158.31335589    419.166518   -0.00759   -0.00000    0.02943    2
    4      0.823D-03      0.230D-03      -158.31391652    418.929859   -0.00773   -0.00000    0.02239    3
    5      0.384D-03      0.950D-04      -158.31401981    418.915056   -0.00770   -0.00000    0.02455    4
    6      0.244D-03      0.351D-04      -158.31403812    418.878291   -0.00775   -0.00000    0.02790    5
    7      0.474D-04      0.960D-05      -158.31403898    418.882470   -0.00783   -0.00000    0.02548    6
    8      0.932D-05      0.194D-05      -158.31403902    418.882669   -0.00782   -0.00000    0.02637    6
    9      0.348D-05      0.488D-06      -158.31403902    418.882291   -0.00782   -0.00000    0.02620    6

 Final alpha occupancy:  17
 Final beta  occupancy:  17

 !UKS STATE 1.1 Energy               -158.314039024797
 Nuclear energy                       134.07051350
 One-electron energy                 -476.40921928
 Two-electron energy                  209.44114558
 Density functional                   -25.41647882     XC-M06-L=-25.41647882
 Virial quotient                       -1.01262150
 !UKS STATE 1.1 Dipole moment          -0.00782073    -0.00000000     0.02620245
 Dipole moment /Debye                  -0.01987701    -0.00000000     0.06659563

 Orbital energies for positive spin:

         1.1          2.1          3.1          4.1          5.1          6.1          7.1          8.1          9.1         10.1
    -10.060704   -10.046818   -10.046812   -10.046749    -0.753368    -0.634490    -0.634436    -0.514140    -0.420743    -0.391099

        11.1         12.1         13.1         14.1         15.1         16.1         17.1         18.1         19.1
     -0.391098    -0.345218    -0.345000    -0.326036    -0.295555    -0.295056    -0.285198     0.067562     0.102731

 Orbital energies for negative spin:

         1.1          2.1          3.1          4.1          5.1          6.1          7.1          8.1          9.1         10.1
    -10.060704   -10.046818   -10.046812   -10.046749    -0.753368    -0.634490    -0.634436    -0.514140    -0.420743    -0.391099

        11.1         12.1         13.1         14.1         15.1         16.1         17.1         18.1         19.1
     -0.391098    -0.345218    -0.345000    -0.326036    -0.295555    -0.295056    -0.285198     0.067562     0.102731

 HOMO     17.1    -0.285198 =      -7.7606eV
 LUMO     18.1     0.067562 =       1.8385eV
 LUMO-HOMO         0.352760 =       9.5991eV

 EXPECTATION VALUE OF S**2:             0.00000000

 Natural orbitals saved to record    2200.2 (Orbital set 3)

 Orbital spaces for UNO-CAS (Min. occupation: 0.020  Max. occupation: 1.980):

 Closed:       17
 Active:        0


 **********************************************************************************************************************************
 DATASETS  * FILE   NREC   LENGTH (MB)   RECORD NAMES
              1      20       89.03       500      610      700      900      950      970     1000      129      960     1100   
                                          VAR    BASINP    GEOM    SYMINP    ZMAT    AOBASIS   BASIS     P2S    ABASIS      S 
                                         1400     1410     1200     1210     1080     1600     1650     1300     1700     1800   
                                           T        V       H0       H01     AOSYM     SMH    MOLCAS    ERIS     OPER     GRID   

              2       5        3.45       700     1000      520     1800     2200   
                                         GEOM     BASIS   MCVARS    GRID      UKS  

 PROGRAMS   *        TOTAL       UKS       INT
 CPU TIMES  *        41.33     38.70      2.48
 REAL TIME  *        45.41 SEC
 DISK USED  *       280.45 MB      
 **********************************************************************************************************************************


 PROGRAM * Intrinsic Basis Bonding Analysis (IBBA)          Author: G. Knizia

 Molecular orbitals read from record     2200.2  Type=UKS/ALPHA (state 1.1)
 Fock matrix read from record            2200.2  Type=UKS/TOTAL (state 1.1)
 Orbital energies read from record       2200.2  Type=UKS/ALPHA (state 1.1)
 Density matrix read from record         2200.2  Type=UKS/CHARGE (state 1.1)

 Number of core orbitals:           4 (   4 )
 Number of closed-shell orbitals:  13 (  13 )

 Basis set MINAO-AUTO-PP generated.      Number of basis functions:   30 

 Polarized AO type:                A = (O Ot + (1-O)(1-Ot)) P12
 Orthogonalization method:         Symmetric (Loewdin)
 Localization functional:          L = sum[A,i] <i|n_A|i>^4 -> max

 Localization group 1:  17 orbitals, occupancy  2.000
 Iterative localization: IB/PM,    7 iter; Final gradient 0.27E-08

 Bond order analysis:       [THRPRINT= 0.020]

   CEN ATOM   CEN ATOM     WIBERG.BO      RENORM.BO
     1   C  -   3   C       1.015792       1.010737
     1   C  -   4   C       1.015610       1.010625
     1   C  -   5   C       1.015610       1.010625
     1   C  -   2   H       0.932046       0.951363

     2   H  -   1   C       0.932046       0.951363

     3   C  -   1   C       1.015792       1.010737
     3   C  -   9   H       0.965430       0.983072
     3   C  -  10   H       0.965430       0.983072
     3   C  -   6   H       0.963722       0.978324

     4   C  -   1   C       1.015610       1.010625
     4   C  -  11   H       0.965453       0.983043
     4   C  -  12   H       0.965303       0.983216
     4   C  -   7   H       0.963807       0.978289

     5   C  -   1   C       1.015610       1.010625
     5   C  -  14   H       0.965453       0.983043
     5   C  -  13   H       0.965303       0.983216
     5   C  -   8   H       0.963807       0.978289

     6   H  -   3   C       0.963722       0.978324

     7   H  -   4   C       0.963807       0.978289

     8   H  -   5   C       0.963807       0.978289

     9   H  -   3   C       0.965430       0.983072

    10   H  -   3   C       0.965430       0.983072

    11   H  -   4   C       0.965453       0.983043

    12   H  -   4   C       0.965303       0.983216

    13   H  -   5   C       0.965303       0.983216

    14   H  -   5   C       0.965453       0.983043


 Valency analysis:

   CEN ATOM   TOT.VALENCE
     1   C       3.984474
     2   H       0.987123
     3   C       3.946050
     4   C       3.946052
     5   C       3.946052
     6   H       0.984607
     7   H       0.984698
     8   H       0.984698
     9   H       0.983658
    10   H       0.983658
    11   H       0.983743
    12   H       0.983467
    13   H       0.983467
    14   H       0.983743

 Total charge composition:

   CEN ATOM         s          p       ELECTRONS ->P.CHARGE
     1   C       2.96174    3.10147      6.06321   -0.06321
     2   H       0.88652                 0.88652    0.11348
     3   C       3.03638    3.36035      6.39673   -0.39673
     4   C       3.03630    3.36012      6.39642   -0.39642
     5   C       3.03630    3.36012      6.39642   -0.39642
     6   H       0.87593                 0.87593    0.12407
     7   H       0.87630                 0.87630    0.12370
     8   H       0.87630                 0.87630    0.12370
     9   H       0.87216                 0.87216    0.12784
    10   H       0.87216                 0.87216    0.12784
    11   H       0.87250                 0.87250    0.12750
    12   H       0.87142                 0.87142    0.12858
    13   H       0.87142                 0.87142    0.12858
    14   H       0.87250                 0.87250    0.12750

 Total charge composition, AO contributions:

   CEN ATOM SHL      SPHERICAL COMPONENTS
     1   C  1s       1.99145
     1   C  2s       0.97029
     1   C  2p       1.00088    1.00075    1.09983

     2   H  1s       0.88652

     3   C  1s       1.99083
     3   C  2s       1.04554
     3   C  2p       1.06697    1.15210    1.14128

     4   C  1s       1.99083
     4   C  2s       1.04547
     4   C  2p       1.13161    1.08768    1.14083

     5   C  1s       1.99083
     5   C  2s       1.04547
     5   C  2p       1.13161    1.08768    1.14083

     6   H  1s       0.87593

     7   H  1s       0.87630

     8   H  1s       0.87630

     9   H  1s       0.87216

    10   H  1s       0.87216

    11   H  1s       0.87250

    12   H  1s       0.87142

    13   H  1s       0.87142

    14   H  1s       0.87250

 Summary of localized orbital composition:   [THRPRINT= 0.020]

   ORB  GRP  ORB.ENERGY      CENTERS/CHARGES
     1   1    -9.957684      C  1   2.000
     2   1    -9.932572      C  5   2.000
     3   1    -9.932572      C  4   2.000
     4   1    -9.932498      C  3   2.000
     5   1    -0.517334      C  3   1.009   C  1   0.975
     6   1    -0.517078      C  4   1.009   C  1   0.975
     7   1    -0.517078      C  5   1.009   C  1   0.975
     8   1    -0.453888      C  5   1.127   H 13   0.864
     9   1    -0.453888      C  4   1.127   H 12   0.864
    10   1    -0.453335      C  5   1.122   H  8   0.869
    11   1    -0.453335      C  4   1.122   H  7   0.869
    12   1    -0.453248      C  3   1.122   H  6   0.869
    13   1    -0.452958      C  3   1.126   H  9   0.865
    14   1    -0.452958      C  3   1.126   H 10   0.865
    15   1    -0.452768      C  4   1.125   H 11   0.865
    16   1    -0.452768      C  5   1.125   H 14   0.865
    17   1    -0.446703      C  1   1.096   H  2   0.873   (other: 0.031)

 Localized orbitals saved to record      2200.2  (orbital set 4)


 **********************************************************************************************************************************
 DATASETS  * FILE   NREC   LENGTH (MB)   RECORD NAMES
              1      20       89.03       500      610      700      900      950      970     1000      129      960     1100   
                                          VAR    BASINP    GEOM    SYMINP    ZMAT    AOBASIS   BASIS     P2S    ABASIS      S 
                                         1400     1410     1200     1210     1080     1600     1650     1300     1700     1800   
                                           T        V       H0       H01     AOSYM     SMH    MOLCAS    ERIS     OPER     GRID   

              2       5        3.54       700     1000      520     1800     2200   
                                         GEOM     BASIS   MCVARS    GRID      UKS  

 PROGRAMS   *        TOTAL      IBBA       UKS       INT
 CPU TIMES  *        41.36      0.03     38.70      2.48
 REAL TIME  *        45.52 SEC
 DISK USED  *       280.45 MB      
 **********************************************************************************************************************************
 Molecular orbitals read from record     2200.2  Type=UKS/LOCAL(IBO)  
 Occupation numbers read from record     2200.2  Type=UKS/LOCAL(IBO)  
 Orbital energies read from record       2200.2  Type=UKS/LOCAL(IBO)  
 Redundancy group numbers read from rec  2200.2  Type=UKS/BETA (state 1.1)

 IBBA/SVP energy=      0.000000000000

        UKS-SCF 
   -158.31403902
 **********************************************************************************************************************************
 Molpro calculation terminated
