
 Primary working directories    : /tmp/sb13343
 Secondary working directories  : /tmp/sb13343
 Wavefunction directory         : /panfs/panasas01/chem/sb13343/wfu/
 Main file repository           : /tmp/sb13343/

 SHA1      : b4a5b34a9e711420743f49e6833241d17c61fb3c
 NAME      : 2099.9.b4a5b34
 ARCHNAME  : linux/x86_64_openmp
 FC        : /cm/shared/languages/GCC-6.1/bin/gfortran
 BLASLIB   : -lblas
 id        : simonbennie

 Nodes     nprocs
 node32-020    1

 Using customized tuning parameters: mindgm=1; mindgv=20; mindgc=4; mindgr=1; noblas=0; minvec=7
 default implementation of scratch files=df  

 memory,500,m
 geomtyp=xyz
 nosym
 noorient
 geometry={
 O          0.25818        0.93788        0.04074
 C          1.63656        1.04230        0.32330
 H          1.89907        2.10041        0.23555
 H          2.26234        0.47024       -0.37847
 C         -0.29581       -0.36510        0.22961
 H          0.07373       -0.77023        1.18842
 C          0.09996       -1.32219       -0.89979
 C         -1.80707       -0.17660        0.31883
 H         -2.30941       -1.13436        0.49338
 H         -2.05917        0.50650        1.13581
 H         -2.19015        0.25071       -0.61475
 H         -0.34617       -2.31074       -0.74107
 H         -0.25158       -0.93408       -1.86253
 H          1.18531       -1.45552       -0.96063
 H          1.86878        0.70360        1.34661
 }
 basis={ default,svp }
 {uks,B-LYP,direct;wf,42,1,0}
 {ibba,bonds=1}

 Variables initialized (895), CPU time= 0.00 sec
 Commands  initialized (725), CPU time= 0.02 sec, 591 directives.
 Default parameters read. Elapsed time= 0.07 sec

 Checking input...
 Passed
1


                                         ***  PROGRAM SYSTEM MOLPRO  ***
                                       Copyright, TTI GmbH Stuttgart, 2015
                                    Version 2099.9 linked May 26 2017 16:03:21


 **********************************************************************************************************************************
 LABEL *                                                                                 
  64 bit serial version                                                                  DATE: 07-Jun-17          TIME: 21:52:32  
 **********************************************************************************************************************************

 SHA1:             b4a5b34a9e711420743f49e6833241d17c61fb3c
 **********************************************************************************************************************************
 SETTING GEOMTYP        =    XYZ

 Variable memory set to  500000000 words,  buffer space 

 ZSYMEL=NOSYM

 SETTING BASIS          =    SVP


 Recomputing integrals since basis changed


 Using spherical harmonics

 Library entry O      S def2-SVP             selected for orbital group  1
 Library entry O      P def2-SVP             selected for orbital group  1
 Library entry O      D def2-SVP             selected for orbital group  1
 Library entry C      S def2-SVP             selected for orbital group  2
 Library entry C      P def2-SVP             selected for orbital group  2
 Library entry C      D def2-SVP             selected for orbital group  2
 Library entry H      S def2-SVP             selected for orbital group  3
 Library entry H      P def2-SVP             selected for orbital group  3


 PROGRAM * SEWARD (Integral evaluation for generally contracted gaussian basis sets)     Author: Roland Lindh, 1990

 Geometry written to block  1 of record 700


 Point group  C1  



 ATOMIC COORDINATES

 NR  ATOM    CHARGE       X              Y              Z

   1  O       8.00    0.487889491    1.772336338    0.076987442
   2  C       6.00    3.092650186    1.969661540    0.610948456
   3  H       1.00    3.588722191    3.969199649    0.445124989
   4  H       1.00    4.275203001    0.888624813   -0.715204646
   5  C       6.00   -0.558999885   -0.689939008    0.433900015
   6  H       1.00    0.139329507   -1.455523753    2.245788321
   7  C       6.00    0.188897023   -2.498576985   -1.700356670
   8  C       6.00   -3.414867388   -0.333725634    0.602501380
   9  H       1.00   -4.364152409   -2.143629727    0.932353075
  10  H       1.00   -3.891267344    0.957146282    2.146369830
  11  H       1.00   -4.138783672    0.473773237   -1.161709135
  12  H       1.00   -0.654166493   -4.366665745   -1.400419339
  13  H       1.00   -0.475417298   -1.765155378   -3.519671599
  14  H       1.00    2.239911273   -2.750534169   -1.815327607
  15  H       1.00    3.531482387    1.329611301    2.544724097

 Bond lengths in Bohr (Angstrom)

  1- 2  2.666238902   1- 5  2.699289504   2- 3  2.066818209   2- 4  2.079844613   2-15  2.083680934
       ( 1.410912866)       ( 1.428402491)       ( 1.093713095)       ( 1.100606371)       ( 1.102636465)

  5- 6  2.087276497   5- 7  2.895785336   5- 8  2.882931422   7-12  2.071345966   7-13  2.071020903
       ( 1.104539155)       ( 1.532383608)       ( 1.525581609)       ( 1.096109081)       ( 1.095937065)

  7-14  2.069628032   8- 9  2.070192508   8-10  2.068051501   8-11  2.070880961
       ( 1.095199989)       ( 1.095498697)       ( 1.094365725)       ( 1.095863011)

 Bond angles

  1- 2- 3  106.85884507   1- 2- 4  112.91125973   1- 2-15  111.64621834   1- 5- 6  108.63888518

  1-5-7  111.84608248   1-5-8  106.21369660   2-1-5  114.82992588   3-2-4  108.37425913

  3- 2-15  108.72850466   4- 2-15  108.20064699   5- 7-12  110.57572754   5- 7-13  110.08520206

  5- 7-14  111.89623115   5- 8- 9  110.82645738   5- 8-10  110.42517473   5- 8-11  110.16013005

  6- 5- 7  108.92239636   6- 5- 8  109.02480146   7- 5- 8  112.09364518   9- 8-10  108.73162751

  9- 8-11  108.44218100  10- 8-11  108.18344616  12- 7-13  108.42317703  12- 7-14  107.55382926

 13- 7-14  108.19151953

 NUCLEAR CHARGE:                   42
 NUMBER OF PRIMITIVE AOS:         195
 NUMBER OF SYMMETRY AOS:          190
 NUMBER OF CONTRACTIONS:          120   ( 120A   )
 NUMBER OF CORE ORBITALS:           5   (   5A   )
 NUMBER OF VALENCE ORBITALS:       30   (  30A   )


 NUCLEAR REPULSION ENERGY  195.74983609


 Eigenvalues of metric

         1 0.241E-02 0.514E-02 0.104E-01 0.150E-01 0.214E-01 0.243E-01 0.289E-01 0.305E-01


 Contracted 2-electron integrals neglected if value below      1.0D-11
 AO integral compression algorithm  1   Integral accuracy      1.0D-11

     97.518 MB (compressed) written to integral file ( 44.4%)


 NUMBER OF SORTED TWO-ELECTRON INTEGRALS:   26357430.     BUFFER LENGTH:  32768
 NUMBER OF SEGMENTS:   2  SEGMENT LENGTH:   15997996      RECORD LENGTH: 524288

 Memory used in sort:      16.56 MW

 SORT1 READ    27501115. AND WROTE    22923365. INTEGRALS IN     67 RECORDS. CPU TIME:     0.35 SEC, REAL TIME:     0.68 SEC
 SORT2 READ    22923365. AND WROTE    26357430. INTEGRALS IN    372 RECORDS. CPU TIME:     0.60 SEC, REAL TIME:     0.78 SEC

 FILE SIZES:   FILE 1:   128.3 MBYTE,  FILE 4:   281.1 MBYTE,   TOTAL:    409.3 MBYTE

 OPERATOR DM      FOR CENTER  0  COORDINATES:    0.000000    0.000000    0.000000


 **********************************************************************************************************************************
 DATASETS  * FILE   NREC   LENGTH (MB)   RECORD NAMES
              1      19      116.03       500      610      700      900      950      970     1000      129      960     1100   
                                          VAR    BASINP    GEOM    SYMINP    ZMAT    AOBASIS   BASIS     P2S    ABASIS      S 
                                         1400     1410     1200     1210     1080     1600     1650     1300     1700   
                                           T        V       H0       H01     AOSYM     SMH    MOLCAS    ERIS     OPER   

 PROGRAMS   *        TOTAL       INT
 CPU TIMES  *         4.01      3.85
 REAL TIME  *         7.24 SEC
 DISK USED  *       409.85 MB      
 **********************************************************************************************************************************

 Density functional group B-LYP=B88+LYP
 Functional: B88(Automatically generated (new) B88)                            Gradient terms: 1
 Functional: LYP(Automatically generated (new) LYP)                            Gradient terms: 1
 Use grid at  1800.2

 Functional: B88                       Factor:  1.0000
 Functional: LYP                       Factor:  1.0000

 Generated new metagrid on record  1800.2 with target accuracy 1.0D-06 and 52852 points in CPU time    1.3
 Computed new grid on record 1800.1 in CPU time    1.5
   99539 words reserved for DFT integration

 PROGRAM * UKS-SCF (Unrestricted Kohn-Sham)     Authors: W. Meyer, H.-J. Werner, P.J. Knowles, 1993

 NUMBER OF ELECTRONS:      21+   21-    SPACE SYMMETRY=1    SPIN SYMMETRY: Singlet 
 CONVERGENCE THRESHOLDS:    1.00E-05 (Density)    1.00E-06 (Energy)
 MAX. NUMBER OF ITERATIONS:       60
 INTERPOLATION TYPE:            DIIS
 INTERPOLATION STEPS:              2 (START)      1 (STEP)
 LEVEL SHIFTS:                 -0.20 (ALPHA)  -0.20 (BETA) 



 Use fine grid record 1800.2 for energy threshold  1.0D-06
 Orbital guess generated from atomic densities. Full valence occupancy:   21

 Molecular orbital dump at record        2200.2

 Initial alpha occupation  21
 Initial beta  occupation  21

 ITERATION    DDIFF          GRAD             ENERGY        2-EL.EN.            DIPOLE MOMENTS         DIIS
    1      0.000D+00      0.000D+00      -233.08653899    632.310013    0.49090   -0.72476    0.27170    0
    2      0.137D-01      0.576D-02      -233.30351483    609.168199    0.14941   -0.25929    0.05377    1
    3      0.450D-02      0.291D-02      -233.35541083    615.863920    0.26551   -0.39742    0.15080    2
    4      0.104D-02      0.417D-03      -233.35660984    615.455331    0.23771   -0.34734    0.12830    3
    5      0.752D-03      0.207D-03      -233.35705840    615.398995    0.23757   -0.34906    0.12649    4
    6      0.516D-03      0.565D-04      -233.35713689    615.344235    0.23487   -0.34022    0.12441    5
    7      0.114D-03      0.176D-04      -233.35714161    615.343052    0.23418   -0.34144    0.12230    6
    8      0.377D-04      0.950D-05      -233.35714256    615.342168    0.23446   -0.34058    0.12206    7
    9      0.153D-04      0.191D-05      -233.35714264    615.341130    0.23435   -0.34049    0.12216    7
   10      0.430D-05      0.604D-06      -233.35714264    615.342203    0.23438   -0.34051    0.12203    7
   11      0.148D-05      0.318D-06      -233.35714265    615.341684    0.23437   -0.34049    0.12202    8

 Final alpha occupancy:  21
 Final beta  occupancy:  21

 !UKS STATE 1.1 Energy               -233.357142646035
 Nuclear energy                       195.74983609
 One-electron energy                 -702.89762617
 Two-electron energy                  307.67084203
 Density functional                   -33.88019460     B88=-32.51028889 LYP= -1.36990571
 Virial quotient                       -1.01027475
 !UKS STATE 1.1 Dipole moment           0.23437423    -0.34049091     0.12201814
 Dipole moment /Debye                   0.59568085    -0.86538490     0.31011887

 Orbital energies for positive spin:

         1.1          2.1          3.1          4.1          5.1          6.1          7.1          8.1          9.1         10.1
    -18.770047    -9.965878    -9.960100    -9.912166    -9.909510    -0.914976    -0.690679    -0.609442    -0.590255    -0.503110

        11.1         12.1         13.1         14.1         15.1         16.1         17.1         18.1         19.1         20.1
     -0.436201    -0.404557    -0.395215    -0.368357    -0.343254    -0.335520    -0.326447    -0.302174    -0.294662    -0.252740

        21.1         22.1         23.1
     -0.197994     0.034859     0.062646

 Orbital energies for negative spin:

         1.1          2.1          3.1          4.1          5.1          6.1          7.1          8.1          9.1         10.1
    -18.770046    -9.965878    -9.960100    -9.912165    -9.909510    -0.914975    -0.690679    -0.609442    -0.590255    -0.503109

        11.1         12.1         13.1         14.1         15.1         16.1         17.1         18.1         19.1         20.1
     -0.436201    -0.404557    -0.395215    -0.368357    -0.343254    -0.335520    -0.326447    -0.302174    -0.294662    -0.252740

        21.1         22.1         23.1
     -0.197994     0.034859     0.062646

 HOMO    -21.1    -0.197994 =      -5.3877eV
 LUMO    -22.1     0.034859 =       0.9485eV
 LUMO-HOMO         0.232852 =       6.3362eV

 EXPECTATION VALUE OF S**2:             0.00000000

 Occupation number threshold for canonical orbitals:  1.999000 (occupied),  0.001000 (virtual)

 Number of pseudo-canonical orbitals per symmetry:   21
 Number of active natural orbitals per symmetry:      0

 Natural orbitals saved to record    2200.2 (Orbital set 3)

 Orbital spaces for UNO-CAS (Min. occupation: 0.020  Max. occupation: 1.980):

 Closed:       21
 Active:        0


 **********************************************************************************************************************************
 DATASETS  * FILE   NREC   LENGTH (MB)   RECORD NAMES
              1      20      117.72       500      610      700      900      950      970     1000      129      960     1100   
                                          VAR    BASINP    GEOM    SYMINP    ZMAT    AOBASIS   BASIS     P2S    ABASIS      S 
                                         1400     1410     1200     1210     1080     1600     1650     1300     1700     1800   
                                           T        V       H0       H01     AOSYM     SMH    MOLCAS    ERIS     OPER     GRID   

              2       5        3.59       700     1000      520     1800     2200   
                                         GEOM     BASIS   MCVARS    GRID      UKS  

 PROGRAMS   *        TOTAL       UKS       INT
 CPU TIMES  *        26.63     22.62      3.85
 REAL TIME  *        30.30 SEC
 DISK USED  *       409.85 MB      
 **********************************************************************************************************************************


 PROGRAM * Intrinsic Basis Bonding Analysis (IBBA)          Author: G. Knizia

 Molecular orbitals read from record     2200.2  Type=UKS/ALPHA (state 1.1)
 Fock matrix read from record            2200.2  Type=UKS/TOTAL (state 1.1)
 Orbital energies read from record       2200.2  Type=UKS/ALPHA (state 1.1)
 Density matrix read from record         2200.2  Type=UKS/CHARGE (state 1.1)

 Number of core orbitals:           5 (   5 )
 Number of closed-shell orbitals:  16 (  16 )

 Basis set MINAO-AUTO-PP generated.      Number of basis functions:   35 

 Polarized AO type:                A = (O Ot + (1-O)(1-Ot)) P12
 Orthogonalization method:         Symmetric (Loewdin)
 Localization functional:          L = sum[A,i] <i|n_A|i>^4 -> max

 Localization group 1:  21 orbitals, occupancy  2.000
 Iterative localization: IB/PM,    7 iter; Final gradient 0.19E-08

 Bond order analysis:       [THRPRINT= 0.020]

   CEN ATOM   CEN ATOM     WIBERG.BO      RENORM.BO
     1   O  -   2   C       0.996178       1.020210
     1   O  -   5   C       0.950686       0.961426
     1   O  -   4   H       0.036993       0.021807
     1   O  -  15   H       0.035458       0.021064
     1   O  -   7   C       0.032847       0.017132
     1   O  -   6   H       0.027388       0.016323

     2   C  -   1   O       0.996178       1.020210
     2   C  -   3   H       0.958366       0.976582
     2   C  -   4   H       0.947294       0.931006
     2   C  -  15   H       0.947255       0.931584

     3   H  -   2   C       0.958366       0.976582

     4   H  -   2   C       0.947294       0.931006
     4   H  -   1   O       0.036993       0.021807

     5   C  -   8   C       1.013436       1.005986
     5   C  -   7   C       1.004785       0.978548
     5   C  -   1   O       0.950686       0.961426
     5   C  -   6   H       0.923054       0.912395

     6   H  -   5   C       0.923054       0.912395
     6   H  -   1   O       0.027388       0.016323

     7   C  -   5   C       1.004785       0.978548
     7   C  -  14   H       0.962813       0.982457
     7   C  -  12   H       0.960499       0.984450
     7   C  -  13   H       0.959971       0.977517
     7   C  -   1   O       0.032847       0.017132

     8   C  -   5   C       1.013436       1.005986
     8   C  -   9   H       0.963235       0.986228
     8   C  -  10   H       0.960922       0.982690
     8   C  -  11   H       0.959340       0.977717

     9   H  -   8   C       0.963235       0.986228

    10   H  -   8   C       0.960922       0.982690

    11   H  -   8   C       0.959340       0.977717

    12   H  -   7   C       0.960499       0.984450

    13   H  -   7   C       0.959971       0.977517

    14   H  -   7   C       0.962813       0.982457

    15   H  -   2   C       0.947255       0.931584
    15   H  -   1   O       0.035458       0.021064


 Valency analysis:

   CEN ATOM   TOT.VALENCE
     1   O       2.137676
     2   C       3.872011
     3   H       0.979733
     4   H       0.988963
     5   C       3.919902
     6   H       0.990975
     7   C       3.944329
     8   C       3.943329
     9   H       0.984178
    10   H       0.981887
    11   H       0.983078
    12   H       0.983367
    13   H       0.983302
    14   H       0.984389
    15   H       0.989077

 Total charge composition:

   CEN ATOM         s          p       ELECTRONS ->P.CHARGE
     1   O       3.59862    4.77649      8.37512   -0.37512
     2   C       3.01372    3.16303      6.17675   -0.17675
     3   H       0.85764                 0.85764    0.14236
     4   H       0.89494                 0.89494    0.10506
     5   C       2.95269    2.93330      5.88599    0.11401
     6   H       0.90500                 0.90500    0.09500
     7   C       3.02363    3.37554      6.39916   -0.39916
     8   C       3.02107    3.36243      6.38350   -0.38350
     9   H       0.87421                 0.87421    0.12579
    10   H       0.86542                 0.86542    0.13458
    11   H       0.86992                 0.86992    0.13008
    12   H       0.87103                 0.87103    0.12897
    13   H       0.87078                 0.87078    0.12922
    14   H       0.87506                 0.87506    0.12494
    15   H       0.89549                 0.89549    0.10451

 Total charge composition, AO contributions:

   CEN ATOM SHL      SPHERICAL COMPONENTS
     1   O  1s       1.99723
     1   O  2s       1.60139
     1   O  2p       1.38361    1.51754    1.87534

     2   C  1s       1.99192
     2   C  2s       1.02180
     2   C  2p       0.83661    1.17783    1.14858

     3   H  1s       0.85764

     4   H  1s       0.89494

     5   C  1s       1.99251
     5   C  2s       0.96019
     5   C  2p       1.01035    0.83647    1.08648

     6   H  1s       0.90500

     7   C  1s       1.99130
     7   C  2s       1.03233
     7   C  2p       1.15092    1.11815    1.10646

     8   C  1s       1.99122
     8   C  2s       1.02985
     8   C  2p       1.04637    1.15257    1.16349

     9   H  1s       0.87421

    10   H  1s       0.86542

    11   H  1s       0.86992

    12   H  1s       0.87103

    13   H  1s       0.87078

    14   H  1s       0.87506

    15   H  1s       0.89549

 Summary of localized orbital composition:   [THRPRINT= 0.020]

   ORB  GRP  ORB.ENERGY      CENTERS/CHARGES
     1   1   -18.632608      O  1   2.000
     2   1    -9.870577      C  5   2.000
     3   1    -9.854091      C  2   2.000
     4   1    -9.801092      C  7   2.000
     5   1    -9.797715      C  8   2.000
     6   1    -0.682799      O  1   1.247   C  2   0.744
     7   1    -0.664834      O  1   1.266   C  5   0.715
     8   1    -0.511760      C  5   0.995   C  8   0.991
     9   1    -0.510148      C  7   1.006   C  5   0.986
    10   1    -0.463558      O  1   1.958   (other: 0.042)
    11   1    -0.458653      C  2   1.126   H  4   0.873
    12   1    -0.458235      C  2   1.124   H 15   0.874
    13   1    -0.457567      C  2   1.142   H  3   0.850
    14   1    -0.453663      C  5   1.101   H  6   0.879   (other: 0.020)
    15   1    -0.442309      C  7   1.121   H 12   0.862
    16   1    -0.440368      C  7   1.121   H 14   0.867
    17   1    -0.439796      C  8   1.118   H  9   0.867
    18   1    -0.436416      C  7   1.126   H 13   0.863
    19   1    -0.433726      C  8   1.127   H 11   0.862
    20   1    -0.433361      C  8   1.131   H 10   0.858
    21   1    -0.240044      O  1   1.899   C  5   0.021   C  2   0.021   (other: 0.059)

 Localized orbitals saved to record      2200.2  (orbital set 4)


 **********************************************************************************************************************************
 DATASETS  * FILE   NREC   LENGTH (MB)   RECORD NAMES
              1      20      117.72       500      610      700      900      950      970     1000      129      960     1100   
                                          VAR    BASINP    GEOM    SYMINP    ZMAT    AOBASIS   BASIS     P2S    ABASIS      S 
                                         1400     1410     1200     1210     1080     1600     1650     1300     1700     1800   
                                           T        V       H0       H01     AOSYM     SMH    MOLCAS    ERIS     OPER     GRID   

              2       5        3.71       700     1000      520     1800     2200   
                                         GEOM     BASIS   MCVARS    GRID      UKS  

 PROGRAMS   *        TOTAL      IBBA       UKS       INT
 CPU TIMES  *        26.68      0.04     22.62      3.85
 REAL TIME  *        30.44 SEC
 DISK USED  *       409.85 MB      
 **********************************************************************************************************************************
 Molecular orbitals read from record     2200.2  Type=UKS/LOCAL(IBO)  
 Occupation numbers read from record     2200.2  Type=UKS/LOCAL(IBO)  
 Orbital energies read from record       2200.2  Type=UKS/LOCAL(IBO)  
 Redundancy group numbers read from rec  2200.2  Type=UKS/BETA (state 1.1)

 IBBA/SVP energy=      0.000000000000

        UKS-SCF 
   -233.35714265
 **********************************************************************************************************************************
 Molpro calculation terminated
