
 Primary working directories    : /tmp/sb13343
 Secondary working directories  : /tmp/sb13343
 Wavefunction directory         : /panfs/panasas01/chem/sb13343/wfu/
 Main file repository           : /tmp/sb13343/

 SHA1      : b4a5b34a9e711420743f49e6833241d17c61fb3c
 NAME      : 2099.9.b4a5b34
 ARCHNAME  : linux/x86_64_openmp
 FC        : /cm/shared/languages/GCC-6.1/bin/gfortran
 BLASLIB   : -lblas
 id        : simonbennie

 Nodes     nprocs
 node32-013    1

 Using customized tuning parameters: mindgm=1; mindgv=20; mindgc=4; mindgr=1; noblas=0; minvec=7
 default implementation of scratch files=df  

 memory,500,m
 geomtyp=xyz
 nosym
 noorient
 geometry={
 O          0.25818        0.93788        0.04074
 C          1.63656        1.04230        0.32330
 H          1.89907        2.10041        0.23555
 H          2.26234        0.47024       -0.37847
 C         -0.29581       -0.36510        0.22961
 H          0.07373       -0.77023        1.18842
 C          0.09996       -1.32219       -0.89979
 C         -1.80707       -0.17660        0.31883
 H         -2.30941       -1.13436        0.49338
 H         -2.05917        0.50650        1.13581
 H         -2.19015        0.25071       -0.61475
 H         -0.34617       -2.31074       -0.74107
 H         -0.25158       -0.93408       -1.86253
 H          1.18531       -1.45552       -0.96063
 H          1.86878        0.70360        1.34661
 }
 basis={ default,sto-3g }
 {uks,M05,direct;wf,42,1,0}
 {ibba,bonds=1}

 Variables initialized (895), CPU time= 0.00 sec
 Commands  initialized (725), CPU time= 0.02 sec, 591 directives.
 Default parameters read. Elapsed time= 0.09 sec

 Checking input...
 Passed
1


                                         ***  PROGRAM SYSTEM MOLPRO  ***
                                       Copyright, TTI GmbH Stuttgart, 2015
                                    Version 2099.9 linked May 26 2017 16:03:21


 **********************************************************************************************************************************
 LABEL *                                                                                 
  64 bit serial version                                                                  DATE: 07-Jun-17          TIME: 21:49:20  
 **********************************************************************************************************************************

 SHA1:             b4a5b34a9e711420743f49e6833241d17c61fb3c
 **********************************************************************************************************************************
 SETTING GEOMTYP        =    XYZ

 Variable memory set to  500000000 words,  buffer space 

 ZSYMEL=NOSYM

 SETTING BASIS          =    STO-3G


 Recomputing integrals since basis changed


 Using spherical harmonics

 Library entry O      S STO-3G               selected for orbital group  1
 Library entry O      P STO-3G               selected for orbital group  1
 Library entry C      S STO-3G               selected for orbital group  2
 Library entry C      P STO-3G               selected for orbital group  2
 Library entry H      S STO-3G               selected for orbital group  3


 PROGRAM * SEWARD (Integral evaluation for generally contracted gaussian basis sets)     Author: Roland Lindh, 1990

 Geometry written to block  1 of record 700


 Point group  C1  



 ATOMIC COORDINATES

 NR  ATOM    CHARGE       X              Y              Z

   1  O       8.00    0.487889491    1.772336338    0.076987442
   2  C       6.00    3.092650186    1.969661540    0.610948456
   3  H       1.00    3.588722191    3.969199649    0.445124989
   4  H       1.00    4.275203001    0.888624813   -0.715204646
   5  C       6.00   -0.558999885   -0.689939008    0.433900015
   6  H       1.00    0.139329507   -1.455523753    2.245788321
   7  C       6.00    0.188897023   -2.498576985   -1.700356670
   8  C       6.00   -3.414867388   -0.333725634    0.602501380
   9  H       1.00   -4.364152409   -2.143629727    0.932353075
  10  H       1.00   -3.891267344    0.957146282    2.146369830
  11  H       1.00   -4.138783672    0.473773237   -1.161709135
  12  H       1.00   -0.654166493   -4.366665745   -1.400419339
  13  H       1.00   -0.475417298   -1.765155378   -3.519671599
  14  H       1.00    2.239911273   -2.750534169   -1.815327607
  15  H       1.00    3.531482387    1.329611301    2.544724097

 Bond lengths in Bohr (Angstrom)

  1- 2  2.666238902   1- 5  2.699289504   2- 3  2.066818209   2- 4  2.079844613   2-15  2.083680934
       ( 1.410912866)       ( 1.428402491)       ( 1.093713095)       ( 1.100606371)       ( 1.102636465)

  5- 6  2.087276497   5- 7  2.895785336   5- 8  2.882931422   7-12  2.071345966   7-13  2.071020903
       ( 1.104539155)       ( 1.532383608)       ( 1.525581609)       ( 1.096109081)       ( 1.095937065)

  7-14  2.069628032   8- 9  2.070192508   8-10  2.068051501   8-11  2.070880961
       ( 1.095199989)       ( 1.095498697)       ( 1.094365725)       ( 1.095863011)

 Bond angles

  1- 2- 3  106.85884507   1- 2- 4  112.91125973   1- 2-15  111.64621834   1- 5- 6  108.63888518

  1-5-7  111.84608248   1-5-8  106.21369660   2-1-5  114.82992588   3-2-4  108.37425913

  3- 2-15  108.72850466   4- 2-15  108.20064699   5- 7-12  110.57572754   5- 7-13  110.08520206

  5- 7-14  111.89623115   5- 8- 9  110.82645738   5- 8-10  110.42517473   5- 8-11  110.16013005

  6- 5- 7  108.92239636   6- 5- 8  109.02480146   7- 5- 8  112.09364518   9- 8-10  108.73162751

  9- 8-11  108.44218100  10- 8-11  108.18344616  12- 7-13  108.42317703  12- 7-14  107.55382926

 13- 7-14  108.19151953

 NUCLEAR CHARGE:                   42
 NUMBER OF PRIMITIVE AOS:         105
 NUMBER OF SYMMETRY AOS:          105
 NUMBER OF CONTRACTIONS:           35   (  35A   )
 NUMBER OF CORE ORBITALS:           5   (   5A   )
 NUMBER OF VALENCE ORBITALS:       30   (  30A   )


 NUCLEAR REPULSION ENERGY  195.74983609


 Eigenvalues of metric

         1 0.208E+00 0.227E+00 0.234E+00 0.281E+00 0.352E+00 0.360E+00 0.363E+00 0.368E+00


 Contracted 2-electron integrals neglected if value below      1.0D-11
 AO integral compression algorithm  1   Integral accuracy      1.0D-11

     1.573 MB (compressed) written to integral file ( 89.1%)


 NUMBER OF SORTED TWO-ELECTRON INTEGRALS:     198765.     BUFFER LENGTH:  32768
 NUMBER OF SEGMENTS:   1  SEGMENT LENGTH:     198765      RECORD LENGTH: 524288

 Memory used in sort:       0.76 MW

 SORT1 READ      224802. AND WROTE      193897. INTEGRALS IN      1 RECORDS. CPU TIME:     0.01 SEC, REAL TIME:     0.01 SEC
 SORT2 READ      193897. AND WROTE      198765. INTEGRALS IN      6 RECORDS. CPU TIME:     0.02 SEC, REAL TIME:     0.02 SEC

 FILE SIZES:   FILE 1:    31.8 MBYTE,  FILE 4:     4.2 MBYTE,   TOTAL:     36.0 MBYTE

 OPERATOR DM      FOR CENTER  0  COORDINATES:    0.000000    0.000000    0.000000


 **********************************************************************************************************************************
 DATASETS  * FILE   NREC   LENGTH (MB)   RECORD NAMES
              1      19       31.10       500      610      700      900      950      970     1000      129      960     1100   
                                          VAR    BASINP    GEOM    SYMINP    ZMAT    AOBASIS   BASIS     P2S    ABASIS      S 
                                         1400     1410     1200     1210     1080     1600     1650     1300     1700   
                                           T        V       H0       H01     AOSYM     SMH    MOLCAS    ERIS     OPER   

 PROGRAMS   *        TOTAL       INT
 CPU TIMES  *         0.72      0.59
 REAL TIME  *         1.10 SEC
 DISK USED  *        36.55 MB      
 **********************************************************************************************************************************

 Density functional group M05=XC-M05
 Functional: XC-M05(via MFM 1.6)                                               Gradient terms: 1
 Use grid at  1800.2


 Exact exchange will be calculated, factor:  0.2800

 Functional: XC-M05                    Factor:  1.0000

 Generated new metagrid on record  1800.2 with target accuracy 1.0D-06 and 52852 points in CPU time    1.3
 Computed new grid on record 1800.1 in CPU time    1.4
   32369 words reserved for DFT integration

 PROGRAM * UKS-SCF (Unrestricted Kohn-Sham)     Authors: W. Meyer, H.-J. Werner, P.J. Knowles, 1993

 NUMBER OF ELECTRONS:      21+   21-    SPACE SYMMETRY=1    SPIN SYMMETRY: Singlet 
 CONVERGENCE THRESHOLDS:    1.00E-05 (Density)    1.00E-06 (Energy)
 MAX. NUMBER OF ITERATIONS:       60
 INTERPOLATION TYPE:            DIIS
 INTERPOLATION STEPS:              2 (START)      1 (STEP)
 LEVEL SHIFTS:                 -0.20 (ALPHA)  -0.20 (BETA) 



 Use fine grid record 1800.2 for energy threshold  1.0D-06
 Orbital guess generated from atomic densities. Full valence occupancy:   21

 Molecular orbital dump at record        2200.2

 Initial alpha occupation  21
 Initial beta  occupation  21

 ITERATION    DDIFF          GRAD             ENERGY        2-EL.EN.            DIPOLE MOMENTS         DIIS
    1      0.000D+00      0.000D+00      -230.45744999    612.758495    0.61171   -1.00546    0.32375    0
    2      0.485D-01      0.170D-01      -230.71282638    597.968396    0.10606   -0.29480    0.05980    1
    3      0.471D-02      0.219D-02      -230.71625489    598.980077    0.17781   -0.37596    0.12023    2
    4      0.136D-02      0.424D-03      -230.71649182    598.945445    0.18050   -0.37671    0.12724    3
    5      0.440D-03      0.134D-03      -230.71651671    598.935832    0.18333   -0.37798    0.12912    4
    6      0.184D-03      0.358D-04      -230.71651943    598.934449    0.18337   -0.37617    0.12851    5
    7      0.418D-04      0.102D-04      -230.71651958    598.935301    0.18365   -0.37663    0.12871    5
    8      0.103D-04      0.311D-05      -230.71651959    598.934732    0.18359   -0.37643    0.12865    6
    9      0.284D-05      0.534D-06      -230.71651959    598.934892    0.18359   -0.37644    0.12866    6
   10      0.414D-06      0.102D-06      -230.71651959    598.934827    0.18359   -0.37644    0.12865    6

 Final alpha occupancy:  21
 Final beta  occupancy:  21

 !UKS STATE 1.1 Energy               -230.716519589919
 Nuclear energy                       195.74983609
 One-electron energy                 -700.98168248
 Two-electron energy                  299.46741347
 Density functional                   -24.95208668     XC-M05=-24.95208668
 Virial quotient                       -1.01558703
 !UKS STATE 1.1 Dipole moment           0.18358919    -0.37643888     0.12865387
 Dipole moment /Debye                   0.46660661    -0.95674954     0.32698411

 Orbital energies for positive spin:

         1.1          2.1          3.1          4.1          5.1          6.1          7.1          8.1          9.1         10.1
    -18.974303   -10.135819   -10.121876   -10.076260   -10.073179    -0.982094    -0.760377    -0.674761    -0.650568    -0.551282

        11.1         12.1         13.1         14.1         15.1         16.1         17.1         18.1         19.1         20.1
     -0.457307    -0.432785    -0.415825    -0.396061    -0.371122    -0.363027    -0.345462    -0.319884    -0.310352    -0.202491

        21.1         22.1         23.1
     -0.126074     0.302739     0.384913

 Orbital energies for negative spin:

         1.1          2.1          3.1          4.1          5.1          6.1          7.1          8.1          9.1         10.1
    -18.974303   -10.135819   -10.121876   -10.076260   -10.073179    -0.982094    -0.760377    -0.674761    -0.650568    -0.551282

        11.1         12.1         13.1         14.1         15.1         16.1         17.1         18.1         19.1         20.1
     -0.457307    -0.432785    -0.415825    -0.396061    -0.371122    -0.363027    -0.345462    -0.319884    -0.310352    -0.202491

        21.1         22.1         23.1
     -0.126074     0.302739     0.384913

 HOMO     21.1    -0.126074 =      -3.4306eV
 LUMO     22.1     0.302739 =       8.2380eV
 LUMO-HOMO         0.428813 =      11.6686eV

 EXPECTATION VALUE OF S**2:             0.00000000

 Natural orbitals saved to record    2200.2 (Orbital set 3)

 Orbital spaces for UNO-CAS (Min. occupation: 0.020  Max. occupation: 1.980):

 Closed:       21
 Active:        0


 **********************************************************************************************************************************
 DATASETS  * FILE   NREC   LENGTH (MB)   RECORD NAMES
              1      20       32.79       500      610      700      900      950      970     1000      129      960     1100   
                                          VAR    BASINP    GEOM    SYMINP    ZMAT    AOBASIS   BASIS     P2S    ABASIS      S 
                                         1400     1410     1200     1210     1080     1600     1650     1300     1700     1800   
                                           T        V       H0       H01     AOSYM     SMH    MOLCAS    ERIS     OPER     GRID   

              2       5        3.05       700     1000      520     1800     2200   
                                         GEOM     BASIS   MCVARS    GRID      UKS  

 PROGRAMS   *        TOTAL       UKS       INT
 CPU TIMES  *        11.44     10.72      0.59
 REAL TIME  *        12.08 SEC
 DISK USED  *        36.55 MB      
 **********************************************************************************************************************************


 PROGRAM * Intrinsic Basis Bonding Analysis (IBBA)          Author: G. Knizia

 Molecular orbitals read from record     2200.2  Type=UKS/ALPHA (state 1.1)
 Fock matrix read from record            2200.2  Type=UKS/TOTAL (state 1.1)
 Orbital energies read from record       2200.2  Type=UKS/ALPHA (state 1.1)
 Density matrix read from record         2200.2  Type=UKS/CHARGE (state 1.1)

 Number of core orbitals:           5 (   5 )
 Number of closed-shell orbitals:  16 (  16 )

 Basis set MINAO-AUTO-PP generated.      Number of basis functions:   35 

 Polarized AO type:                A = (O Ot + (1-O)(1-Ot)) P12
 Orthogonalization method:         Symmetric (Loewdin)
 Localization functional:          L = sum[A,i] <i|n_A|i>^4 -> max

 Localization group 1:  21 orbitals, occupancy  2.000
 Iterative localization: IB/PM,    7 iter; Final gradient 0.31E-08

 Bond order analysis:       [THRPRINT= 0.020]

   CEN ATOM   CEN ATOM     WIBERG.BO      RENORM.BO
     1   O  -   2   C       1.018770       1.017672
     1   O  -   5   C       0.988148       0.978688
     1   O  -   4   H       0.031286       0.018559
     1   O  -  15   H       0.029568       0.017640
     1   O  -   7   C       0.029538       0.015550
     1   O  -   6   H       0.022827       0.013770

     2   C  -   1   O       1.018770       1.017672
     2   C  -   3   H       0.955478       0.974365
     2   C  -  15   H       0.953090       0.945820
     2   C  -   4   H       0.952301       0.943781

     3   H  -   2   C       0.955478       0.974365

     4   H  -   2   C       0.952301       0.943781
     4   H  -   1   O       0.031286       0.018559

     5   C  -   8   C       1.003366       0.995915
     5   C  -   7   C       0.995066       0.967009
     5   C  -   1   O       0.988148       0.978688
     5   C  -   6   H       0.934980       0.930662

     6   H  -   5   C       0.934980       0.930662
     6   H  -   1   O       0.022827       0.013770

     7   C  -   5   C       0.995066       0.967009
     7   C  -  14   H       0.965323       0.987546
     7   C  -  12   H       0.964404       0.990697
     7   C  -  13   H       0.964283       0.986564
     7   C  -   1   O       0.029538       0.015550

     8   C  -   5   C       1.003366       0.995915
     8   C  -   9   H       0.965578       0.991091
     8   C  -  11   H       0.963327       0.986511
     8   C  -  10   H       0.963136       0.988246

     9   H  -   8   C       0.965578       0.991091

    10   H  -   8   C       0.963136       0.988246

    11   H  -   8   C       0.963327       0.986511

    12   H  -   7   C       0.964404       0.990697

    13   H  -   7   C       0.964283       0.986564

    14   H  -   7   C       0.965323       0.987546

    15   H  -   2   C       0.953090       0.945820
    15   H  -   1   O       0.029568       0.017640


 Valency analysis:

   CEN ATOM   TOT.VALENCE
     1   O       2.162485
     2   C       3.899241
     3   H       0.980050
     4   H       0.987286
     5   C       3.947236
     6   H       0.987408
     7   C       3.934687
     8   C       3.932427
     9   H       0.981809
    10   H       0.980319
    11   H       0.981277
    12   H       0.981480
    13   H       0.981877
    14   H       0.982889
    15   H       0.987058

 Total charge composition:

   CEN ATOM         s          p       ELECTRONS ->P.CHARGE
     1   O       3.65172    4.58576      8.23749   -0.23749
     2   C       3.00989    3.24623      6.25612   -0.25612
     3   H       0.85876                 0.85876    0.14124
     4   H       0.88724                 0.88724    0.11276
     5   C       2.96766    3.02564      5.99331    0.00669
     6   H       0.88779                 0.88779    0.11221
     7   C       3.00354    3.40537      6.40891   -0.40891
     8   C       3.00184    3.39584      6.39767   -0.39767
     9   H       0.86513                 0.86513    0.13487
    10   H       0.85971                 0.85971    0.14029
    11   H       0.86317                 0.86317    0.13683
    12   H       0.86391                 0.86391    0.13609
    13   H       0.86538                 0.86538    0.13462
    14   H       0.86919                 0.86919    0.13081
    15   H       0.88624                 0.88624    0.11376

 Total charge composition, AO contributions:

   CEN ATOM SHL      SPHERICAL COMPONENTS
     1   O  1s       1.99728
     1   O  2s       1.65445
     1   O  2p       1.29491    1.41292    1.87794

     2   C  1s       1.99204
     2   C  2s       1.01785
     2   C  2p       0.89768    1.18532    1.16323

     3   H  1s       0.85876

     4   H  1s       0.88724

     5   C  1s       1.99254
     5   C  2s       0.97512
     5   C  2p       1.02841    0.89222    1.10502

     6   H  1s       0.88779

     7   C  1s       1.99148
     7   C  2s       1.01205
     7   C  2p       1.16129    1.12850    1.11558

     8   C  1s       1.99140
     8   C  2s       1.01043
     8   C  2p       1.05211    1.16816    1.17557

     9   H  1s       0.86513

    10   H  1s       0.85971

    11   H  1s       0.86317

    12   H  1s       0.86391

    13   H  1s       0.86538

    14   H  1s       0.86919

    15   H  1s       0.88624

 Summary of localized orbital composition:   [THRPRINT= 0.020]

   ORB  GRP  ORB.ENERGY      CENTERS/CHARGES
     1   1   -18.812865      O  1   2.000
     2   1   -10.035832      C  5   2.000
     3   1   -10.012911      C  2   2.000
     4   1    -9.961861      C  8   2.000
     5   1    -9.959605      C  7   2.000
     6   1    -0.680211      O  1   1.171   C  2   0.820
     7   1    -0.658292      O  1   1.178   C  5   0.804
     8   1    -0.549034      C  5   1.002   C  8   0.983
     9   1    -0.543299      C  5   0.996   C  7   0.996
    10   1    -0.499711      C  2   1.130   H  4   0.869
    11   1    -0.499521      C  2   1.142   H  3   0.850
    12   1    -0.499272      C  2   1.130   H 15   0.868
    13   1    -0.496240      C  5   1.121   H  6   0.865
    14   1    -0.496128      O  1   1.971   (other: 0.029)
    15   1    -0.482439      C  8   1.130   H  9   0.859
    16   1    -0.481872      C  7   1.128   H 14   0.863
    17   1    -0.481769      C  7   1.131   H 12   0.857
    18   1    -0.476024      C  8   1.137   H 10   0.853
    19   1    -0.475577      C  7   1.132   H 13   0.860
    20   1    -0.474335      C  8   1.134   H 11   0.857
    21   1    -0.164122      O  1   1.910   (other: 0.090)

 Localized orbitals saved to record      2200.2  (orbital set 4)


 **********************************************************************************************************************************
 DATASETS  * FILE   NREC   LENGTH (MB)   RECORD NAMES
              1      20       32.79       500      610      700      900      950      970     1000      129      960     1100   
                                          VAR    BASINP    GEOM    SYMINP    ZMAT    AOBASIS   BASIS     P2S    ABASIS      S 
                                         1400     1410     1200     1210     1080     1600     1650     1300     1700     1800   
                                           T        V       H0       H01     AOSYM     SMH    MOLCAS    ERIS     OPER     GRID   

              2       5        3.06       700     1000      520     1800     2200   
                                         GEOM     BASIS   MCVARS    GRID      UKS  

 PROGRAMS   *        TOTAL      IBBA       UKS       INT
 CPU TIMES  *        11.48      0.04     10.72      0.59
 REAL TIME  *        12.21 SEC
 DISK USED  *        36.55 MB      
 **********************************************************************************************************************************
 Molecular orbitals read from record     2200.2  Type=UKS/LOCAL(IBO)  
 Occupation numbers read from record     2200.2  Type=UKS/LOCAL(IBO)  
 Orbital energies read from record       2200.2  Type=UKS/LOCAL(IBO)  
 Redundancy group numbers read from rec  2200.2  Type=UKS/BETA (state 1.1)

 IBBA/STO-3G energy=      0.000000000000

        UKS-SCF 
   -230.71651959
 **********************************************************************************************************************************
 Molpro calculation terminated
