
 Primary working directories    : /tmp/sb13343
 Secondary working directories  : /tmp/sb13343
 Wavefunction directory         : /panfs/panasas01/chem/sb13343/wfu/
 Main file repository           : /tmp/sb13343/

 SHA1      : b4a5b34a9e711420743f49e6833241d17c61fb3c
 NAME      : 2099.9.b4a5b34
 ARCHNAME  : linux/x86_64_openmp
 FC        : /cm/shared/languages/GCC-6.1/bin/gfortran
 BLASLIB   : -lblas
 id        : simonbennie

 Nodes     nprocs
 node33-017    1

 Using customized tuning parameters: mindgm=1; mindgv=20; mindgc=4; mindgr=1; noblas=0; minvec=7
 default implementation of scratch files=df  

 memory,500,m
 geomtyp=xyz
 nosym
 noorient
 geometry={
 O          0.25818        0.93788        0.04074
 C          1.63656        1.04230        0.32330
 H          1.89907        2.10041        0.23555
 H          2.26234        0.47024       -0.37847
 C         -0.29581       -0.36510        0.22961
 H          0.07373       -0.77023        1.18842
 C          0.09996       -1.32219       -0.89979
 C         -1.80707       -0.17660        0.31883
 H         -2.30941       -1.13436        0.49338
 H         -2.05917        0.50650        1.13581
 H         -2.19015        0.25071       -0.61475
 H         -0.34617       -2.31074       -0.74107
 H         -0.25158       -0.93408       -1.86253
 H          1.18531       -1.45552       -0.96063
 H          1.86878        0.70360        1.34661
 }
 basis={ default,svp }
 {ks,B3LYP3,direct;wf,42,1,0}
 {ibba,bonds=1}

 Variables initialized (895), CPU time= 0.00 sec
 Commands  initialized (725), CPU time= 0.02 sec, 591 directives.
 Default parameters read. Elapsed time= 0.10 sec

 Checking input...
 Passed
1


                                         ***  PROGRAM SYSTEM MOLPRO  ***
                                       Copyright, TTI GmbH Stuttgart, 2015
                                    Version 2099.9 linked May 26 2017 16:03:21


 **********************************************************************************************************************************
 LABEL *                                                                                 
  64 bit serial version                                                                  DATE: 07-Jun-17          TIME: 21:54:10  
 **********************************************************************************************************************************

 SHA1:             b4a5b34a9e711420743f49e6833241d17c61fb3c
 **********************************************************************************************************************************
 SETTING GEOMTYP        =    XYZ

 Variable memory set to  500000000 words,  buffer space 

 ZSYMEL=NOSYM

 SETTING BASIS          =    SVP


 Recomputing integrals since basis changed


 Using spherical harmonics

 Library entry O      S def2-SVP             selected for orbital group  1
 Library entry O      P def2-SVP             selected for orbital group  1
 Library entry O      D def2-SVP             selected for orbital group  1
 Library entry C      S def2-SVP             selected for orbital group  2
 Library entry C      P def2-SVP             selected for orbital group  2
 Library entry C      D def2-SVP             selected for orbital group  2
 Library entry H      S def2-SVP             selected for orbital group  3
 Library entry H      P def2-SVP             selected for orbital group  3


 PROGRAM * SEWARD (Integral evaluation for generally contracted gaussian basis sets)     Author: Roland Lindh, 1990

 Geometry written to block  1 of record 700


 Point group  C1  



 ATOMIC COORDINATES

 NR  ATOM    CHARGE       X              Y              Z

   1  O       8.00    0.487889491    1.772336338    0.076987442
   2  C       6.00    3.092650186    1.969661540    0.610948456
   3  H       1.00    3.588722191    3.969199649    0.445124989
   4  H       1.00    4.275203001    0.888624813   -0.715204646
   5  C       6.00   -0.558999885   -0.689939008    0.433900015
   6  H       1.00    0.139329507   -1.455523753    2.245788321
   7  C       6.00    0.188897023   -2.498576985   -1.700356670
   8  C       6.00   -3.414867388   -0.333725634    0.602501380
   9  H       1.00   -4.364152409   -2.143629727    0.932353075
  10  H       1.00   -3.891267344    0.957146282    2.146369830
  11  H       1.00   -4.138783672    0.473773237   -1.161709135
  12  H       1.00   -0.654166493   -4.366665745   -1.400419339
  13  H       1.00   -0.475417298   -1.765155378   -3.519671599
  14  H       1.00    2.239911273   -2.750534169   -1.815327607
  15  H       1.00    3.531482387    1.329611301    2.544724097

 Bond lengths in Bohr (Angstrom)

  1- 2  2.666238902   1- 5  2.699289504   2- 3  2.066818209   2- 4  2.079844613   2-15  2.083680934
       ( 1.410912866)       ( 1.428402491)       ( 1.093713095)       ( 1.100606371)       ( 1.102636465)

  5- 6  2.087276497   5- 7  2.895785336   5- 8  2.882931422   7-12  2.071345966   7-13  2.071020903
       ( 1.104539155)       ( 1.532383608)       ( 1.525581609)       ( 1.096109081)       ( 1.095937065)

  7-14  2.069628032   8- 9  2.070192508   8-10  2.068051501   8-11  2.070880961
       ( 1.095199989)       ( 1.095498697)       ( 1.094365725)       ( 1.095863011)

 Bond angles

  1- 2- 3  106.85884507   1- 2- 4  112.91125973   1- 2-15  111.64621834   1- 5- 6  108.63888518

  1-5-7  111.84608248   1-5-8  106.21369660   2-1-5  114.82992588   3-2-4  108.37425913

  3- 2-15  108.72850466   4- 2-15  108.20064699   5- 7-12  110.57572754   5- 7-13  110.08520206

  5- 7-14  111.89623115   5- 8- 9  110.82645738   5- 8-10  110.42517473   5- 8-11  110.16013005

  6- 5- 7  108.92239636   6- 5- 8  109.02480146   7- 5- 8  112.09364518   9- 8-10  108.73162751

  9- 8-11  108.44218100  10- 8-11  108.18344616  12- 7-13  108.42317703  12- 7-14  107.55382926

 13- 7-14  108.19151953

 NUCLEAR CHARGE:                   42
 NUMBER OF PRIMITIVE AOS:         195
 NUMBER OF SYMMETRY AOS:          190
 NUMBER OF CONTRACTIONS:          120   ( 120A   )
 NUMBER OF CORE ORBITALS:           5   (   5A   )
 NUMBER OF VALENCE ORBITALS:       30   (  30A   )


 NUCLEAR REPULSION ENERGY  195.74983609


 Eigenvalues of metric

         1 0.241E-02 0.514E-02 0.104E-01 0.150E-01 0.214E-01 0.243E-01 0.289E-01 0.305E-01


 Contracted 2-electron integrals neglected if value below      1.0D-11
 AO integral compression algorithm  1   Integral accuracy      1.0D-11

     97.518 MB (compressed) written to integral file ( 44.4%)


 NUMBER OF SORTED TWO-ELECTRON INTEGRALS:   26357430.     BUFFER LENGTH:  32768
 NUMBER OF SEGMENTS:   2  SEGMENT LENGTH:   15997996      RECORD LENGTH: 524288

 Memory used in sort:      16.56 MW

 SORT1 READ    27501115. AND WROTE    22923365. INTEGRALS IN     67 RECORDS. CPU TIME:     0.32 SEC, REAL TIME:     0.68 SEC
 SORT2 READ    22923365. AND WROTE    26357430. INTEGRALS IN    372 RECORDS. CPU TIME:     0.53 SEC, REAL TIME:     0.73 SEC

 FILE SIZES:   FILE 1:   128.3 MBYTE,  FILE 4:   281.1 MBYTE,   TOTAL:    409.3 MBYTE

 OPERATOR DM      FOR CENTER  0  COORDINATES:    0.000000    0.000000    0.000000


 **********************************************************************************************************************************
 DATASETS  * FILE   NREC   LENGTH (MB)   RECORD NAMES
              1      19      116.03       500      610      700      900      950      970     1000      129      960     1100   
                                          VAR    BASINP    GEOM    SYMINP    ZMAT    AOBASIS   BASIS     P2S    ABASIS      S 
                                         1400     1410     1200     1210     1080     1600     1650     1300     1700   
                                           T        V       H0       H01     AOSYM     SMH    MOLCAS    ERIS     OPER   

 PROGRAMS   *        TOTAL       INT
 CPU TIMES  *         3.73      3.57
 REAL TIME  *         4.93 SEC
 DISK USED  *       409.85 MB      
 **********************************************************************************************************************************

 Density functional group B3LYP3=B88+DIRAC+LYP+VWN3
 Functional: B88(Automatically generated (new) B88)                            Gradient terms: 1
 Functional: DIRAC(Automatically generated (new) DIRAC)                        Gradient terms: 0
 Functional: LYP(Automatically generated (new) LYP)                            Gradient terms: 1
 Functional: VWN3(Automatically generated (new) VWN3)                          Gradient terms: 0
 Use grid at  1800.2


 Exact exchange will be calculated, factor:  0.2000

 Functional: B88                       Factor:  0.7200
 Functional: DIRAC                     Factor:  0.0800
 Functional: LYP                       Factor:  0.8100
 Functional: VWN3                      Factor:  0.1900

 Generated new metagrid on record  1800.2 with target accuracy 1.0D-06 and 52852 points in CPU time    1.4
 Computed new grid on record 1800.1 in CPU time    1.6
   99539 words reserved for DFT integration

 PROGRAM * RKS-SCF (Restricted closed shell Kohn-Sham)     Authors: W. Meyer, H.-J. Werner, P.J. Knowles, 1993

 NUMBER OF ELECTRONS:      21+   21-    SPACE SYMMETRY=1    SPIN SYMMETRY: Singlet 
 CONVERGENCE THRESHOLDS:    1.00E-05 (Density)    1.00E-06 (Energy)
 MAX. NUMBER OF ITERATIONS:       60
 INTERPOLATION TYPE:            DIIS
 INTERPOLATION STEPS:              2 (START)      1 (STEP)
 LEVEL SHIFTS:                  0.00 (CLOSED)  0.00 (OPEN) 



 Use fine grid record 1800.2 for energy threshold  1.0D-06
 Orbital guess generated from atomic densities. Full valence occupancy:   21

 Molecular orbital dump at record        2100.2

 Initial occupancy:  21

 ITERATION    DDIFF          GRAD             ENERGY        2-EL.EN.            DIPOLE MOMENTS         DIIS   ORB.
    1      0.000D+00      0.000D+00      -233.31998191    615.393049    0.48572   -0.74639    0.26897    0    start
    2      0.000D+00      0.859D-02      -233.25144266    586.615077   -0.10471    0.18247   -0.12323    1    diag
    3      0.197D-01      0.104D-01      -233.48624172    602.934027    0.30922   -0.45243    0.18553    2    diag
    4      0.121D-01      0.118D-02      -233.48821756    602.364567    0.25001   -0.34978    0.13082    3    diag
    5      0.114D-02      0.441D-03      -233.48851835    602.372978    0.25589   -0.37864    0.13042    4    diag
    6      0.358D-03      0.793D-04      -233.48852785    602.412937    0.25717   -0.37556    0.13491    5    diag
    7      0.839D-04      0.336D-04      -233.48853001    602.408125    0.25727   -0.37648    0.13533    6    diag
    8      0.275D-04      0.351D-05      -233.48853003    602.410614    0.25732   -0.37628    0.13463    7    diag
    9      0.407D-05      0.772D-06      -233.48853003    602.410987    0.25730   -0.37637    0.13493    0    orth

 Final occupancy:  21

 !RKS STATE 1.1 Energy               -233.488530032406
 Nuclear energy                       195.74983609
 One-electron energy                 -702.92434127
 Two-electron energy                  301.20549345
 SCF exchange energy                  -32.47233040     Factor= 0.2000
 Density functional                   -27.51951831     B88=-32.51101830 DIRAC=-29.29693859 LYP= -1.36990399 VWN3= -3.46425166
 Virial quotient                       -1.01109805
 !RKS STATE 1.1 Dipole moment           0.25730441    -0.37637317     0.13493214
 Dipole moment /Debye                   0.65395975    -0.95658252     0.34294083

 Orbital energies:

         1.1          2.1          3.1          4.1          5.1          6.1          7.1          8.1          9.1         10.1
    -19.123649   -10.232376   -10.225837   -10.176758   -10.173614    -1.012890    -0.772261    -0.685284    -0.664070    -0.570557

        11.1         12.1         13.1         14.1         15.1         16.1         17.1         18.1         19.1         20.1
     -0.494254    -0.462433    -0.454277    -0.423530    -0.395814    -0.387882    -0.377722    -0.352449    -0.344704    -0.305768

        21.1         22.1         23.1
     -0.252614     0.054171     0.082646

 HOMO     21.1    -0.252614 =      -6.8740eV
 LUMO     22.1     0.054171 =       1.4741eV
 LUMO-HOMO         0.306786 =       8.3481eV


 **********************************************************************************************************************************
 DATASETS  * FILE   NREC   LENGTH (MB)   RECORD NAMES
              1      20      117.72       500      610      700      900      950      970     1000      129      960     1100   
                                          VAR    BASINP    GEOM    SYMINP    ZMAT    AOBASIS   BASIS     P2S    ABASIS      S 
                                         1400     1410     1200     1210     1080     1600     1650     1300     1700     1800   
                                           T        V       H0       H01     AOSYM     SMH    MOLCAS    ERIS     OPER     GRID   

              2       5        3.30       700     1000      520     1800     2100   
                                         GEOM     BASIS   MCVARS    GRID      RKS  

 PROGRAMS   *        TOTAL        KS       INT
 CPU TIMES  *        18.61     14.88      3.57
 REAL TIME  *        20.30 SEC
 DISK USED  *       409.85 MB      
 **********************************************************************************************************************************


 PROGRAM * Intrinsic Basis Bonding Analysis (IBBA)          Author: G. Knizia

 Molecular orbitals read from record     2100.2  Type=RKS/CANONICAL (state 1.1)
 Fock matrix read from record            2100.2  Type=RKS/TOTAL (state 1.1)
 Orbital energies read from record       2100.2  Type=RKS/CANONICAL (state 1.1)
 Density matrix read from record         2100.2  Type=RKS/CHARGE (state 1.1)

 Number of core orbitals:           5 (   5 )
 Number of closed-shell orbitals:  16 (  16 )

 Basis set MINAO-AUTO-PP generated.      Number of basis functions:   35 

 Polarized AO type:                A = (O Ot + (1-O)(1-Ot)) P12
 Orthogonalization method:         Symmetric (Loewdin)
 Localization functional:          L = sum[A,i] <i|n_A|i>^4 -> max

 Localization group 1:  21 orbitals, occupancy  2.000
 Iterative localization: IB/PM,    7 iter; Final gradient 0.26E-08

 Bond order analysis:       [THRPRINT= 0.020]

   CEN ATOM   CEN ATOM     WIBERG.BO      RENORM.BO
     1   O  -   2   C       0.988842       1.018315
     1   O  -   5   C       0.946241       0.963681
     1   O  -   4   H       0.033697       0.019817
     1   O  -  15   H       0.032315       0.019158
     1   O  -   7   C       0.029870       0.015547
     1   O  -   6   H       0.025205       0.014994

     2   C  -   1   O       0.988842       1.018315
     2   C  -   3   H       0.959294       0.978078
     2   C  -  15   H       0.950849       0.938233
     2   C  -   4   H       0.950832       0.937586

     3   H  -   2   C       0.959294       0.978078

     4   H  -   2   C       0.950832       0.937586
     4   H  -   1   O       0.033697       0.019817

     5   C  -   8   C       1.012640       1.005871
     5   C  -   7   C       1.004782       0.980657
     5   C  -   1   O       0.946241       0.963681
     5   C  -   6   H       0.927678       0.918882

     6   H  -   5   C       0.927678       0.918882
     6   H  -   1   O       0.025205       0.014994

     7   C  -   5   C       1.004782       0.980657
     7   C  -  14   H       0.964123       0.984013
     7   C  -  12   H       0.962150       0.986318
     7   C  -  13   H       0.961048       0.979481
     7   C  -   1   O       0.029870       0.015547

     8   C  -   5   C       1.012640       1.005871
     8   C  -   9   H       0.964628       0.987360
     8   C  -  10   H       0.961821       0.984174
     8   C  -  11   H       0.960468       0.979656

     9   H  -   8   C       0.964628       0.987360

    10   H  -   8   C       0.961821       0.984174

    11   H  -   8   C       0.960468       0.979656

    12   H  -   7   C       0.962150       0.986318

    13   H  -   7   C       0.961048       0.979481

    14   H  -   7   C       0.964123       0.984013

    15   H  -   2   C       0.950849       0.938233
    15   H  -   1   O       0.032315       0.019158


 Valency analysis:

   CEN ATOM   TOT.VALENCE
     1   O       2.108729
     2   C       3.870534
     3   H       0.979303
     4   H       0.988547
     5   C       3.917387
     6   H       0.990642
     7   C       3.943289
     8   C       3.942123
     9   H       0.984090
    10   H       0.981462
    11   H       0.982653
    12   H       0.983124
    13   H       0.982846
    14   H       0.984199
    15   H       0.988646

 Total charge composition:

   CEN ATOM         s          p       ELECTRONS ->P.CHARGE
     1   O       3.59606    4.79977      8.39584   -0.39584
     2   C       3.01255    3.15900      6.17155   -0.17155
     3   H       0.85614                 0.85614    0.14386
     4   H       0.89298                 0.89298    0.10702
     5   C       2.95115    2.92861      5.87976    0.12024
     6   H       0.90326                 0.90326    0.09674
     7   C       3.02267    3.37876      6.40143   -0.40143
     8   C       3.02030    3.36588      6.38618   -0.38618
     9   H       0.87386                 0.87386    0.12614
    10   H       0.86385                 0.86385    0.13615
    11   H       0.86829                 0.86829    0.13171
    12   H       0.87009                 0.87009    0.12991
    13   H       0.86903                 0.86903    0.13097
    14   H       0.87430                 0.87430    0.12570
    15   H       0.89344                 0.89344    0.10656

 Total charge composition, AO contributions:

   CEN ATOM SHL      SPHERICAL COMPONENTS
     1   O  1s       1.99718
     1   O  2s       1.59889
     1   O  2p       1.38957    1.52474    1.88546

     2   C  1s       1.99174
     2   C  2s       1.02081
     2   C  2p       0.83391    1.17837    1.14673

     3   H  1s       0.85614

     4   H  1s       0.89298

     5   C  1s       1.99233
     5   C  2s       0.95882
     5   C  2p       1.00990    0.83327    1.08544

     6   H  1s       0.90326

     7   C  1s       1.99110
     7   C  2s       1.03157
     7   C  2p       1.15177    1.11929    1.10769

     8   C  1s       1.99103
     8   C  2s       1.02927
     8   C  2p       1.04669    1.15408    1.16512

     9   H  1s       0.87386

    10   H  1s       0.86385

    11   H  1s       0.86829

    12   H  1s       0.87009

    13   H  1s       0.86903

    14   H  1s       0.87430

    15   H  1s       0.89344

 Summary of localized orbital composition:   [THRPRINT= 0.020]

   ORB  GRP  ORB.ENERGY      CENTERS/CHARGES
     1   1   -18.980517      O  1   2.000
     2   1   -10.134545      C  5   2.000
     3   1   -10.116962      C  2   2.000
     4   1   -10.062653      C  7   2.000
     5   1   -10.058765      C  8   2.000
     6   1    -0.757249      O  1   1.251   C  2   0.741
     7   1    -0.739254      O  1   1.269   C  5   0.713
     8   1    -0.576065      C  5   0.996   C  8   0.991
     9   1    -0.574647      C  7   1.006   C  5   0.986
    10   1    -0.537523      O  1   1.962   (other: 0.038)
    11   1    -0.519151      C  2   1.126   H  4   0.873
    12   1    -0.518580      C  2   1.124   H 15   0.874
    13   1    -0.517393      C  2   1.144   H  3   0.849
    14   1    -0.513989      C  5   1.102   H  6   0.879
    15   1    -0.501550      C  7   1.123   H 12   0.862
    16   1    -0.499710      C  7   1.122   H 14   0.867
    17   1    -0.498649      C  8   1.119   H  9   0.867
    18   1    -0.495399      C  7   1.128   H 13   0.862
    19   1    -0.492302      C  8   1.128   H 11   0.861
    20   1    -0.492062      C  8   1.133   H 10   0.857
    21   1    -0.301777      O  1   1.909   (other: 0.091)

 Localized orbitals saved to record      2100.2  (orbital set 2)


 **********************************************************************************************************************************
 DATASETS  * FILE   NREC   LENGTH (MB)   RECORD NAMES
              1      20      117.72       500      610      700      900      950      970     1000      129      960     1100   
                                          VAR    BASINP    GEOM    SYMINP    ZMAT    AOBASIS   BASIS     P2S    ABASIS      S 
                                         1400     1410     1200     1210     1080     1600     1650     1300     1700     1800   
                                           T        V       H0       H01     AOSYM     SMH    MOLCAS    ERIS     OPER     GRID   

              2       5        3.42       700     1000      520     1800     2100   
                                         GEOM     BASIS   MCVARS    GRID      RKS  

 PROGRAMS   *        TOTAL      IBBA        KS       INT
 CPU TIMES  *        18.66      0.05     14.88      3.57
 REAL TIME  *        20.45 SEC
 DISK USED  *       409.85 MB      
 **********************************************************************************************************************************
 Molecular orbitals read from record     2100.2  Type=RKS/LOCAL(IBO)  
 Occupation numbers read from record     2100.2  Type=RKS/LOCAL(IBO)  
 Orbital energies read from record       2100.2  Type=RKS/LOCAL(IBO)  
 Redundancy group numbers read from rec  2100.2  Type=RKS/LOCAL(IBO)  

 IBBA/SVP energy=      0.000000000000

        KS-SCF  
   -233.48853003
 **********************************************************************************************************************************
 Molpro calculation terminated
