
 Primary working directories    : /tmp/sb13343
 Secondary working directories  : /tmp/sb13343
 Wavefunction directory         : /panfs/panasas01/chem/sb13343/wfu/
 Main file repository           : /tmp/sb13343/

 SHA1      : b4a5b34a9e711420743f49e6833241d17c61fb3c
 NAME      : 2099.9.b4a5b34
 ARCHNAME  : linux/x86_64_openmp
 FC        : /cm/shared/languages/GCC-6.1/bin/gfortran
 BLASLIB   : -lblas
 id        : simonbennie

 Nodes     nprocs
 node32-020    1

 Using customized tuning parameters: mindgm=1; mindgv=20; mindgc=4; mindgr=1; noblas=0; minvec=7
 default implementation of scratch files=df  

 memory,500,m
 geomtyp=xyz
 nosym
 noorient
 geometry={
 O          0.25818        0.93788        0.04074
 C          1.63656        1.04230        0.32330
 H          1.89907        2.10041        0.23555
 H          2.26234        0.47024       -0.37847
 C         -0.29581       -0.36510        0.22961
 H          0.07373       -0.77023        1.18842
 C          0.09996       -1.32219       -0.89979
 C         -1.80707       -0.17660        0.31883
 H         -2.30941       -1.13436        0.49338
 H         -2.05917        0.50650        1.13581
 H         -2.19015        0.25071       -0.61475
 H         -0.34617       -2.31074       -0.74107
 H         -0.25158       -0.93408       -1.86253
 H          1.18531       -1.45552       -0.96063
 H          1.86878        0.70360        1.34661
 }
 basis={ default,svp }
 {ks,PBE,direct;wf,42,1,0}
 {ibba,bonds=1}

 Variables initialized (895), CPU time= 0.01 sec
 Commands  initialized (725), CPU time= 0.01 sec, 591 directives.
 Default parameters read. Elapsed time= 0.09 sec

 Checking input...
 Passed
1


                                         ***  PROGRAM SYSTEM MOLPRO  ***
                                       Copyright, TTI GmbH Stuttgart, 2015
                                    Version 2099.9 linked May 26 2017 16:03:21


 **********************************************************************************************************************************
 LABEL *                                                                                 
  64 bit serial version                                                                  DATE: 07-Jun-17          TIME: 21:52:00  
 **********************************************************************************************************************************

 SHA1:             b4a5b34a9e711420743f49e6833241d17c61fb3c
 **********************************************************************************************************************************
 SETTING GEOMTYP        =    XYZ

 Variable memory set to  500000000 words,  buffer space 

 ZSYMEL=NOSYM

 SETTING BASIS          =    SVP


 Recomputing integrals since basis changed


 Using spherical harmonics

 Library entry O      S def2-SVP             selected for orbital group  1
 Library entry O      P def2-SVP             selected for orbital group  1
 Library entry O      D def2-SVP             selected for orbital group  1
 Library entry C      S def2-SVP             selected for orbital group  2
 Library entry C      P def2-SVP             selected for orbital group  2
 Library entry C      D def2-SVP             selected for orbital group  2
 Library entry H      S def2-SVP             selected for orbital group  3
 Library entry H      P def2-SVP             selected for orbital group  3


 PROGRAM * SEWARD (Integral evaluation for generally contracted gaussian basis sets)     Author: Roland Lindh, 1990

 Geometry written to block  1 of record 700


 Point group  C1  



 ATOMIC COORDINATES

 NR  ATOM    CHARGE       X              Y              Z

   1  O       8.00    0.487889491    1.772336338    0.076987442
   2  C       6.00    3.092650186    1.969661540    0.610948456
   3  H       1.00    3.588722191    3.969199649    0.445124989
   4  H       1.00    4.275203001    0.888624813   -0.715204646
   5  C       6.00   -0.558999885   -0.689939008    0.433900015
   6  H       1.00    0.139329507   -1.455523753    2.245788321
   7  C       6.00    0.188897023   -2.498576985   -1.700356670
   8  C       6.00   -3.414867388   -0.333725634    0.602501380
   9  H       1.00   -4.364152409   -2.143629727    0.932353075
  10  H       1.00   -3.891267344    0.957146282    2.146369830
  11  H       1.00   -4.138783672    0.473773237   -1.161709135
  12  H       1.00   -0.654166493   -4.366665745   -1.400419339
  13  H       1.00   -0.475417298   -1.765155378   -3.519671599
  14  H       1.00    2.239911273   -2.750534169   -1.815327607
  15  H       1.00    3.531482387    1.329611301    2.544724097

 Bond lengths in Bohr (Angstrom)

  1- 2  2.666238902   1- 5  2.699289504   2- 3  2.066818209   2- 4  2.079844613   2-15  2.083680934
       ( 1.410912866)       ( 1.428402491)       ( 1.093713095)       ( 1.100606371)       ( 1.102636465)

  5- 6  2.087276497   5- 7  2.895785336   5- 8  2.882931422   7-12  2.071345966   7-13  2.071020903
       ( 1.104539155)       ( 1.532383608)       ( 1.525581609)       ( 1.096109081)       ( 1.095937065)

  7-14  2.069628032   8- 9  2.070192508   8-10  2.068051501   8-11  2.070880961
       ( 1.095199989)       ( 1.095498697)       ( 1.094365725)       ( 1.095863011)

 Bond angles

  1- 2- 3  106.85884507   1- 2- 4  112.91125973   1- 2-15  111.64621834   1- 5- 6  108.63888518

  1-5-7  111.84608248   1-5-8  106.21369660   2-1-5  114.82992588   3-2-4  108.37425913

  3- 2-15  108.72850466   4- 2-15  108.20064699   5- 7-12  110.57572754   5- 7-13  110.08520206

  5- 7-14  111.89623115   5- 8- 9  110.82645738   5- 8-10  110.42517473   5- 8-11  110.16013005

  6- 5- 7  108.92239636   6- 5- 8  109.02480146   7- 5- 8  112.09364518   9- 8-10  108.73162751

  9- 8-11  108.44218100  10- 8-11  108.18344616  12- 7-13  108.42317703  12- 7-14  107.55382926

 13- 7-14  108.19151953

 NUCLEAR CHARGE:                   42
 NUMBER OF PRIMITIVE AOS:         195
 NUMBER OF SYMMETRY AOS:          190
 NUMBER OF CONTRACTIONS:          120   ( 120A   )
 NUMBER OF CORE ORBITALS:           5   (   5A   )
 NUMBER OF VALENCE ORBITALS:       30   (  30A   )


 NUCLEAR REPULSION ENERGY  195.74983609


 Eigenvalues of metric

         1 0.241E-02 0.514E-02 0.104E-01 0.150E-01 0.214E-01 0.243E-01 0.289E-01 0.305E-01


 Contracted 2-electron integrals neglected if value below      1.0D-11
 AO integral compression algorithm  1   Integral accuracy      1.0D-11

     97.518 MB (compressed) written to integral file ( 44.4%)


 NUMBER OF SORTED TWO-ELECTRON INTEGRALS:   26357430.     BUFFER LENGTH:  32768
 NUMBER OF SEGMENTS:   2  SEGMENT LENGTH:   15997996      RECORD LENGTH: 524288

 Memory used in sort:      16.56 MW

 SORT1 READ    27501115. AND WROTE    22923365. INTEGRALS IN     67 RECORDS. CPU TIME:     0.34 SEC, REAL TIME:     0.69 SEC
 SORT2 READ    22923365. AND WROTE    26357430. INTEGRALS IN    372 RECORDS. CPU TIME:     0.56 SEC, REAL TIME:     0.73 SEC

 FILE SIZES:   FILE 1:   128.3 MBYTE,  FILE 4:   281.1 MBYTE,   TOTAL:    409.3 MBYTE

 OPERATOR DM      FOR CENTER  0  COORDINATES:    0.000000    0.000000    0.000000


 **********************************************************************************************************************************
 DATASETS  * FILE   NREC   LENGTH (MB)   RECORD NAMES
              1      19      116.03       500      610      700      900      950      970     1000      129      960     1100   
                                          VAR    BASINP    GEOM    SYMINP    ZMAT    AOBASIS   BASIS     P2S    ABASIS      S 
                                         1400     1410     1200     1210     1080     1600     1650     1300     1700   
                                           T        V       H0       H01     AOSYM     SMH    MOLCAS    ERIS     OPER   

 PROGRAMS   *        TOTAL       INT
 CPU TIMES  *         3.84      3.70
 REAL TIME  *         4.99 SEC
 DISK USED  *       409.85 MB      
 **********************************************************************************************************************************

 Density functional group PBE=PBEX+PBEC
 Functional: PBEX(Automatically generated (new) PBEX)                          Gradient terms: 1
 Functional: PBEC(Automatically generated (new) PBEC)                          Gradient terms: 1
 Use grid at  1800.2

 Functional: PBEX                      Factor:  1.0000
 Functional: PBEC                      Factor:  1.0000

 Generated new metagrid on record  1800.2 with target accuracy 1.0D-06 and 52852 points in CPU time    1.3
 Computed new grid on record 1800.1 in CPU time    1.4
   99539 words reserved for DFT integration

 PROGRAM * RKS-SCF (Restricted closed shell Kohn-Sham)     Authors: W. Meyer, H.-J. Werner, P.J. Knowles, 1993

 NUMBER OF ELECTRONS:      21+   21-    SPACE SYMMETRY=1    SPIN SYMMETRY: Singlet 
 CONVERGENCE THRESHOLDS:    1.00E-05 (Density)    1.00E-06 (Energy)
 MAX. NUMBER OF ITERATIONS:       60
 INTERPOLATION TYPE:            DIIS
 INTERPOLATION STEPS:              2 (START)      1 (STEP)
 LEVEL SHIFTS:                  0.00 (CLOSED)  0.00 (OPEN) 



 Use fine grid record 1800.2 for energy threshold  1.0D-06
 Orbital guess generated from atomic densities. Full valence occupancy:   21

 Molecular orbital dump at record        2100.2

 Initial occupancy:  21

 ITERATION    DDIFF          GRAD             ENERGY        2-EL.EN.            DIPOLE MOMENTS         DIIS   ORB.
    1      0.000D+00      0.000D+00      -232.93113755    631.200524    0.47853   -0.70422    0.26432    0    start
    2      0.000D+00      0.101D-01      -232.63336251    590.828940   -0.31092    0.47621   -0.27579    1    diag
    3      0.291D-01      0.152D-01      -233.16613541    616.617424    0.33805   -0.50273    0.21876    2    diag
    4      0.209D-01      0.186D-02      -233.17109797    615.201885    0.21847   -0.29446    0.11455    3    diag
    5      0.218D-02      0.846D-03      -233.17220865    615.234888    0.23002   -0.35202    0.11469    4    diag
    6      0.704D-03      0.176D-03      -233.17225372    615.283349    0.23317   -0.34433    0.12418    5    diag
    7      0.193D-03      0.787D-04      -233.17226530    615.275344    0.23440   -0.34792    0.12623    6    diag
    8      0.660D-04      0.917D-05      -233.17226547    615.281883    0.23449   -0.34717    0.12400    7    diag
    9      0.120D-04      0.285D-05      -233.17226549    615.282810    0.23442   -0.34751    0.12475    8    diag
   10      0.362D-05      0.823D-06      -233.17226549    615.282184    0.23448   -0.34742    0.12469    0    orth

 Final occupancy:  21

 !RKS STATE 1.1 Energy               -233.172265489756
 Nuclear energy                       195.74983609
 One-electron energy                 -702.89428405
 Two-electron energy                  307.64109201
 Density functional                   -33.66890955     PBEX=-32.29657293 PBEC= -1.37233662
 Virial quotient                       -1.01040075
 !RKS STATE 1.1 Dipole moment           0.23447864    -0.34741853     0.12469031
 Dipole moment /Debye                   0.59594623    -0.88299200     0.31691040

 Orbital energies:

         1.1          2.1          3.1          4.1          5.1          6.1          7.1          8.1          9.1         10.1
    -18.749135    -9.940406    -9.931203    -9.884854    -9.882131    -0.925744    -0.699777    -0.616732    -0.597365    -0.509415

        11.1         12.1         13.1         14.1         15.1         16.1         17.1         18.1         19.1         20.1
     -0.443037    -0.410678    -0.401162    -0.372965    -0.347410    -0.339623    -0.330490    -0.306178    -0.298259    -0.257537

        21.1         22.1         23.1
     -0.202110     0.034752     0.064062

 HOMO     21.1    -0.202110 =      -5.4997eV
 LUMO     22.1     0.034752 =       0.9456eV
 LUMO-HOMO         0.236862 =       6.4453eV


 **********************************************************************************************************************************
 DATASETS  * FILE   NREC   LENGTH (MB)   RECORD NAMES
              1      20      117.72       500      610      700      900      950      970     1000      129      960     1100   
                                          VAR    BASINP    GEOM    SYMINP    ZMAT    AOBASIS   BASIS     P2S    ABASIS      S 
                                         1400     1410     1200     1210     1080     1600     1650     1300     1700     1800   
                                           T        V       H0       H01     AOSYM     SMH    MOLCAS    ERIS     OPER     GRID   

              2       5        3.30       700     1000      520     1800     2100   
                                         GEOM     BASIS   MCVARS    GRID      RKS  

 PROGRAMS   *        TOTAL        KS       INT
 CPU TIMES  *        17.07     13.22      3.70
 REAL TIME  *        18.63 SEC
 DISK USED  *       409.85 MB      
 **********************************************************************************************************************************


 PROGRAM * Intrinsic Basis Bonding Analysis (IBBA)          Author: G. Knizia

 Molecular orbitals read from record     2100.2  Type=RKS/CANONICAL (state 1.1)
 Fock matrix read from record            2100.2  Type=RKS/TOTAL (state 1.1)
 Orbital energies read from record       2100.2  Type=RKS/CANONICAL (state 1.1)
 Density matrix read from record         2100.2  Type=RKS/CHARGE (state 1.1)

 Number of core orbitals:           5 (   5 )
 Number of closed-shell orbitals:  16 (  16 )

 Basis set MINAO-AUTO-PP generated.      Number of basis functions:   35 

 Polarized AO type:                A = (O Ot + (1-O)(1-Ot)) P12
 Orthogonalization method:         Symmetric (Loewdin)
 Localization functional:          L = sum[A,i] <i|n_A|i>^4 -> max

 Localization group 1:  21 orbitals, occupancy  2.000
 Iterative localization: IB/PM,    7 iter; Final gradient 0.23E-08

 Bond order analysis:       [THRPRINT= 0.020]

   CEN ATOM   CEN ATOM     WIBERG.BO      RENORM.BO
     1   O  -   2   C       0.997083       1.019337
     1   O  -   5   C       0.951871       0.958574
     1   O  -   4   H       0.037107       0.022054
     1   O  -  15   H       0.035408       0.021211
     1   O  -   7   C       0.033491       0.017488
     1   O  -   6   H       0.027348       0.016446

     2   C  -   1   O       0.997083       1.019337
     2   C  -   3   H       0.955543       0.976174
     2   C  -  15   H       0.945639       0.931933
     2   C  -   4   H       0.945559       0.930980

     3   H  -   2   C       0.955543       0.976174

     4   H  -   2   C       0.945559       0.930980
     4   H  -   1   O       0.037107       0.022054

     5   C  -   8   C       1.013932       1.005601
     5   C  -   7   C       1.005278       0.977819
     5   C  -   1   O       0.951871       0.958574
     5   C  -   6   H       0.920637       0.911668

     6   H  -   5   C       0.920637       0.911668
     6   H  -   1   O       0.027348       0.016446

     7   C  -   5   C       1.005278       0.977819
     7   C  -  14   H       0.959961       0.981946
     7   C  -  12   H       0.957501       0.984370
     7   C  -  13   H       0.957114       0.977241
     7   C  -   1   O       0.033491       0.017488

     8   C  -   5   C       1.013932       1.005601
     8   C  -   9   H       0.960297       0.986278
     8   C  -  10   H       0.957801       0.982343
     8   C  -  11   H       0.956385       0.977389

     9   H  -   8   C       0.960297       0.986278

    10   H  -   8   C       0.957801       0.982343

    11   H  -   8   C       0.956385       0.977389

    12   H  -   7   C       0.957501       0.984370

    13   H  -   7   C       0.957114       0.977241

    14   H  -   7   C       0.959961       0.981946

    15   H  -   2   C       0.945639       0.931933
    15   H  -   1   O       0.035408       0.021211


 Valency analysis:

   CEN ATOM   TOT.VALENCE
     1   O       2.141640
     2   C       3.867316
     3   H       0.977417
     4   H       0.987462
     5   C       3.920555
     6   H       0.989384
     7   C       3.937530
     8   C       3.936199
     9   H       0.981814
    10   H       0.979430
    11   H       0.980740
    12   H       0.980993
    13   H       0.980995
    14   H       0.982317
    15   H       0.987478

 Total charge composition:

   CEN ATOM         s          p       ELECTRONS ->P.CHARGE
     1   O       3.59961    4.76805      8.36766   -0.36766
     2   C       3.01924    3.18282      6.20206   -0.20206
     3   H       0.84972                 0.84972    0.15028
     4   H       0.88803                 0.88803    0.11197
     5   C       2.95525    2.94458      5.89983    0.10017
     6   H       0.89697                 0.89697    0.10303
     7   C       3.02757    3.39660      6.42417   -0.42417
     8   C       3.02516    3.38406      6.40922   -0.40922
     9   H       0.86515                 0.86515    0.13485
    10   H       0.85658                 0.85658    0.14342
    11   H       0.86122                 0.86122    0.13878
    12   H       0.86213                 0.86213    0.13787
    13   H       0.86214                 0.86214    0.13786
    14   H       0.86702                 0.86702    0.13298
    15   H       0.88810                 0.88810    0.11190

 Total charge composition, AO contributions:

   CEN ATOM SHL      SPHERICAL COMPONENTS
     1   O  1s       1.99724
     1   O  2s       1.60237
     1   O  2p       1.38030    1.51317    1.87458

     2   C  1s       1.99191
     2   C  2s       1.02732
     2   C  2p       0.84137    1.18542    1.15603

     3   H  1s       0.84972

     4   H  1s       0.88803

     5   C  1s       1.99251
     5   C  2s       0.96275
     5   C  2p       1.01185    0.84112    1.09161

     6   H  1s       0.89697

     7   C  1s       1.99129
     7   C  2s       1.03628
     7   C  2p       1.15891    1.12499    1.11270

     8   C  1s       1.99121
     8   C  2s       1.03395
     8   C  2p       1.05014    1.16149    1.17243

     9   H  1s       0.86515

    10   H  1s       0.85658

    11   H  1s       0.86122

    12   H  1s       0.86213

    13   H  1s       0.86214

    14   H  1s       0.86702

    15   H  1s       0.88810

 Summary of localized orbital composition:   [THRPRINT= 0.020]

   ORB  GRP  ORB.ENERGY      CENTERS/CHARGES
     1   1   -18.612227      O  1   2.000
     2   1    -9.845130      C  5   2.000
     3   1    -9.824883      C  2   2.000
     4   1    -9.773634      C  7   2.000
     5   1    -9.770164      C  8   2.000
     6   1    -0.691642      O  1   1.244   C  2   0.747
     7   1    -0.673062      O  1   1.261   C  5   0.719
     8   1    -0.519878      C  5   0.994   C  8   0.991
     9   1    -0.517957      C  7   1.006   C  5   0.985
    10   1    -0.472802      O  1   1.959   (other: 0.041)
    11   1    -0.462966      C  2   1.133   H  4   0.866
    12   1    -0.462651      C  2   1.131   H 15   0.866
    13   1    -0.462075      C  2   1.150   H  3   0.842
    14   1    -0.458070      C  5   1.109   H  6   0.870   (other: 0.021)
    15   1    -0.446977      C  7   1.130   H 12   0.853
    16   1    -0.444934      C  7   1.129   H 14   0.859
    17   1    -0.444537      C  8   1.127   H  9   0.857
    18   1    -0.440796      C  7   1.135   H 13   0.854
    19   1    -0.438263      C  8   1.135   H 11   0.853
    20   1    -0.437986      C  8   1.139   H 10   0.849
    21   1    -0.245578      O  1   1.898   C  5   0.021   C  2   0.020   (other: 0.060)

 Localized orbitals saved to record      2100.2  (orbital set 2)


 **********************************************************************************************************************************
 DATASETS  * FILE   NREC   LENGTH (MB)   RECORD NAMES
              1      20      117.72       500      610      700      900      950      970     1000      129      960     1100   
                                          VAR    BASINP    GEOM    SYMINP    ZMAT    AOBASIS   BASIS     P2S    ABASIS      S 
                                         1400     1410     1200     1210     1080     1600     1650     1300     1700     1800   
                                           T        V       H0       H01     AOSYM     SMH    MOLCAS    ERIS     OPER     GRID   

              2       5        3.42       700     1000      520     1800     2100   
                                         GEOM     BASIS   MCVARS    GRID      RKS  

 PROGRAMS   *        TOTAL      IBBA        KS       INT
 CPU TIMES  *        17.12      0.04     13.22      3.70
 REAL TIME  *        18.78 SEC
 DISK USED  *       409.85 MB      
 **********************************************************************************************************************************
 Molecular orbitals read from record     2100.2  Type=RKS/LOCAL(IBO)  
 Occupation numbers read from record     2100.2  Type=RKS/LOCAL(IBO)  
 Orbital energies read from record       2100.2  Type=RKS/LOCAL(IBO)  
 Redundancy group numbers read from rec  2100.2  Type=RKS/LOCAL(IBO)  

 IBBA/SVP energy=      0.000000000000

        KS-SCF  
   -233.17226549
 **********************************************************************************************************************************
 Molpro calculation terminated
