
 Primary working directories    : /tmp/sb13343
 Secondary working directories  : /tmp/sb13343
 Wavefunction directory         : /panfs/panasas01/chem/sb13343/wfu/
 Main file repository           : /tmp/sb13343/

 SHA1      : b4a5b34a9e711420743f49e6833241d17c61fb3c
 NAME      : 2099.9.b4a5b34
 ARCHNAME  : linux/x86_64_openmp
 FC        : /cm/shared/languages/GCC-6.1/bin/gfortran
 BLASLIB   : -lblas
 id        : simonbennie

 Nodes     nprocs
 node32-020    1

 Using customized tuning parameters: mindgm=1; mindgv=20; mindgc=4; mindgr=1; noblas=0; minvec=7
 default implementation of scratch files=df  

 memory,500,m
 geomtyp=xyz
 nosym
 noorient
 geometry={
 O          0.25818        0.93788        0.04074
 C          1.63656        1.04230        0.32330
 H          1.89907        2.10041        0.23555
 H          2.26234        0.47024       -0.37847
 C         -0.29581       -0.36510        0.22961
 H          0.07373       -0.77023        1.18842
 C          0.09996       -1.32219       -0.89979
 C         -1.80707       -0.17660        0.31883
 H         -2.30941       -1.13436        0.49338
 H         -2.05917        0.50650        1.13581
 H         -2.19015        0.25071       -0.61475
 H         -0.34617       -2.31074       -0.74107
 H         -0.25158       -0.93408       -1.86253
 H          1.18531       -1.45552       -0.96063
 H          1.86878        0.70360        1.34661
 }
 basis={ default,sto-3g }
 {uks,MM05-2X,direct;wf,42,1,0}
 {ibba,bonds=1}

 Variables initialized (895), CPU time= 0.00 sec
 Commands  initialized (725), CPU time= 0.02 sec, 591 directives.
 Default parameters read. Elapsed time= 0.09 sec

 Checking input...
 Passed
1


                                         ***  PROGRAM SYSTEM MOLPRO  ***
                                       Copyright, TTI GmbH Stuttgart, 2015
                                    Version 2099.9 linked May 26 2017 16:03:21


 **********************************************************************************************************************************
 LABEL *                                                                                 
  64 bit serial version                                                                  DATE: 07-Jun-17          TIME: 21:42:24  
 **********************************************************************************************************************************

 SHA1:             b4a5b34a9e711420743f49e6833241d17c61fb3c
 **********************************************************************************************************************************
 SETTING GEOMTYP        =    XYZ

 Variable memory set to  500000000 words,  buffer space 

 ZSYMEL=NOSYM

 SETTING BASIS          =    STO-3G


 Recomputing integrals since basis changed


 Using spherical harmonics

 Library entry O      S STO-3G               selected for orbital group  1
 Library entry O      P STO-3G               selected for orbital group  1
 Library entry C      S STO-3G               selected for orbital group  2
 Library entry C      P STO-3G               selected for orbital group  2
 Library entry H      S STO-3G               selected for orbital group  3


 PROGRAM * SEWARD (Integral evaluation for generally contracted gaussian basis sets)     Author: Roland Lindh, 1990

 Geometry written to block  1 of record 700


 Point group  C1  



 ATOMIC COORDINATES

 NR  ATOM    CHARGE       X              Y              Z

   1  O       8.00    0.487889491    1.772336338    0.076987442
   2  C       6.00    3.092650186    1.969661540    0.610948456
   3  H       1.00    3.588722191    3.969199649    0.445124989
   4  H       1.00    4.275203001    0.888624813   -0.715204646
   5  C       6.00   -0.558999885   -0.689939008    0.433900015
   6  H       1.00    0.139329507   -1.455523753    2.245788321
   7  C       6.00    0.188897023   -2.498576985   -1.700356670
   8  C       6.00   -3.414867388   -0.333725634    0.602501380
   9  H       1.00   -4.364152409   -2.143629727    0.932353075
  10  H       1.00   -3.891267344    0.957146282    2.146369830
  11  H       1.00   -4.138783672    0.473773237   -1.161709135
  12  H       1.00   -0.654166493   -4.366665745   -1.400419339
  13  H       1.00   -0.475417298   -1.765155378   -3.519671599
  14  H       1.00    2.239911273   -2.750534169   -1.815327607
  15  H       1.00    3.531482387    1.329611301    2.544724097

 Bond lengths in Bohr (Angstrom)

  1- 2  2.666238902   1- 5  2.699289504   2- 3  2.066818209   2- 4  2.079844613   2-15  2.083680934
       ( 1.410912866)       ( 1.428402491)       ( 1.093713095)       ( 1.100606371)       ( 1.102636465)

  5- 6  2.087276497   5- 7  2.895785336   5- 8  2.882931422   7-12  2.071345966   7-13  2.071020903
       ( 1.104539155)       ( 1.532383608)       ( 1.525581609)       ( 1.096109081)       ( 1.095937065)

  7-14  2.069628032   8- 9  2.070192508   8-10  2.068051501   8-11  2.070880961
       ( 1.095199989)       ( 1.095498697)       ( 1.094365725)       ( 1.095863011)

 Bond angles

  1- 2- 3  106.85884507   1- 2- 4  112.91125973   1- 2-15  111.64621834   1- 5- 6  108.63888518

  1-5-7  111.84608248   1-5-8  106.21369660   2-1-5  114.82992588   3-2-4  108.37425913

  3- 2-15  108.72850466   4- 2-15  108.20064699   5- 7-12  110.57572754   5- 7-13  110.08520206

  5- 7-14  111.89623115   5- 8- 9  110.82645738   5- 8-10  110.42517473   5- 8-11  110.16013005

  6- 5- 7  108.92239636   6- 5- 8  109.02480146   7- 5- 8  112.09364518   9- 8-10  108.73162751

  9- 8-11  108.44218100  10- 8-11  108.18344616  12- 7-13  108.42317703  12- 7-14  107.55382926

 13- 7-14  108.19151953

 NUCLEAR CHARGE:                   42
 NUMBER OF PRIMITIVE AOS:         105
 NUMBER OF SYMMETRY AOS:          105
 NUMBER OF CONTRACTIONS:           35   (  35A   )
 NUMBER OF CORE ORBITALS:           5   (   5A   )
 NUMBER OF VALENCE ORBITALS:       30   (  30A   )


 NUCLEAR REPULSION ENERGY  195.74983609


 Eigenvalues of metric

         1 0.208E+00 0.227E+00 0.234E+00 0.281E+00 0.352E+00 0.360E+00 0.363E+00 0.368E+00


 Contracted 2-electron integrals neglected if value below      1.0D-11
 AO integral compression algorithm  1   Integral accuracy      1.0D-11

     1.573 MB (compressed) written to integral file ( 89.1%)


 NUMBER OF SORTED TWO-ELECTRON INTEGRALS:     198765.     BUFFER LENGTH:  32768
 NUMBER OF SEGMENTS:   1  SEGMENT LENGTH:     198765      RECORD LENGTH: 524288

 Memory used in sort:       0.76 MW

 SORT1 READ      224802. AND WROTE      193897. INTEGRALS IN      1 RECORDS. CPU TIME:     0.00 SEC, REAL TIME:     0.01 SEC
 SORT2 READ      193897. AND WROTE      198765. INTEGRALS IN      6 RECORDS. CPU TIME:     0.02 SEC, REAL TIME:     0.02 SEC

 FILE SIZES:   FILE 1:    31.8 MBYTE,  FILE 4:     4.2 MBYTE,   TOTAL:     36.0 MBYTE

 OPERATOR DM      FOR CENTER  0  COORDINATES:    0.000000    0.000000    0.000000


 **********************************************************************************************************************************
 DATASETS  * FILE   NREC   LENGTH (MB)   RECORD NAMES
              1      19       31.10       500      610      700      900      950      970     1000      129      960     1100   
                                          VAR    BASINP    GEOM    SYMINP    ZMAT    AOBASIS   BASIS     P2S    ABASIS      S 
                                         1400     1410     1200     1210     1080     1600     1650     1300     1700   
                                           T        V       H0       H01     AOSYM     SMH    MOLCAS    ERIS     OPER   

 PROGRAMS   *        TOTAL       INT
 CPU TIMES  *         0.61      0.46
 REAL TIME  *         0.98 SEC
 DISK USED  *        36.55 MB      
 **********************************************************************************************************************************

 Density functional group MM05-2X=M052XX+M052XC
 Functional: M052XX(Automatically generated (new) M052XX)                      Gradient terms: 2
 Functional: M052XC(Automatically generated (new) M052XC)                      Gradient terms: 2
 Use grid at  1800.2


 Exact exchange will be calculated, factor:  0.5600

 Functional: M052XX                    Factor:  0.4400
 Functional: M052XC                    Factor:  1.0000

 Generated new metagrid on record  1800.2 with target accuracy 1.0D-06 and 52852 points in CPU time    1.4
 Computed new grid on record 1800.1 in CPU time    1.6
   59039 words reserved for DFT integration

 PROGRAM * UKS-SCF (Unrestricted Kohn-Sham)     Authors: W. Meyer, H.-J. Werner, P.J. Knowles, 1993

 NUMBER OF ELECTRONS:      21+   21-    SPACE SYMMETRY=1    SPIN SYMMETRY: Singlet 
 CONVERGENCE THRESHOLDS:    1.00E-05 (Density)    1.00E-06 (Energy)
 MAX. NUMBER OF ITERATIONS:       60
 INTERPOLATION TYPE:            DIIS
 INTERPOLATION STEPS:              2 (START)      1 (STEP)
 LEVEL SHIFTS:                 -0.20 (ALPHA)  -0.20 (BETA) 



 Use fine grid record 1800.2 for energy threshold  1.0D-06
 Orbital guess generated from atomic densities. Full valence occupancy:   21

 Molecular orbital dump at record        2200.2

 Initial alpha occupation  21
 Initial beta  occupation  21

 ITERATION    DDIFF          GRAD             ENERGY        2-EL.EN.            DIPOLE MOMENTS         DIIS
    1      0.000D+00      0.000D+00      -230.60996017    592.644564    0.58633   -0.99267    0.31648    0
    2      0.393D-01      0.154D-01      -230.82203527    580.904457    0.16983   -0.36986    0.09847    1
    3      0.357D-02      0.159D-02      -230.82453011    580.565984    0.17901   -0.36790    0.11712    2
    4      0.179D-02      0.548D-03      -230.82494045    580.499479    0.18215   -0.37180    0.12452    3
    5      0.695D-03      0.167D-03      -230.82498659    580.491934    0.18408   -0.37417    0.12635    4
    6      0.266D-03      0.486D-04      -230.82499191    580.493119    0.18379   -0.37325    0.12550    5
    7      0.678D-04      0.134D-04      -230.82499224    580.492557    0.18391   -0.37353    0.12554    6
    8      0.115D-04      0.260D-05      -230.82499225    580.492811    0.18389   -0.37344    0.12554    6
    9      0.296D-05      0.666D-06      -230.82499225    580.492640    0.18389   -0.37344    0.12555    6
   10      0.287D-06      0.875D-07      -230.82499225    580.492660    0.18389   -0.37344    0.12555    6

 Final alpha occupancy:  21
 Final beta  occupancy:  21

 !UKS STATE 1.1 Energy               -230.824992252199
 Nuclear energy                       195.74983609
 One-electron energy                 -700.91283762
 Two-electron energy                  290.24633011
 Density functional                   -15.90832084     M052XX=-32.78047246 M052XC= -1.48491296
 Virial quotient                       -1.01646469
 !UKS STATE 1.1 Dipole moment           0.18389200    -0.37343729     0.12555054
 Dipole moment /Debye                   0.46737623    -0.94912074     0.31909675

 Orbital energies for positive spin:

         1.1          2.1          3.1          4.1          5.1          6.1          7.1          8.1          9.1         10.1
    -19.418812   -10.458784   -10.445012   -10.401165   -10.399809    -1.085285    -0.841396    -0.751748    -0.724963    -0.622940

        11.1         12.1         13.1         14.1         15.1         16.1         17.1         18.1         19.1         20.1
     -0.520017    -0.497466    -0.482753    -0.458206    -0.430125    -0.422847    -0.402170    -0.377200    -0.363909    -0.276251

        21.1         22.1         23.1
     -0.216376     0.362627     0.439212

 Orbital energies for negative spin:

         1.1          2.1          3.1          4.1          5.1          6.1          7.1          8.1          9.1         10.1
    -19.418812   -10.458784   -10.445012   -10.401165   -10.399809    -1.085285    -0.841396    -0.751748    -0.724963    -0.622940

        11.1         12.1         13.1         14.1         15.1         16.1         17.1         18.1         19.1         20.1
     -0.520017    -0.497466    -0.482753    -0.458206    -0.430125    -0.422847    -0.402170    -0.377200    -0.363909    -0.276251

        21.1         22.1         23.1
     -0.216376     0.362627     0.439212

 HOMO     21.1    -0.216376 =      -5.8879eV
 LUMO     22.1     0.362627 =       9.8676eV
 LUMO-HOMO         0.579003 =      15.7555eV

 EXPECTATION VALUE OF S**2:            -0.00000000

 Natural orbitals saved to record    2200.2 (Orbital set 3)

 Orbital spaces for UNO-CAS (Min. occupation: 0.020  Max. occupation: 1.980):

 Closed:       21
 Active:        0


 **********************************************************************************************************************************
 DATASETS  * FILE   NREC   LENGTH (MB)   RECORD NAMES
              1      20       32.79       500      610      700      900      950      970     1000      129      960     1100   
                                          VAR    BASINP    GEOM    SYMINP    ZMAT    AOBASIS   BASIS     P2S    ABASIS      S 
                                         1400     1410     1200     1210     1080     1600     1650     1300     1700     1800   
                                           T        V       H0       H01     AOSYM     SMH    MOLCAS    ERIS     OPER     GRID   

              2       5        3.05       700     1000      520     1800     2200   
                                         GEOM     BASIS   MCVARS    GRID      UKS  

 PROGRAMS   *        TOTAL       UKS       INT
 CPU TIMES  *        16.59     15.98      0.46
 REAL TIME  *        17.96 SEC
 DISK USED  *        36.55 MB      
 **********************************************************************************************************************************


 PROGRAM * Intrinsic Basis Bonding Analysis (IBBA)          Author: G. Knizia

 Molecular orbitals read from record     2200.2  Type=UKS/ALPHA (state 1.1)
 Fock matrix read from record            2200.2  Type=UKS/TOTAL (state 1.1)
 Orbital energies read from record       2200.2  Type=UKS/ALPHA (state 1.1)
 Density matrix read from record         2200.2  Type=UKS/CHARGE (state 1.1)

 Number of core orbitals:           5 (   5 )
 Number of closed-shell orbitals:  16 (  16 )

 Basis set MINAO-AUTO-PP generated.      Number of basis functions:   35 

 Polarized AO type:                A = (O Ot + (1-O)(1-Ot)) P12
 Orthogonalization method:         Symmetric (Loewdin)
 Localization functional:          L = sum[A,i] <i|n_A|i>^4 -> max

 Localization group 1:  21 orbitals, occupancy  2.000
 Iterative localization: IB/PM,    7 iter; Final gradient 0.14E-08

 Bond order analysis:       [THRPRINT= 0.020]

   CEN ATOM   CEN ATOM     WIBERG.BO      RENORM.BO
     1   O  -   2   C       1.014635       1.013810
     1   O  -   5   C       0.986860       0.979721
     1   O  -   4   H       0.025858       0.015236
     1   O  -  15   H       0.024383       0.014483
     1   O  -   7   C       0.023958       0.012584

     2   C  -   1   O       1.014635       1.013810
     2   C  -  15   H       0.958344       0.955640
     2   C  -   4   H       0.957890       0.953970
     2   C  -   3   H       0.957026       0.977472

     3   H  -   2   C       0.957026       0.977472

     4   H  -   2   C       0.957890       0.953970
     4   H  -   1   O       0.025858       0.015236

     5   C  -   8   C       1.002147       0.996811
     5   C  -   7   C       0.997665       0.975481
     5   C  -   1   O       0.986860       0.979721
     5   C  -   6   H       0.940753       0.939281

     6   H  -   5   C       0.940753       0.939281

     7   C  -   5   C       0.997665       0.975481
     7   C  -  14   H       0.965961       0.988500
     7   C  -  12   H       0.965516       0.991614
     7   C  -  13   H       0.964689       0.987619
     7   C  -   1   O       0.023958       0.012584

     8   C  -   5   C       1.002147       0.996811
     8   C  -   9   H       0.966418       0.991559
     8   C  -  11   H       0.963771       0.987626
     8   C  -  10   H       0.963485       0.989200

     9   H  -   8   C       0.966418       0.991559

    10   H  -   8   C       0.963485       0.989200

    11   H  -   8   C       0.963771       0.987626

    12   H  -   7   C       0.965516       0.991614

    13   H  -   7   C       0.964689       0.987619

    14   H  -   7   C       0.965961       0.988500

    15   H  -   2   C       0.958344       0.955640
    15   H  -   1   O       0.024383       0.014483


 Valency analysis:

   CEN ATOM   TOT.VALENCE
     1   O       2.132044
     2   C       3.906489
     3   H       0.979942
     4   H       0.987348
     5   C       3.952533
     6   H       0.987696
     7   C       3.932648
     8   C       3.929968
     9   H       0.982291
    10   H       0.980469
    11   H       0.981526
    12   H       0.981912
    13   H       0.982081
    14   H       0.983282
    15   H       0.987032

 Total charge composition:

   CEN ATOM         s          p       ELECTRONS ->P.CHARGE
     1   O       3.64220    4.58392      8.22612   -0.22612
     2   C       2.99999    3.26218      6.26217   -0.26217
     3   H       0.85838                 0.85838    0.14162
     4   H       0.88752                 0.88752    0.11248
     5   C       2.95890    3.04118      6.00008   -0.00008
     6   H       0.88908                 0.88908    0.11092
     7   C       2.99132    3.41175      6.40308   -0.40308
     8   C       2.98969    3.40417      6.39386   -0.39386
     9   H       0.86692                 0.86692    0.13308
    10   H       0.86024                 0.86024    0.13976
    11   H       0.86408                 0.86408    0.13592
    12   H       0.86551                 0.86551    0.13449
    13   H       0.86614                 0.86614    0.13386
    14   H       0.87070                 0.87070    0.12930
    15   H       0.88612                 0.88612    0.11388

 Total charge composition, AO contributions:

   CEN ATOM SHL      SPHERICAL COMPONENTS
     1   O  1s       1.99727
     1   O  2s       1.64493
     1   O  2p       1.28233    1.40786    1.89373

     2   C  1s       1.99209
     2   C  2s       1.00791
     2   C  2p       0.91442    1.18684    1.16091

     3   H  1s       0.85838

     4   H  1s       0.88752

     5   C  1s       1.99259
     5   C  2s       0.96631
     5   C  2p       1.03251    0.90545    1.10322

     6   H  1s       0.88908

     7   C  1s       1.99152
     7   C  2s       0.99981
     7   C  2p       1.16322    1.13146    1.11708

     8   C  1s       1.99144
     8   C  2s       0.99825
     8   C  2p       1.05466    1.17125    1.17826

     9   H  1s       0.86692

    10   H  1s       0.86024

    11   H  1s       0.86408

    12   H  1s       0.86551

    13   H  1s       0.86614

    14   H  1s       0.87070

    15   H  1s       0.88612

 Summary of localized orbital composition:   [THRPRINT= 0.020]

   ORB  GRP  ORB.ENERGY      CENTERS/CHARGES
     1   1   -19.247089      O  1   2.000
     2   1   -10.356635      C  5   2.000
     3   1   -10.333946      C  2   2.000
     4   1   -10.284606      C  8   2.000
     5   1   -10.284025      C  7   2.000
     6   1    -0.750899      O  1   1.153   C  2   0.838
     7   1    -0.728640      O  1   1.161   C  5   0.822
     8   1    -0.614373      C  5   1.003   C  8   0.982
     9   1    -0.610455      C  5   0.996   C  7   0.995
    10   1    -0.608920      O  1   1.976   (other: 0.024)
    11   1    -0.564173      C  2   1.142   H  3   0.850
    12   1    -0.563921      C  2   1.126   H  4   0.872
    13   1    -0.563472      C  2   1.127   H 15   0.871
    14   1    -0.559925      C  5   1.118   H  6   0.869
    15   1    -0.547047      C  7   1.127   H 14   0.864
    16   1    -0.546502      C  7   1.131   H 12   0.859
    17   1    -0.546476      C  8   1.130   H  9   0.861
    18   1    -0.541138      C  8   1.137   H 10   0.854
    19   1    -0.540942      C  7   1.132   H 13   0.860
    20   1    -0.539319      C  8   1.133   H 11   0.858
    21   1    -0.264729      O  1   1.929   (other: 0.071)

 Localized orbitals saved to record      2200.2  (orbital set 4)


 **********************************************************************************************************************************
 DATASETS  * FILE   NREC   LENGTH (MB)   RECORD NAMES
              1      20       32.79       500      610      700      900      950      970     1000      129      960     1100   
                                          VAR    BASINP    GEOM    SYMINP    ZMAT    AOBASIS   BASIS     P2S    ABASIS      S 
                                         1400     1410     1200     1210     1080     1600     1650     1300     1700     1800   
                                           T        V       H0       H01     AOSYM     SMH    MOLCAS    ERIS     OPER     GRID   

              2       5        3.06       700     1000      520     1800     2200   
                                         GEOM     BASIS   MCVARS    GRID      UKS  

 PROGRAMS   *        TOTAL      IBBA       UKS       INT
 CPU TIMES  *        16.63      0.04     15.98      0.46
 REAL TIME  *        18.10 SEC
 DISK USED  *        36.55 MB      
 **********************************************************************************************************************************
 Molecular orbitals read from record     2200.2  Type=UKS/LOCAL(IBO)  
 Occupation numbers read from record     2200.2  Type=UKS/LOCAL(IBO)  
 Orbital energies read from record       2200.2  Type=UKS/LOCAL(IBO)  
 Redundancy group numbers read from rec  2200.2  Type=UKS/BETA (state 1.1)

 IBBA/STO-3G energy=      0.000000000000

        UKS-SCF 
   -230.82499225
 **********************************************************************************************************************************
 Molpro calculation terminated
