
 Primary working directories    : /tmp/sb13343
 Secondary working directories  : /tmp/sb13343
 Wavefunction directory         : /panfs/panasas01/chem/sb13343/wfu/
 Main file repository           : /tmp/sb13343/

 SHA1      : b4a5b34a9e711420743f49e6833241d17c61fb3c
 NAME      : 2099.9.b4a5b34
 ARCHNAME  : linux/x86_64_openmp
 FC        : /cm/shared/languages/GCC-6.1/bin/gfortran
 BLASLIB   : -lblas
 id        : simonbennie

 Nodes     nprocs
 node33-042    1

 Using customized tuning parameters: mindgm=1; mindgv=20; mindgc=4; mindgr=1; noblas=0; minvec=7
 default implementation of scratch files=df  

 memory,500,m
 geomtyp=xyz
 nosym
 noorient
 geometry={
 O          0.25818        0.93788        0.04074
 C          1.63656        1.04230        0.32330
 H          1.89907        2.10041        0.23555
 H          2.26234        0.47024       -0.37847
 C         -0.29581       -0.36510        0.22961
 H          0.07373       -0.77023        1.18842
 C          0.09996       -1.32219       -0.89979
 C         -1.80707       -0.17660        0.31883
 H         -2.30941       -1.13436        0.49338
 H         -2.05917        0.50650        1.13581
 H         -2.19015        0.25071       -0.61475
 H         -0.34617       -2.31074       -0.74107
 H         -0.25158       -0.93408       -1.86253
 H          1.18531       -1.45552       -0.96063
 H          1.86878        0.70360        1.34661
 }
 basis={ default,svp }
 {uks,PBEREV,direct;wf,42,1,0}
 {ibba,bonds=1}

 Variables initialized (895), CPU time= 0.00 sec
 Commands  initialized (725), CPU time= 0.02 sec, 591 directives.
 Default parameters read. Elapsed time= 0.08 sec

 Checking input...
 Passed
1


                                         ***  PROGRAM SYSTEM MOLPRO  ***
                                       Copyright, TTI GmbH Stuttgart, 2015
                                    Version 2099.9 linked May 26 2017 16:03:21


 **********************************************************************************************************************************
 LABEL *                                                                                 
  64 bit serial version                                                                  DATE: 07-Jun-17          TIME: 22:03:47  
 **********************************************************************************************************************************

 SHA1:             b4a5b34a9e711420743f49e6833241d17c61fb3c
 **********************************************************************************************************************************
 SETTING GEOMTYP        =    XYZ

 Variable memory set to  500000000 words,  buffer space 

 ZSYMEL=NOSYM

 SETTING BASIS          =    SVP


 Recomputing integrals since basis changed


 Using spherical harmonics

 Library entry O      S def2-SVP             selected for orbital group  1
 Library entry O      P def2-SVP             selected for orbital group  1
 Library entry O      D def2-SVP             selected for orbital group  1
 Library entry C      S def2-SVP             selected for orbital group  2
 Library entry C      P def2-SVP             selected for orbital group  2
 Library entry C      D def2-SVP             selected for orbital group  2
 Library entry H      S def2-SVP             selected for orbital group  3
 Library entry H      P def2-SVP             selected for orbital group  3


 PROGRAM * SEWARD (Integral evaluation for generally contracted gaussian basis sets)     Author: Roland Lindh, 1990

 Geometry written to block  1 of record 700


 Point group  C1  



 ATOMIC COORDINATES

 NR  ATOM    CHARGE       X              Y              Z

   1  O       8.00    0.487889491    1.772336338    0.076987442
   2  C       6.00    3.092650186    1.969661540    0.610948456
   3  H       1.00    3.588722191    3.969199649    0.445124989
   4  H       1.00    4.275203001    0.888624813   -0.715204646
   5  C       6.00   -0.558999885   -0.689939008    0.433900015
   6  H       1.00    0.139329507   -1.455523753    2.245788321
   7  C       6.00    0.188897023   -2.498576985   -1.700356670
   8  C       6.00   -3.414867388   -0.333725634    0.602501380
   9  H       1.00   -4.364152409   -2.143629727    0.932353075
  10  H       1.00   -3.891267344    0.957146282    2.146369830
  11  H       1.00   -4.138783672    0.473773237   -1.161709135
  12  H       1.00   -0.654166493   -4.366665745   -1.400419339
  13  H       1.00   -0.475417298   -1.765155378   -3.519671599
  14  H       1.00    2.239911273   -2.750534169   -1.815327607
  15  H       1.00    3.531482387    1.329611301    2.544724097

 Bond lengths in Bohr (Angstrom)

  1- 2  2.666238902   1- 5  2.699289504   2- 3  2.066818209   2- 4  2.079844613   2-15  2.083680934
       ( 1.410912866)       ( 1.428402491)       ( 1.093713095)       ( 1.100606371)       ( 1.102636465)

  5- 6  2.087276497   5- 7  2.895785336   5- 8  2.882931422   7-12  2.071345966   7-13  2.071020903
       ( 1.104539155)       ( 1.532383608)       ( 1.525581609)       ( 1.096109081)       ( 1.095937065)

  7-14  2.069628032   8- 9  2.070192508   8-10  2.068051501   8-11  2.070880961
       ( 1.095199989)       ( 1.095498697)       ( 1.094365725)       ( 1.095863011)

 Bond angles

  1- 2- 3  106.85884507   1- 2- 4  112.91125973   1- 2-15  111.64621834   1- 5- 6  108.63888518

  1-5-7  111.84608248   1-5-8  106.21369660   2-1-5  114.82992588   3-2-4  108.37425913

  3- 2-15  108.72850466   4- 2-15  108.20064699   5- 7-12  110.57572754   5- 7-13  110.08520206

  5- 7-14  111.89623115   5- 8- 9  110.82645738   5- 8-10  110.42517473   5- 8-11  110.16013005

  6- 5- 7  108.92239636   6- 5- 8  109.02480146   7- 5- 8  112.09364518   9- 8-10  108.73162751

  9- 8-11  108.44218100  10- 8-11  108.18344616  12- 7-13  108.42317703  12- 7-14  107.55382926

 13- 7-14  108.19151953

 NUCLEAR CHARGE:                   42
 NUMBER OF PRIMITIVE AOS:         195
 NUMBER OF SYMMETRY AOS:          190
 NUMBER OF CONTRACTIONS:          120   ( 120A   )
 NUMBER OF CORE ORBITALS:           5   (   5A   )
 NUMBER OF VALENCE ORBITALS:       30   (  30A   )


 NUCLEAR REPULSION ENERGY  195.74983609


 Eigenvalues of metric

         1 0.241E-02 0.514E-02 0.104E-01 0.150E-01 0.214E-01 0.243E-01 0.289E-01 0.305E-01


 Contracted 2-electron integrals neglected if value below      1.0D-11
 AO integral compression algorithm  1   Integral accuracy      1.0D-11

     97.518 MB (compressed) written to integral file ( 44.4%)


 NUMBER OF SORTED TWO-ELECTRON INTEGRALS:   26357430.     BUFFER LENGTH:  32768
 NUMBER OF SEGMENTS:   2  SEGMENT LENGTH:   15997996      RECORD LENGTH: 524288

 Memory used in sort:      16.56 MW

 SORT1 READ    27501115. AND WROTE    22923365. INTEGRALS IN     67 RECORDS. CPU TIME:     0.35 SEC, REAL TIME:     0.66 SEC
 SORT2 READ    22923365. AND WROTE    26357430. INTEGRALS IN    372 RECORDS. CPU TIME:     0.59 SEC, REAL TIME:     4.24 SEC

 FILE SIZES:   FILE 1:   128.3 MBYTE,  FILE 4:   281.1 MBYTE,   TOTAL:    409.3 MBYTE

 OPERATOR DM      FOR CENTER  0  COORDINATES:    0.000000    0.000000    0.000000


 **********************************************************************************************************************************
 DATASETS  * FILE   NREC   LENGTH (MB)   RECORD NAMES
              1      19      116.03       500      610      700      900      950      970     1000      129      960     1100   
                                          VAR    BASINP    GEOM    SYMINP    ZMAT    AOBASIS   BASIS     P2S    ABASIS      S 
                                         1400     1410     1200     1210     1080     1600     1650     1300     1700   
                                           T        V       H0       H01     AOSYM     SMH    MOLCAS    ERIS     OPER   

 PROGRAMS   *        TOTAL       INT
 CPU TIMES  *         4.01      3.86
 REAL TIME  *         8.94 SEC
 DISK USED  *       409.85 MB      
 **********************************************************************************************************************************

 Density functional group PBEREV=PBEXREV+PBEC
 Functional: PBEXREV(Automatically generated (new) PBEXREV)                    Gradient terms: 1
 Functional: PBEC(Automatically generated (new) PBEC)                          Gradient terms: 1
 Use grid at  1800.2

 Functional: PBEXREV                   Factor:  1.0000
 Functional: PBEC                      Factor:  1.0000

 Generated new metagrid on record  1800.2 with target accuracy 1.0D-06 and 52852 points in CPU time    1.4
 Computed new grid on record 1800.1 in CPU time    1.6
   99539 words reserved for DFT integration

 PROGRAM * UKS-SCF (Unrestricted Kohn-Sham)     Authors: W. Meyer, H.-J. Werner, P.J. Knowles, 1993

 NUMBER OF ELECTRONS:      21+   21-    SPACE SYMMETRY=1    SPIN SYMMETRY: Singlet 
 CONVERGENCE THRESHOLDS:    1.00E-05 (Density)    1.00E-06 (Energy)
 MAX. NUMBER OF ITERATIONS:       60
 INTERPOLATION TYPE:            DIIS
 INTERPOLATION STEPS:              2 (START)      1 (STEP)
 LEVEL SHIFTS:                 -0.20 (ALPHA)  -0.20 (BETA) 



 Use fine grid record 1800.2 for energy threshold  1.0D-06
 Orbital guess generated from atomic densities. Full valence occupancy:   21

 Molecular orbital dump at record        2200.2

 Initial alpha occupation  21
 Initial beta  occupation  21

 ITERATION    DDIFF          GRAD             ENERGY        2-EL.EN.            DIPOLE MOMENTS         DIIS
    1      0.000D+00      0.000D+00      -233.18202032    630.601683    0.46908   -0.69374    0.26004    0
    2      0.121D-01      0.523D-02      -233.36637358    610.112604    0.15930   -0.28666    0.06276    1
    3      0.390D-02      0.252D-02      -233.40522799    615.755439    0.26116   -0.39842    0.14999    2
    4      0.103D-02      0.342D-03      -233.40616064    615.324412    0.23437   -0.35114    0.12818    3
    5      0.595D-03      0.192D-03      -233.40650371    615.323756    0.23677   -0.35721    0.12869    4
    6      0.454D-03      0.503D-04      -233.40656800    615.270629    0.23406   -0.34884    0.12676    5
    7      0.991D-04      0.160D-04      -233.40657177    615.270658    0.23334   -0.35020    0.12484    6
    8      0.311D-04      0.823D-05      -233.40657248    615.269634    0.23358   -0.34945    0.12463    7
    9      0.125D-04      0.160D-05      -233.40657253    615.268644    0.23348   -0.34938    0.12472    7
   10      0.368D-05      0.542D-06      -233.40657254    615.269641    0.23350   -0.34940    0.12460    7
   11      0.132D-05      0.271D-06      -233.40657254    615.269160    0.23350   -0.34938    0.12459    8

 Final alpha occupancy:  21
 Final beta  occupancy:  21

 !UKS STATE 1.1 Energy               -233.406572536434
 Nuclear energy                       195.74983609
 One-electron energy                 -702.87035498
 Two-electron energy                  307.63458016
 Density functional                   -33.92063381     PBEXREV=-32.54870211 PBEC= -1.37193170
 Virial quotient                       -1.01087192
 !UKS STATE 1.1 Dipole moment           0.23349732    -0.34937842     0.12459080
 Dipole moment /Debye                   0.59345211    -0.88797321     0.31665749

 Orbital energies for positive spin:

         1.1          2.1          3.1          4.1          5.1          6.1          7.1          8.1          9.1         10.1
    -18.760245    -9.950890    -9.942300    -9.895682    -9.893189    -0.926311    -0.699929    -0.616810    -0.597502    -0.509050

        11.1         12.1         13.1         14.1         15.1         16.1         17.1         18.1         19.1         20.1
     -0.441322    -0.409211    -0.399563    -0.371786    -0.346521    -0.338829    -0.329760    -0.305234    -0.297485    -0.256370

        21.1         22.1         23.1
     -0.200833     0.038539     0.066569

 Orbital energies for negative spin:

         1.1          2.1          3.1          4.1          5.1          6.1          7.1          8.1          9.1         10.1
    -18.760245    -9.950890    -9.942300    -9.895682    -9.893189    -0.926311    -0.699929    -0.616810    -0.597502    -0.509050

        11.1         12.1         13.1         14.1         15.1         16.1         17.1         18.1         19.1         20.1
     -0.441322    -0.409211    -0.399563    -0.371786    -0.346521    -0.338829    -0.329760    -0.305234    -0.297485    -0.256370

        21.1         22.1         23.1
     -0.200833     0.038539     0.066569

 HOMO     21.1    -0.200833 =      -5.4649eV
 LUMO     22.1     0.038539 =       1.0487eV
 LUMO-HOMO         0.239373 =       6.5137eV

 EXPECTATION VALUE OF S**2:             0.00000000

 Natural orbitals saved to record    2200.2 (Orbital set 3)

 Orbital spaces for UNO-CAS (Min. occupation: 0.020  Max. occupation: 1.980):

 Closed:       21
 Active:        0


 **********************************************************************************************************************************
 DATASETS  * FILE   NREC   LENGTH (MB)   RECORD NAMES
              1      20      117.72       500      610      700      900      950      970     1000      129      960     1100   
                                          VAR    BASINP    GEOM    SYMINP    ZMAT    AOBASIS   BASIS     P2S    ABASIS      S 
                                         1400     1410     1200     1210     1080     1600     1650     1300     1700     1800   
                                           T        V       H0       H01     AOSYM     SMH    MOLCAS    ERIS     OPER     GRID   

              2       5        3.59       700     1000      520     1800     2200   
                                         GEOM     BASIS   MCVARS    GRID      UKS  

 PROGRAMS   *        TOTAL       UKS       INT
 CPU TIMES  *        26.58     22.57      3.86
 REAL TIME  *        31.98 SEC
 DISK USED  *       409.85 MB      
 **********************************************************************************************************************************


 PROGRAM * Intrinsic Basis Bonding Analysis (IBBA)          Author: G. Knizia

 Molecular orbitals read from record     2200.2  Type=UKS/ALPHA (state 1.1)
 Fock matrix read from record            2200.2  Type=UKS/TOTAL (state 1.1)
 Orbital energies read from record       2200.2  Type=UKS/ALPHA (state 1.1)
 Density matrix read from record         2200.2  Type=UKS/CHARGE (state 1.1)

 Number of core orbitals:           5 (   5 )
 Number of closed-shell orbitals:  16 (  16 )

 Basis set MINAO-AUTO-PP generated.      Number of basis functions:   35 

 Polarized AO type:                A = (O Ot + (1-O)(1-Ot)) P12
 Orthogonalization method:         Symmetric (Loewdin)
 Localization functional:          L = sum[A,i] <i|n_A|i>^4 -> max

 Localization group 1:  21 orbitals, occupancy  2.000
 Iterative localization: IB/PM,    7 iter; Final gradient 0.22E-08

 Bond order analysis:       [THRPRINT= 0.020]

   CEN ATOM   CEN ATOM     WIBERG.BO      RENORM.BO
     1   O  -   2   C       0.997100       1.019913
     1   O  -   5   C       0.951719       0.959768
     1   O  -   4   H       0.037051       0.021949
     1   O  -  15   H       0.035391       0.021121
     1   O  -   7   C       0.033158       0.017305
     1   O  -   6   H       0.027241       0.016341

     2   C  -   1   O       0.997100       1.019913
     2   C  -   3   H       0.956904       0.975967
     2   C  -  15   H       0.946707       0.931937
     2   C  -   4   H       0.946539       0.931007

     3   H  -   2   C       0.956904       0.975967

     4   H  -   2   C       0.946539       0.931007
     4   H  -   1   O       0.037051       0.021949

     5   C  -   8   C       1.014003       1.005801
     5   C  -   7   C       1.005386       0.978147
     5   C  -   1   O       0.951719       0.959768
     5   C  -   6   H       0.921555       0.911960

     6   H  -   5   C       0.921555       0.911960
     6   H  -   1   O       0.027241       0.016341

     7   C  -   5   C       1.005386       0.978147
     7   C  -  14   H       0.961245       0.982143
     7   C  -  12   H       0.958907       0.984367
     7   C  -  13   H       0.958457       0.977505
     7   C  -   1   O       0.033158       0.017305

     8   C  -   5   C       1.014003       1.005801
     8   C  -   9   H       0.961660       0.986359
     8   C  -  10   H       0.959171       0.982396
     8   C  -  11   H       0.957748       0.977640

     9   H  -   8   C       0.961660       0.986359

    10   H  -   8   C       0.959171       0.982396

    11   H  -   8   C       0.957748       0.977640

    12   H  -   7   C       0.958907       0.984367

    13   H  -   7   C       0.958457       0.977505

    14   H  -   7   C       0.961245       0.982143

    15   H  -   2   C       0.946707       0.931937
    15   H  -   1   O       0.035391       0.021121


 Valency analysis:

   CEN ATOM   TOT.VALENCE
     1   O       2.140306
     2   C       3.870295
     3   H       0.978610
     4   H       0.988111
     5   C       3.920851
     6   H       0.989840
     7   C       3.940818
     8   C       3.939646
     9   H       0.982724
    10   H       0.980431
    11   H       0.981605
    12   H       0.981964
    13   H       0.981864
    14   H       0.983073
    15   H       0.988217

 Total charge composition:

   CEN ATOM         s          p       ELECTRONS ->P.CHARGE
     1   O       3.60213    4.76718      8.36931   -0.36931
     2   C       3.02065    3.17035      6.19099   -0.19099
     3   H       0.85375                 0.85375    0.14625
     4   H       0.89096                 0.89096    0.10904
     5   C       2.95767    2.93873      5.89640    0.10360
     6   H       0.89920                 0.89920    0.10080
     7   C       3.02938    3.38525      6.41462   -0.41462
     8   C       3.02691    3.37243      6.39934   -0.39934
     9   H       0.86856                 0.86856    0.13144
    10   H       0.86011                 0.86011    0.13989
    11   H       0.86437                 0.86437    0.13563
    12   H       0.86570                 0.86570    0.13430
    13   H       0.86533                 0.86533    0.13467
    14   H       0.86990                 0.86990    0.13010
    15   H       0.89145                 0.89145    0.10855

 Total charge composition, AO contributions:

   CEN ATOM SHL      SPHERICAL COMPONENTS
     1   O  1s       1.99721
     1   O  2s       1.60492
     1   O  2p       1.38012    1.51241    1.87465

     2   C  1s       1.99177
     2   C  2s       1.02888
     2   C  2p       0.83885    1.18018    1.15132

     3   H  1s       0.85375

     4   H  1s       0.89096

     5   C  1s       1.99236
     5   C  2s       0.96531
     5   C  2p       1.01021    0.83940    1.08911

     6   H  1s       0.89920

     7   C  1s       1.99113
     7   C  2s       1.03824
     7   C  2p       1.15475    1.12102    1.10948

     8   C  1s       1.99106
     8   C  2s       1.03585
     8   C  2p       1.04786    1.15690    1.16767

     9   H  1s       0.86856

    10   H  1s       0.86011

    11   H  1s       0.86437

    12   H  1s       0.86570

    13   H  1s       0.86533

    14   H  1s       0.86990

    15   H  1s       0.89145

 Summary of localized orbital composition:   [THRPRINT= 0.020]

   ORB  GRP  ORB.ENERGY      CENTERS/CHARGES
     1   1   -18.622041      O  1   2.000
     2   1    -9.855219      C  5   2.000
     3   1    -9.835585      C  2   2.000
     4   1    -9.783985      C  7   2.000
     5   1    -9.780757      C  8   2.000
     6   1    -0.689709      O  1   1.245   C  2   0.746
     7   1    -0.671480      O  1   1.262   C  5   0.718
     8   1    -0.518797      C  5   0.994   C  8   0.991
     9   1    -0.516860      C  7   1.006   C  5   0.985
    10   1    -0.474729      O  1   1.959   (other: 0.041)
    11   1    -0.462433      C  2   1.130   H  4   0.869
    12   1    -0.462093      C  2   1.128   H 15   0.870
    13   1    -0.461690      C  2   1.146   H  3   0.846
    14   1    -0.457896      C  5   1.107   H  6   0.873   (other: 0.020)
    15   1    -0.446570      C  7   1.126   H 12   0.857
    16   1    -0.444489      C  7   1.126   H 14   0.862
    17   1    -0.444248      C  8   1.124   H  9   0.861
    18   1    -0.440504      C  7   1.132   H 13   0.857
    19   1    -0.438029      C  8   1.132   H 11   0.856
    20   1    -0.437794      C  8   1.136   H 10   0.852
    21   1    -0.243953      O  1   1.899   C  5   0.021   C  2   0.021   (other: 0.060)

 Localized orbitals saved to record      2200.2  (orbital set 4)


 **********************************************************************************************************************************
 DATASETS  * FILE   NREC   LENGTH (MB)   RECORD NAMES
              1      20      117.72       500      610      700      900      950      970     1000      129      960     1100   
                                          VAR    BASINP    GEOM    SYMINP    ZMAT    AOBASIS   BASIS     P2S    ABASIS      S 
                                         1400     1410     1200     1210     1080     1600     1650     1300     1700     1800   
                                           T        V       H0       H01     AOSYM     SMH    MOLCAS    ERIS     OPER     GRID   

              2       5        3.71       700     1000      520     1800     2200   
                                         GEOM     BASIS   MCVARS    GRID      UKS  

 PROGRAMS   *        TOTAL      IBBA       UKS       INT
 CPU TIMES  *        26.63      0.04     22.57      3.86
 REAL TIME  *        32.13 SEC
 DISK USED  *       409.85 MB      
 **********************************************************************************************************************************
 Molecular orbitals read from record     2200.2  Type=UKS/LOCAL(IBO)  
 Occupation numbers read from record     2200.2  Type=UKS/LOCAL(IBO)  
 Orbital energies read from record       2200.2  Type=UKS/LOCAL(IBO)  
 Redundancy group numbers read from rec  2200.2  Type=UKS/BETA (state 1.1)

 IBBA/SVP energy=      0.000000000000

        UKS-SCF 
   -233.40657254
 **********************************************************************************************************************************
 Molpro calculation terminated
