
 Primary working directories    : /tmp/sb13343
 Secondary working directories  : /tmp/sb13343
 Wavefunction directory         : /panfs/panasas01/chem/sb13343/wfu/
 Main file repository           : /tmp/sb13343/

 SHA1      : b4a5b34a9e711420743f49e6833241d17c61fb3c
 NAME      : 2099.9.b4a5b34
 ARCHNAME  : linux/x86_64_openmp
 FC        : /cm/shared/languages/GCC-6.1/bin/gfortran
 BLASLIB   : -lblas
 id        : simonbennie

 Nodes     nprocs
 node35-048    1

 Using customized tuning parameters: mindgm=1; mindgv=20; mindgc=4; mindgr=1; noblas=0; minvec=7
 default implementation of scratch files=df  

 memory,500,m
 geomtyp=xyz
 nosym
 noorient
 geometry={
 C          0.00000        0.00000        0.00000
 H          0.00000        0.00000        1.10056
 C          1.46209        0.00000       -0.46855
 C         -0.73105       -1.26621       -0.46855
 C         -0.73105        1.26621       -0.46855
 H          1.52118        0.00000       -1.56505
 H         -0.76059       -1.31738       -1.56505
 H         -0.76059        1.31738       -1.56505
 H          1.99755        0.88622       -0.10723
 H          1.99755       -0.88622       -0.10723
 H         -0.23129       -2.17304       -0.10723
 H         -1.76626       -1.28682       -0.10723
 H         -1.76626        1.28682       -0.10723
 H         -0.23129        2.17304       -0.10723
 }
 basis={ default,svp }
 {ks,B-P,direct;wf,34,1,0}
 {ibba,bonds=1}

 Variables initialized (895), CPU time= 0.00 sec
 Commands  initialized (725), CPU time= 0.01 sec, 591 directives.
 Default parameters read. Elapsed time= 2.73 sec

 Checking input...
 Passed
1


                                         ***  PROGRAM SYSTEM MOLPRO  ***
                                       Copyright, TTI GmbH Stuttgart, 2015
                                    Version 2099.9 linked May 26 2017 16:03:21


 **********************************************************************************************************************************
 LABEL *                                                                                 
  64 bit serial version                                                                  DATE: 07-Jun-17          TIME: 18:55:22  
 **********************************************************************************************************************************

 SHA1:             b4a5b34a9e711420743f49e6833241d17c61fb3c
 **********************************************************************************************************************************
 SETTING GEOMTYP        =    XYZ

 Variable memory set to  500000000 words,  buffer space 

 ZSYMEL=NOSYM

 SETTING BASIS          =    SVP


 Recomputing integrals since basis changed


 Using spherical harmonics

 Library entry C      S def2-SVP             selected for orbital group  1
 Library entry C      P def2-SVP             selected for orbital group  1
 Library entry C      D def2-SVP             selected for orbital group  1
 Library entry H      S def2-SVP             selected for orbital group  2
 Library entry H      P def2-SVP             selected for orbital group  2


 PROGRAM * SEWARD (Integral evaluation for generally contracted gaussian basis sets)     Author: Roland Lindh, 1990

 Geometry written to block  1 of record 700


 Point group  C1  



 ATOMIC COORDINATES

 NR  ATOM    CHARGE       X              Y              Z

   1  C       6.00    0.000000000    0.000000000    0.000000000
   2  H       1.00    0.000000000    0.000000000    2.079756984
   3  C       6.00    2.762949669    0.000000000   -0.885431176
   4  C       6.00   -1.381484283   -2.392790116   -0.885431176
   5  C       6.00   -1.381484283    2.392790116   -0.885431176
   6  H       1.00    2.874613586    0.000000000   -2.957515871
   7  H       1.00   -1.437306793   -2.489487402   -2.957515871
   8  H       1.00   -1.437306793    2.489487402   -2.957515871
   9  H       1.00    3.774822420    1.674713086   -0.202635332
  10  H       1.00    3.774822420   -1.674713086   -0.202635332
  11  H       1.00   -0.437074755   -4.106450458   -0.202635332
  12  H       1.00   -3.337747665   -2.431737372   -0.202635332
  13  H       1.00   -3.337747665    2.431737372   -0.202635332
  14  H       1.00   -0.437074755    4.106450458   -0.202635332

 Bond lengths in Bohr (Angstrom)

 1-2  2.079756984  1-3  2.901358172  1-4  2.901367218  1-5  2.901367218  3-6  2.075091279
     ( 1.100560000)     ( 1.535332625)     ( 1.535337412)     ( 1.535337412)     ( 1.098091015)

  3- 9  2.072380406   3-10  2.072380406   4- 7  2.075090722   4-11  2.072378172   4-12  2.072364222
       ( 1.096656483)       ( 1.096656483)       ( 1.098090721)       ( 1.096655301)       ( 1.096647919)

  5- 8  2.075090722   5-13  2.072364222   5-14  2.072378172
       ( 1.098090721)       ( 1.096647919)       ( 1.096655301)

 Bond angles

  1- 3- 6  110.85354902   1- 3- 9  111.37220114   1- 3-10  111.37220114   1- 4- 7  110.85320625

  1- 4-11  111.37204414   1- 4-12  111.37216555   1- 5- 8  110.85320625   1- 5-13  111.37216555

  1- 5-14  111.37204414   2- 1- 3  107.76888332   2- 1- 4  107.76882608   2- 1- 5  107.76882608

  3-1-4  111.11870751   3-1-5  111.11870751   4-1-5  111.11845005   6-3-9  107.62119374

  6- 3-10  107.62119374   7- 4-11  107.62125572   7- 4-12  107.62162102   8- 5-13  107.62162102

  8- 5-14  107.62125572   9- 3-10  107.82352924  11- 4-12  107.82360822  13- 5-14  107.82360822

 NUCLEAR CHARGE:                   34
 NUMBER OF PRIMITIVE AOS:         170
 NUMBER OF SYMMETRY AOS:          166
 NUMBER OF CONTRACTIONS:          106   ( 106A   )
 NUMBER OF CORE ORBITALS:           4   (   4A   )
 NUMBER OF VALENCE ORBITALS:       26   (  26A   )


 NUCLEAR REPULSION ENERGY  134.07051350


 Eigenvalues of metric

         1 0.225E-02 0.614E-02 0.614E-02 0.233E-01 0.256E-01 0.268E-01 0.268E-01 0.277E-01


 Contracted 2-electron integrals neglected if value below      1.0D-11
 AO integral compression algorithm  1   Integral accuracy      1.0D-11

     64.750 MB (compressed) written to integral file ( 46.7%)


 NUMBER OF SORTED TWO-ELECTRON INTEGRALS:   16082956.     BUFFER LENGTH:  32768
 NUMBER OF SEGMENTS:   2  SEGMENT LENGTH:   15997996      RECORD LENGTH: 524288

 Memory used in sort:      16.56 MW

 SORT1 READ    17384690. AND WROTE    14795173. INTEGRALS IN     44 RECORDS. CPU TIME:     0.23 SEC, REAL TIME:     0.52 SEC
 SORT2 READ    14795173. AND WROTE    16082956. INTEGRALS IN    247 RECORDS. CPU TIME:     0.43 SEC, REAL TIME:     0.56 SEC

 FILE SIZES:   FILE 1:    95.4 MBYTE,  FILE 4:   184.6 MBYTE,   TOTAL:    279.9 MBYTE

 OPERATOR DM      FOR CENTER  0  COORDINATES:    0.000000    0.000000    0.000000


 **********************************************************************************************************************************
 DATASETS  * FILE   NREC   LENGTH (MB)   RECORD NAMES
              1      19       87.57       500      610      700      900      950      970     1000      129      960     1100   
                                          VAR    BASINP    GEOM    SYMINP    ZMAT    AOBASIS   BASIS     P2S    ABASIS      S 
                                         1400     1410     1200     1210     1080     1600     1650     1300     1700   
                                           T        V       H0       H01     AOSYM     SMH    MOLCAS    ERIS     OPER   

 PROGRAMS   *        TOTAL       INT
 CPU TIMES  *         2.81      2.67
 REAL TIME  *         6.67 SEC
 DISK USED  *       280.45 MB      
 **********************************************************************************************************************************

 Density functional group B-P=B88+P86
 Functional: B88(Automatically generated (new) B88)                            Gradient terms: 1
 Functional: P86(Automatically generated (new) P86)                            Gradient terms: 1
 Use grid at  1800.2

 Functional: B88                       Factor:  1.0000
 Functional: P86                       Factor:  1.0000

 Generated new metagrid on record  1800.2 with target accuracy 1.0D-06 and 45620 points in CPU time    1.1
 Computed new grid on record 1800.1 in CPU time    1.3
   88342 words reserved for DFT integration

 PROGRAM * RKS-SCF (Restricted closed shell Kohn-Sham)     Authors: W. Meyer, H.-J. Werner, P.J. Knowles, 1993

 NUMBER OF ELECTRONS:      17+   17-    SPACE SYMMETRY=1    SPIN SYMMETRY: Singlet 
 CONVERGENCE THRESHOLDS:    1.00E-05 (Density)    1.00E-06 (Energy)
 MAX. NUMBER OF ITERATIONS:       60
 INTERPOLATION TYPE:            DIIS
 INTERPOLATION STEPS:              2 (START)      1 (STEP)
 LEVEL SHIFTS:                  0.00 (CLOSED)  0.00 (OPEN) 



 Use fine grid record 1800.2 for energy threshold  1.0D-06
 Orbital guess generated from atomic densities. Full valence occupancy:   17

 Molecular orbital dump at record        2100.2

 Initial occupancy:  17

 ITERATION    DDIFF          GRAD             ENERGY        2-EL.EN.            DIPOLE MOMENTS         DIIS   ORB.
    1      0.000D+00      0.000D+00      -158.05561314    434.331062   -0.00016   -0.00000   -0.02230    0    start
    2      0.000D+00      0.127D-01      -157.66582346    395.521874   -0.00056   -0.00000    0.04738    1    diag
    3      0.313D-01      0.195D-01      -158.33379041    419.635913   -0.00025   -0.00000    0.08491    2    diag
    4      0.220D-01      0.136D-02      -158.33577636    418.824464   -0.00026   -0.00000    0.02383    3    diag
    5      0.184D-02      0.755D-03      -158.33659579    418.884012   -0.00027   -0.00000    0.02384    4    diag
    6      0.625D-03      0.124D-03      -158.33661825    418.882976   -0.00027   -0.00000    0.04413    5    diag
    7      0.149D-03      0.240D-04      -158.33661926    418.894075   -0.00027   -0.00000    0.03593    6    diag
    8      0.346D-04      0.573D-05      -158.33661932    418.895916   -0.00027   -0.00000    0.03759    7    diag
    9      0.729D-05      0.206D-06      -158.33661932    418.896178   -0.00027   -0.00000    0.03755    0    orth

 Final occupancy:  17

 !RKS STATE 1.1 Energy               -158.336619319112
 Nuclear energy                       134.07051350
 One-electron energy                 -476.45719206
 Two-electron energy                  209.44808876
 Density functional                   -25.39802952     B88=-24.20890300 P86= -1.18912652
 Virial quotient                       -1.01400705
 !RKS STATE 1.1 Dipole moment          -0.00026887    -0.00000000     0.03754770
 Dipole moment /Debye                  -0.00068335    -0.00000000     0.09543047

 Orbital energies:

         1.1          2.1          3.1          4.1          5.1          6.1          7.1          8.1          9.1         10.1
     -9.913827    -9.898751    -9.898734    -9.898715    -0.720578    -0.608090    -0.608085    -0.496288    -0.412499    -0.383080

        11.1         12.1         13.1         14.1         15.1         16.1         17.1         18.1         19.1
     -0.383069    -0.337171    -0.337163    -0.317947    -0.287985    -0.287984    -0.279877     0.035957     0.078864

 HOMO     17.1    -0.279877 =      -7.6158eV
 LUMO     18.1     0.035957 =       0.9784eV
 LUMO-HOMO         0.315834 =       8.5943eV


 **********************************************************************************************************************************
 DATASETS  * FILE   NREC   LENGTH (MB)   RECORD NAMES
              1      20       89.03       500      610      700      900      950      970     1000      129      960     1100   
                                          VAR    BASINP    GEOM    SYMINP    ZMAT    AOBASIS   BASIS     P2S    ABASIS      S 
                                         1400     1410     1200     1210     1080     1600     1650     1300     1700     1800   
                                           T        V       H0       H01     AOSYM     SMH    MOLCAS    ERIS     OPER     GRID   

              2       5        3.22       700     1000      520     1800     2100   
                                         GEOM     BASIS   MCVARS    GRID      RKS  

 PROGRAMS   *        TOTAL        KS       INT
 CPU TIMES  *        12.75      9.94      2.67
 REAL TIME  *        17.91 SEC
 DISK USED  *       280.45 MB      
 **********************************************************************************************************************************


 PROGRAM * Intrinsic Basis Bonding Analysis (IBBA)          Author: G. Knizia

 Molecular orbitals read from record     2100.2  Type=RKS/CANONICAL (state 1.1)
 Fock matrix read from record            2100.2  Type=RKS/TOTAL (state 1.1)
 Orbital energies read from record       2100.2  Type=RKS/CANONICAL (state 1.1)
 Density matrix read from record         2100.2  Type=RKS/CHARGE (state 1.1)

 Number of core orbitals:           4 (   4 )
 Number of closed-shell orbitals:  13 (  13 )

 Basis set MINAO-AUTO-PP generated.      Number of basis functions:   30 

 Polarized AO type:                A = (O Ot + (1-O)(1-Ot)) P12
 Orthogonalization method:         Symmetric (Loewdin)
 Localization functional:          L = sum[A,i] <i|n_A|i>^4 -> max

 Localization group 1:  17 orbitals, occupancy  2.000
 Iterative localization: IB/PM,    7 iter; Final gradient 0.11E-08

 Bond order analysis:       [THRPRINT= 0.020]

   CEN ATOM   CEN ATOM     WIBERG.BO      RENORM.BO
     1   C  -   3   C       1.014535       1.009628
     1   C  -   5   C       1.014523       1.009612
     1   C  -   4   C       1.014523       1.009612
     1   C  -   2   H       0.930889       0.954048

     2   H  -   1   C       0.930889       0.954048

     3   C  -   1   C       1.014535       1.009628
     3   C  -   9   H       0.963422       0.982498
     3   C  -  10   H       0.963422       0.982498
     3   C  -   6   H       0.961872       0.977238

     4   C  -   1   C       1.014523       1.009612
     4   C  -  11   H       0.963431       0.982502
     4   C  -  12   H       0.963415       0.982503
     4   C  -   7   H       0.961861       0.977234

     5   C  -   1   C       1.014523       1.009612
     5   C  -  14   H       0.963431       0.982502
     5   C  -  13   H       0.963415       0.982503
     5   C  -   8   H       0.961861       0.977234

     6   H  -   3   C       0.961872       0.977238

     7   H  -   4   C       0.961861       0.977234

     8   H  -   5   C       0.961861       0.977234

     9   H  -   3   C       0.963422       0.982498

    10   H  -   3   C       0.963422       0.982498

    11   H  -   4   C       0.963431       0.982502

    12   H  -   4   C       0.963415       0.982503

    13   H  -   5   C       0.963415       0.982503

    14   H  -   5   C       0.963431       0.982502


 Valency analysis:

   CEN ATOM   TOT.VALENCE
     1   C       3.981382
     2   H       0.985439
     3   C       3.941841
     4   C       3.941823
     5   C       3.941823
     6   H       0.984188
     7   H       0.984178
     8   H       0.984178
     9   H       0.983057
    10   H       0.983057
    11   H       0.983065
    12   H       0.983046
    13   H       0.983046
    14   H       0.983065

 Total charge composition:

   CEN ATOM         s          p       ELECTRONS ->P.CHARGE
     1   C       2.95229    3.12460      6.07688   -0.07688
     2   H       0.87933                 0.87933    0.12067
     3   C       3.02406    3.37661      6.40067   -0.40067
     4   C       3.02406    3.37666      6.40072   -0.40072
     5   C       3.02406    3.37666      6.40072   -0.40072
     6   H       0.87426                 0.87426    0.12574
     7   H       0.87421                 0.87421    0.12579
     8   H       0.87421                 0.87421    0.12579
     9   H       0.86984                 0.86984    0.13016
    10   H       0.86984                 0.86984    0.13016
    11   H       0.86986                 0.86986    0.13014
    12   H       0.86979                 0.86979    0.13021
    13   H       0.86979                 0.86979    0.13021
    14   H       0.86986                 0.86986    0.13014

 Total charge composition, AO contributions:

   CEN ATOM SHL      SPHERICAL COMPONENTS
     1   C  1s       1.99184
     1   C  2s       0.96045
     1   C  2p       1.00706    1.00706    1.11048

     2   H  1s       0.87933

     3   C  1s       1.99125
     3   C  2s       1.03281
     3   C  2p       1.06770    1.16042    1.14849

     4   C  1s       1.99125
     4   C  2s       1.03281
     4   C  2p       1.13727    1.09086    1.14853

     5   C  1s       1.99125
     5   C  2s       1.03281
     5   C  2p       1.13727    1.09086    1.14853

     6   H  1s       0.87426

     7   H  1s       0.87421

     8   H  1s       0.87421

     9   H  1s       0.86984

    10   H  1s       0.86984

    11   H  1s       0.86986

    12   H  1s       0.86979

    13   H  1s       0.86979

    14   H  1s       0.86986

 Summary of localized orbital composition:   [THRPRINT= 0.020]

   ORB  GRP  ORB.ENERGY      CENTERS/CHARGES
     1   1    -9.813459      C  1   2.000
     2   1    -9.788008      C  3   2.000
     3   1    -9.787986      C  4   2.000
     4   1    -9.787986      C  5   2.000
     5   1    -0.498213      C  3   1.006   C  1   0.977
     6   1    -0.498206      C  4   1.006   C  1   0.977
     7   1    -0.498206      C  5   1.006   C  1   0.977
     8   1    -0.440557      C  3   1.128   H  9   0.862
     9   1    -0.440557      C  3   1.128   H 10   0.862
    10   1    -0.440551      C  5   1.128   H 14   0.862
    11   1    -0.440551      C  4   1.128   H 11   0.862
    12   1    -0.440542      C  5   1.128   H 13   0.862
    13   1    -0.440542      C  4   1.128   H 12   0.862
    14   1    -0.439895      C  3   1.124   H  6   0.866
    15   1    -0.439877      C  5   1.124   H  8   0.866
    16   1    -0.439877      C  4   1.124   H  7   0.866
    17   1    -0.434830      C  1   1.102   H  2   0.866   (other: 0.032)

 Localized orbitals saved to record      2100.2  (orbital set 2)


 **********************************************************************************************************************************
 DATASETS  * FILE   NREC   LENGTH (MB)   RECORD NAMES
              1      20       89.03       500      610      700      900      950      970     1000      129      960     1100   
                                          VAR    BASINP    GEOM    SYMINP    ZMAT    AOBASIS   BASIS     P2S    ABASIS      S 
                                         1400     1410     1200     1210     1080     1600     1650     1300     1700     1800   
                                           T        V       H0       H01     AOSYM     SMH    MOLCAS    ERIS     OPER     GRID   

              2       5        3.31       700     1000      520     1800     2100   
                                         GEOM     BASIS   MCVARS    GRID      RKS  

 PROGRAMS   *        TOTAL      IBBA        KS       INT
 CPU TIMES  *        12.79      0.03      9.94      2.67
 REAL TIME  *        18.04 SEC
 DISK USED  *       280.45 MB      
 **********************************************************************************************************************************
 Molecular orbitals read from record     2100.2  Type=RKS/LOCAL(IBO)  
 Occupation numbers read from record     2100.2  Type=RKS/LOCAL(IBO)  
 Orbital energies read from record       2100.2  Type=RKS/LOCAL(IBO)  
 Redundancy group numbers read from rec  2100.2  Type=RKS/LOCAL(IBO)  

 IBBA/SVP energy=      0.000000000000

        KS-SCF  
   -158.33661932
 **********************************************************************************************************************************
 Molpro calculation terminated
