
 Primary working directories    : /tmp/sb13343
 Secondary working directories  : /tmp/sb13343
 Wavefunction directory         : /panfs/panasas01/chem/sb13343/wfu/
 Main file repository           : /tmp/sb13343/

 SHA1      : b4a5b34a9e711420743f49e6833241d17c61fb3c
 NAME      : 2099.9.b4a5b34
 ARCHNAME  : linux/x86_64_openmp
 FC        : /cm/shared/languages/GCC-6.1/bin/gfortran
 BLASLIB   : -lblas
 id        : simonbennie

 Nodes     nprocs
 node32-007    1

 Using customized tuning parameters: mindgm=1; mindgv=20; mindgc=4; mindgr=1; noblas=0; minvec=7
 default implementation of scratch files=df  

 memory,500,m
 geomtyp=xyz
 nosym
 noorient
 geometry={
 O          0.25818        0.93788        0.04074
 C          1.63656        1.04230        0.32330
 H          1.89907        2.10041        0.23555
 H          2.26234        0.47024       -0.37847
 C         -0.29581       -0.36510        0.22961
 H          0.07373       -0.77023        1.18842
 C          0.09996       -1.32219       -0.89979
 C         -1.80707       -0.17660        0.31883
 H         -2.30941       -1.13436        0.49338
 H         -2.05917        0.50650        1.13581
 H         -2.19015        0.25071       -0.61475
 H         -0.34617       -2.31074       -0.74107
 H         -0.25158       -0.93408       -1.86253
 H          1.18531       -1.45552       -0.96063
 H          1.86878        0.70360        1.34661
 }
 basis={ default,svp }
 {ks,VWN,direct;wf,42,1,0}
 {ibba,bonds=1}

 Variables initialized (895), CPU time= 0.00 sec
 Commands  initialized (725), CPU time= 0.02 sec, 591 directives.
 Default parameters read. Elapsed time= 0.08 sec

 Checking input...
 Passed
1


                                         ***  PROGRAM SYSTEM MOLPRO  ***
                                       Copyright, TTI GmbH Stuttgart, 2015
                                    Version 2099.9 linked May 26 2017 16:03:21


 **********************************************************************************************************************************
 LABEL *                                                                                 
  64 bit serial version                                                                  DATE: 07-Jun-17          TIME: 22:05:23  
 **********************************************************************************************************************************

 SHA1:             b4a5b34a9e711420743f49e6833241d17c61fb3c
 **********************************************************************************************************************************
 SETTING GEOMTYP        =    XYZ

 Variable memory set to  500000000 words,  buffer space 

 ZSYMEL=NOSYM

 SETTING BASIS          =    SVP


 Recomputing integrals since basis changed


 Using spherical harmonics

 Library entry O      S def2-SVP             selected for orbital group  1
 Library entry O      P def2-SVP             selected for orbital group  1
 Library entry O      D def2-SVP             selected for orbital group  1
 Library entry C      S def2-SVP             selected for orbital group  2
 Library entry C      P def2-SVP             selected for orbital group  2
 Library entry C      D def2-SVP             selected for orbital group  2
 Library entry H      S def2-SVP             selected for orbital group  3
 Library entry H      P def2-SVP             selected for orbital group  3


 PROGRAM * SEWARD (Integral evaluation for generally contracted gaussian basis sets)     Author: Roland Lindh, 1990

 Geometry written to block  1 of record 700


 Point group  C1  



 ATOMIC COORDINATES

 NR  ATOM    CHARGE       X              Y              Z

   1  O       8.00    0.487889491    1.772336338    0.076987442
   2  C       6.00    3.092650186    1.969661540    0.610948456
   3  H       1.00    3.588722191    3.969199649    0.445124989
   4  H       1.00    4.275203001    0.888624813   -0.715204646
   5  C       6.00   -0.558999885   -0.689939008    0.433900015
   6  H       1.00    0.139329507   -1.455523753    2.245788321
   7  C       6.00    0.188897023   -2.498576985   -1.700356670
   8  C       6.00   -3.414867388   -0.333725634    0.602501380
   9  H       1.00   -4.364152409   -2.143629727    0.932353075
  10  H       1.00   -3.891267344    0.957146282    2.146369830
  11  H       1.00   -4.138783672    0.473773237   -1.161709135
  12  H       1.00   -0.654166493   -4.366665745   -1.400419339
  13  H       1.00   -0.475417298   -1.765155378   -3.519671599
  14  H       1.00    2.239911273   -2.750534169   -1.815327607
  15  H       1.00    3.531482387    1.329611301    2.544724097

 Bond lengths in Bohr (Angstrom)

  1- 2  2.666238902   1- 5  2.699289504   2- 3  2.066818209   2- 4  2.079844613   2-15  2.083680934
       ( 1.410912866)       ( 1.428402491)       ( 1.093713095)       ( 1.100606371)       ( 1.102636465)

  5- 6  2.087276497   5- 7  2.895785336   5- 8  2.882931422   7-12  2.071345966   7-13  2.071020903
       ( 1.104539155)       ( 1.532383608)       ( 1.525581609)       ( 1.096109081)       ( 1.095937065)

  7-14  2.069628032   8- 9  2.070192508   8-10  2.068051501   8-11  2.070880961
       ( 1.095199989)       ( 1.095498697)       ( 1.094365725)       ( 1.095863011)

 Bond angles

  1- 2- 3  106.85884507   1- 2- 4  112.91125973   1- 2-15  111.64621834   1- 5- 6  108.63888518

  1-5-7  111.84608248   1-5-8  106.21369660   2-1-5  114.82992588   3-2-4  108.37425913

  3- 2-15  108.72850466   4- 2-15  108.20064699   5- 7-12  110.57572754   5- 7-13  110.08520206

  5- 7-14  111.89623115   5- 8- 9  110.82645738   5- 8-10  110.42517473   5- 8-11  110.16013005

  6- 5- 7  108.92239636   6- 5- 8  109.02480146   7- 5- 8  112.09364518   9- 8-10  108.73162751

  9- 8-11  108.44218100  10- 8-11  108.18344616  12- 7-13  108.42317703  12- 7-14  107.55382926

 13- 7-14  108.19151953

 NUCLEAR CHARGE:                   42
 NUMBER OF PRIMITIVE AOS:         195
 NUMBER OF SYMMETRY AOS:          190
 NUMBER OF CONTRACTIONS:          120   ( 120A   )
 NUMBER OF CORE ORBITALS:           5   (   5A   )
 NUMBER OF VALENCE ORBITALS:       30   (  30A   )


 NUCLEAR REPULSION ENERGY  195.74983609


 Eigenvalues of metric

         1 0.241E-02 0.514E-02 0.104E-01 0.150E-01 0.214E-01 0.243E-01 0.289E-01 0.305E-01


 Contracted 2-electron integrals neglected if value below      1.0D-11
 AO integral compression algorithm  1   Integral accuracy      1.0D-11

     97.518 MB (compressed) written to integral file ( 44.4%)


 NUMBER OF SORTED TWO-ELECTRON INTEGRALS:   26357430.     BUFFER LENGTH:  32768
 NUMBER OF SEGMENTS:   2  SEGMENT LENGTH:   15997996      RECORD LENGTH: 524288

 Memory used in sort:      16.56 MW

 SORT1 READ    27501115. AND WROTE    22923365. INTEGRALS IN     67 RECORDS. CPU TIME:     0.36 SEC, REAL TIME:     0.71 SEC
 SORT2 READ    22923365. AND WROTE    26357430. INTEGRALS IN    372 RECORDS. CPU TIME:     0.58 SEC, REAL TIME:     1.18 SEC

 FILE SIZES:   FILE 1:   128.3 MBYTE,  FILE 4:   281.1 MBYTE,   TOTAL:    409.3 MBYTE

 OPERATOR DM      FOR CENTER  0  COORDINATES:    0.000000    0.000000    0.000000


 **********************************************************************************************************************************
 DATASETS  * FILE   NREC   LENGTH (MB)   RECORD NAMES
              1      19      116.03       500      610      700      900      950      970     1000      129      960     1100   
                                          VAR    BASINP    GEOM    SYMINP    ZMAT    AOBASIS   BASIS     P2S    ABASIS      S 
                                         1400     1410     1200     1210     1080     1600     1650     1300     1700   
                                           T        V       H0       H01     AOSYM     SMH    MOLCAS    ERIS     OPER   

 PROGRAMS   *        TOTAL       INT
 CPU TIMES  *         3.97      3.82
 REAL TIME  *         8.76 SEC
 DISK USED  *       409.85 MB      
 **********************************************************************************************************************************

 Density functional group VWN=VWN5
 Functional: VWN5(Automatically generated (new) VWN5)                          Gradient terms: 0
 Use grid at  1800.2

 Functional: VWN5                      Factor:  1.0000

 Generated new metagrid on record  1800.2 with target accuracy 1.0D-06 and 52852 points in CPU time    1.4
 Computed new grid on record 1800.1 in CPU time    1.6
   53819 words reserved for DFT integration

 PROGRAM * RKS-SCF (Restricted closed shell Kohn-Sham)     Authors: W. Meyer, H.-J. Werner, P.J. Knowles, 1993

 NUMBER OF ELECTRONS:      21+   21-    SPACE SYMMETRY=1    SPIN SYMMETRY: Singlet 
 CONVERGENCE THRESHOLDS:    1.00E-05 (Density)    1.00E-06 (Energy)
 MAX. NUMBER OF ITERATIONS:       60
 INTERPOLATION TYPE:            DIIS
 INTERPOLATION STEPS:              2 (START)      1 (STEP)
 LEVEL SHIFTS:                  0.00 (CLOSED)  0.00 (OPEN) 



 Use fine grid record 1800.2 for energy threshold  1.0D-06
 Orbital guess generated from atomic densities. Full valence occupancy:   21

 Molecular orbital dump at record        2100.2

 Initial occupancy:  21

 ITERATION    DDIFF          GRAD             ENERGY        2-EL.EN.            DIPOLE MOMENTS         DIIS   ORB.
    1      0.000D+00      0.000D+00      -201.74235419    557.976284    0.11211    3.99078   -0.90964    0    start
    2      0.000D+00      0.259D-01      -197.60144233    656.637442    0.52005   -5.85295    0.43876    1    diag
    3      0.136D+00      0.553D-01      -202.76891963    599.653958    0.36987   -1.08072    0.51974    2    diag
    4      0.401D-01      0.103D-01      -202.90031739    590.616168    0.04139   -0.07593   -0.21031    3    diag
    5      0.183D-01      0.553D-02      -202.95407318    588.959074    0.08397    0.06790   -0.02407    4    diag
    6      0.702D-02      0.141D-02      -202.95686011    589.170528    0.15503    0.07469    0.03926    5    diag
    7      0.204D-02      0.563D-03      -202.95738554    588.525504    0.09632    0.09700   -0.01560    6    diag
    8      0.120D-02      0.264D-03      -202.95750551    588.593567    0.10499    0.11483   -0.01944    7    diag
    9      0.370D-03      0.773D-04      -202.95751731    588.488293    0.10896    0.12470   -0.01632    8    diag
   10      0.207D-03      0.201D-04      -202.95751790    588.486053    0.10682    0.12653   -0.01805    9    orth
   11      0.390D-04      0.883D-05      -202.95751806    588.482005    0.10673    0.12584   -0.01833    9    diag
   12      0.128D-04      0.215D-05      -202.95751807    588.482536    0.10701    0.12596   -0.01804    9    diag
   13      0.387D-05      0.317D-06      -202.95751807    588.482123    0.10695    0.12605   -0.01821    0    orth

 Final occupancy:  21

 !RKS STATE 1.1 Energy               -202.957518067276
 Nuclear energy                       195.74983609
 One-electron energy                 -690.37138203
 Two-electron energy                  294.24106157
 Density functional                    -2.57703370     VWN5=-2.57703370
 Virial quotient                       -0.93226131
 !RKS STATE 1.1 Dipole moment           0.10695303     0.12604982    -0.01821077
 Dipole moment /Debye                   0.27182967     0.32036570    -0.04628413

 Orbital energies:

         1.1          2.1          3.1          4.1          5.1          6.1          7.1          8.1          9.1         10.1
    -16.648006    -8.286219    -8.276048    -8.246562    -8.244462    -0.615511    -0.408507    -0.324544    -0.298870    -0.227303

        11.1         12.1         13.1         14.1         15.1         16.1         17.1         18.1         19.1         20.1
     -0.186334    -0.155183    -0.148452    -0.115900    -0.083394    -0.075256    -0.061814    -0.040513    -0.029985     0.013929

        21.1         22.1         23.1
      0.064658     0.180506     0.203549

 HOMO     21.1     0.064658 =       1.7594eV
 LUMO     22.1     0.180506 =       4.9118eV
 LUMO-HOMO         0.115848 =       3.1524eV


 **********************************************************************************************************************************
 DATASETS  * FILE   NREC   LENGTH (MB)   RECORD NAMES
              1      20      117.72       500      610      700      900      950      970     1000      129      960     1100   
                                          VAR    BASINP    GEOM    SYMINP    ZMAT    AOBASIS   BASIS     P2S    ABASIS      S 
                                         1400     1410     1200     1210     1080     1600     1650     1300     1700     1800   
                                           T        V       H0       H01     AOSYM     SMH    MOLCAS    ERIS     OPER     GRID   

              2       5        3.30       700     1000      520     1800     2100   
                                         GEOM     BASIS   MCVARS    GRID      RKS  

 PROGRAMS   *        TOTAL        KS       INT
 CPU TIMES  *        15.05     11.08      3.82
 REAL TIME  *        21.13 SEC
 DISK USED  *       409.85 MB      
 **********************************************************************************************************************************


 PROGRAM * Intrinsic Basis Bonding Analysis (IBBA)          Author: G. Knizia

 Molecular orbitals read from record     2100.2  Type=RKS/CANONICAL (state 1.1)
 Fock matrix read from record            2100.2  Type=RKS/TOTAL (state 1.1)
 Orbital energies read from record       2100.2  Type=RKS/CANONICAL (state 1.1)
 Density matrix read from record         2100.2  Type=RKS/CHARGE (state 1.1)

 Number of core orbitals:           5 (   5 )
 Number of closed-shell orbitals:  16 (  16 )

 Basis set MINAO-AUTO-PP generated.      Number of basis functions:   35 

 Polarized AO type:                A = (O Ot + (1-O)(1-Ot)) P12
 Orthogonalization method:         Symmetric (Loewdin)
 Localization functional:          L = sum[A,i] <i|n_A|i>^4 -> max

 Localization group 1:  21 orbitals, occupancy  2.000
 Iterative localization: IB/PM,    7 iter; Final gradient 0.56E-08

 Bond order analysis:       [THRPRINT= 0.020]

   CEN ATOM   CEN ATOM     WIBERG.BO      RENORM.BO
     1   O  -   2   C       1.090157       1.052468
     1   O  -   5   C       1.011824       0.970690
     1   O  -   4   H       0.061583       0.033975
     1   O  -  15   H       0.058510       0.032875
     1   O  -   7   C       0.052236       0.028800
     1   O  -   6   H       0.047180       0.026258
     1   O  -   8   C       0.038667       0.022688
     1   O  -  12   H       0.025961       0.019641
     1   O  -   9   H       0.022733       0.016922

     2   C  -   1   O       1.090157       1.052468
     2   C  -   3   H       0.960973       0.962029
     2   C  -   4   H       0.920659       0.874002
     2   C  -  15   H       0.915512       0.867126

     3   H  -   2   C       0.960973       0.962029

     4   H  -   2   C       0.920659       0.874002
     4   H  -   1   O       0.061583       0.033975

     5   C  -   8   C       1.015836       1.012819
     5   C  -   1   O       1.011824       0.970690
     5   C  -   7   C       1.006224       0.985367
     5   C  -   6   H       0.863975       0.831455

     6   H  -   5   C       0.863975       0.831455
     6   H  -   1   O       0.047180       0.026258
     6   H  -  13   H       0.030039       0.030759
     6   H  -  11   H       0.029670       0.030402

     7   C  -   5   C       1.006224       0.985367
     7   C  -  12   H       0.950222       0.964141
     7   C  -  14   H       0.949897       0.961547
     7   C  -  13   H       0.945116       0.945080
     7   C  -   1   O       0.052236       0.028800
     7   C  -  10   H       0.021855       0.022422

     8   C  -   5   C       1.015836       1.012819
     8   C  -  10   H       0.955232       0.962021
     8   C  -   9   H       0.955215       0.966963
     8   C  -  11   H       0.945640       0.946271
     8   C  -   1   O       0.038667       0.022688

     9   H  -   8   C       0.955215       0.966963
     9   H  -   1   O       0.022733       0.016922

    10   H  -   8   C       0.955232       0.962021
    10   H  -   7   C       0.021855       0.022422

    11   H  -   8   C       0.945640       0.946271
    11   H  -   6   H       0.029670       0.030402

    12   H  -   7   C       0.950222       0.964141
    12   H  -   1   O       0.025961       0.019641

    13   H  -   7   C       0.945116       0.945080
    13   H  -   6   H       0.030039       0.030759

    14   H  -   7   C       0.949897       0.961547

    15   H  -   2   C       0.915512       0.867126
    15   H  -   1   O       0.058510       0.032875


 Valency analysis:

   CEN ATOM   TOT.VALENCE
     1   O       2.439974
     2   C       3.931547
     3   H       0.997915
     4   H       0.999955
     5   C       3.947462
     6   H       0.999753
     7   C       3.961183
     8   C       3.966166
     9   H       0.997887
    10   H       0.998112
    11   H       0.998464
    12   H       0.997454
    13   H       0.998516
    14   H       0.997598
    15   H       0.999988

 Total charge composition:

   CEN ATOM         s          p       ELECTRONS ->P.CHARGE
     1   O       3.48012    4.62492      8.10504   -0.10504
     2   C       2.89299    3.12934      6.02233   -0.02233
     3   H       0.95434                 0.95434    0.04566
     4   H       0.99327                 0.99327    0.00673
     5   C       2.86067    2.96984      5.83051    0.16949
     6   H       1.01573                 1.01573   -0.01573
     7   C       2.90397    3.28449      6.18845   -0.18845
     8   C       2.90407    3.25638      6.16045   -0.16045
     9   H       0.95403                 0.95403    0.04597
    10   H       0.95655                 0.95655    0.04345
    11   H       0.96081                 0.96081    0.03919
    12   H       0.94954                 0.94954    0.05046
    13   H       0.96148                 0.96148    0.03852
    14   H       0.95099                 0.95099    0.04901
    15   H       0.99647                 0.99647    0.00353

 Total charge composition, AO contributions:

   CEN ATOM SHL      SPHERICAL COMPONENTS
     1   O  1s       1.99897
     1   O  2s       1.48116
     1   O  2p       1.34897    1.48957    1.78638

     2   C  1s       1.99794
     2   C  2s       0.89506
     2   C  2p       0.88839    1.12515    1.11581

     3   H  1s       0.95434

     4   H  1s       0.99327

     5   C  1s       1.99816
     5   C  2s       0.86251
     5   C  2p       1.02666    0.88444    1.05875

     6   H  1s       1.01573

     7   C  1s       1.99777
     7   C  2s       0.90620
     7   C  2p       1.11194    1.09504    1.07751

     8   C  1s       1.99774
     8   C  2s       0.90634
     8   C  2p       1.04965    1.10080    1.10594

     9   H  1s       0.95403

    10   H  1s       0.95655

    11   H  1s       0.96081

    12   H  1s       0.94954

    13   H  1s       0.96148

    14   H  1s       0.95099

    15   H  1s       0.99647

 Summary of localized orbital composition:   [THRPRINT= 0.020]

   ORB  GRP  ORB.ENERGY      CENTERS/CHARGES
     1   1   -16.560989      O  1   2.000
     2   1    -8.210456      C  2   2.000
     3   1    -8.204516      C  5   2.000
     4   1    -8.166809      C  7   2.000
     5   1    -8.164052      C  8   2.000
     6   1    -0.415847      O  1   1.175   C  2   0.814
     7   1    -0.396160      O  1   1.200   C  5   0.774   (other: 0.026)
     8   1    -0.240314      C  7   1.021   C  5   0.963
     9   1    -0.240248      C  8   1.005   C  5   0.975
    10   1    -0.176202      C  2   1.048   H  3   0.941
    11   1    -0.176124      C  2   1.039   H  4   0.954
    12   1    -0.175769      C  2   1.034   H 15   0.958
    13   1    -0.174280      C  5   0.979   H  6   0.975   (other: 0.046)
    14   1    -0.164125      C  7   1.035   H 13   0.945   (other: 0.021)
    15   1    -0.163922      C  7   1.041   H 12   0.934   (other: 0.025)
    16   1    -0.163364      C  7   1.044   H 14   0.935   (other: 0.022)
    17   1    -0.161990      C  8   1.036   H 11   0.944   (other: 0.021)
    18   1    -0.161492      C  8   1.038   H  9   0.940   (other: 0.022)
    19   1    -0.159477      C  8   1.039   H 10   0.942
    20   1    -0.122638      O  1   1.913   (other: 0.087)
    21   1     0.004497      O  1   1.808   C  2   0.047   C  5   0.042   H 15   0.027   H  4   0.023   C  7   0.020   (other: 0.032)

 Localized orbitals saved to record      2100.2  (orbital set 2)


 **********************************************************************************************************************************
 DATASETS  * FILE   NREC   LENGTH (MB)   RECORD NAMES
              1      20      117.72       500      610      700      900      950      970     1000      129      960     1100   
                                          VAR    BASINP    GEOM    SYMINP    ZMAT    AOBASIS   BASIS     P2S    ABASIS      S 
                                         1400     1410     1200     1210     1080     1600     1650     1300     1700     1800   
                                           T        V       H0       H01     AOSYM     SMH    MOLCAS    ERIS     OPER     GRID   

              2       5        3.42       700     1000      520     1800     2100   
                                         GEOM     BASIS   MCVARS    GRID      RKS  

 PROGRAMS   *        TOTAL      IBBA        KS       INT
 CPU TIMES  *        15.10      0.04     11.08      3.82
 REAL TIME  *        21.27 SEC
 DISK USED  *       409.85 MB      
 **********************************************************************************************************************************
 Molecular orbitals read from record     2100.2  Type=RKS/LOCAL(IBO)  
 Occupation numbers read from record     2100.2  Type=RKS/LOCAL(IBO)  
 Orbital energies read from record       2100.2  Type=RKS/LOCAL(IBO)  
 Redundancy group numbers read from rec  2100.2  Type=RKS/LOCAL(IBO)  

 IBBA/SVP energy=      0.000000000000

        KS-SCF  
   -202.95751807
 **********************************************************************************************************************************
 Molpro calculation terminated
