
 Primary working directories    : /tmp/sb13343
 Secondary working directories  : /tmp/sb13343
 Wavefunction directory         : /panfs/panasas01/chem/sb13343/wfu/
 Main file repository           : /tmp/sb13343/

 SHA1      : b4a5b34a9e711420743f49e6833241d17c61fb3c
 NAME      : 2099.9.b4a5b34
 ARCHNAME  : linux/x86_64_openmp
 FC        : /cm/shared/languages/GCC-6.1/bin/gfortran
 BLASLIB   : -lblas
 id        : simonbennie

 Nodes     nprocs
 node32-020    1

 Using customized tuning parameters: mindgm=1; mindgv=20; mindgc=4; mindgr=1; noblas=0; minvec=7
 default implementation of scratch files=df  

 memory,500,m
 geomtyp=xyz
 nosym
 noorient
 geometry={
 O          0.25818        0.93788        0.04074
 C          1.63656        1.04230        0.32330
 H          1.89907        2.10041        0.23555
 H          2.26234        0.47024       -0.37847
 C         -0.29581       -0.36510        0.22961
 H          0.07373       -0.77023        1.18842
 C          0.09996       -1.32219       -0.89979
 C         -1.80707       -0.17660        0.31883
 H         -2.30941       -1.13436        0.49338
 H         -2.05917        0.50650        1.13581
 H         -2.19015        0.25071       -0.61475
 H         -0.34617       -2.31074       -0.74107
 H         -0.25158       -0.93408       -1.86253
 H          1.18531       -1.45552       -0.96063
 H          1.86878        0.70360        1.34661
 }
 basis={ default,sto-3g }
 {ks,B3LYP5,direct;wf,42,1,0}
 {ibba,bonds=1}

 Variables initialized (895), CPU time= 0.00 sec
 Commands  initialized (725), CPU time= 0.02 sec, 591 directives.
 Default parameters read. Elapsed time= 0.08 sec

 Checking input...
 Passed
1


                                         ***  PROGRAM SYSTEM MOLPRO  ***
                                       Copyright, TTI GmbH Stuttgart, 2015
                                    Version 2099.9 linked May 26 2017 16:03:21


 **********************************************************************************************************************************
 LABEL *                                                                                 
  64 bit serial version                                                                  DATE: 07-Jun-17          TIME: 21:36:32  
 **********************************************************************************************************************************

 SHA1:             b4a5b34a9e711420743f49e6833241d17c61fb3c
 **********************************************************************************************************************************
 SETTING GEOMTYP        =    XYZ

 Variable memory set to  500000000 words,  buffer space 

 ZSYMEL=NOSYM

 SETTING BASIS          =    STO-3G


 Recomputing integrals since basis changed


 Using spherical harmonics

 Library entry O      S STO-3G               selected for orbital group  1
 Library entry O      P STO-3G               selected for orbital group  1
 Library entry C      S STO-3G               selected for orbital group  2
 Library entry C      P STO-3G               selected for orbital group  2
 Library entry H      S STO-3G               selected for orbital group  3


 PROGRAM * SEWARD (Integral evaluation for generally contracted gaussian basis sets)     Author: Roland Lindh, 1990

 Geometry written to block  1 of record 700


 Point group  C1  



 ATOMIC COORDINATES

 NR  ATOM    CHARGE       X              Y              Z

   1  O       8.00    0.487889491    1.772336338    0.076987442
   2  C       6.00    3.092650186    1.969661540    0.610948456
   3  H       1.00    3.588722191    3.969199649    0.445124989
   4  H       1.00    4.275203001    0.888624813   -0.715204646
   5  C       6.00   -0.558999885   -0.689939008    0.433900015
   6  H       1.00    0.139329507   -1.455523753    2.245788321
   7  C       6.00    0.188897023   -2.498576985   -1.700356670
   8  C       6.00   -3.414867388   -0.333725634    0.602501380
   9  H       1.00   -4.364152409   -2.143629727    0.932353075
  10  H       1.00   -3.891267344    0.957146282    2.146369830
  11  H       1.00   -4.138783672    0.473773237   -1.161709135
  12  H       1.00   -0.654166493   -4.366665745   -1.400419339
  13  H       1.00   -0.475417298   -1.765155378   -3.519671599
  14  H       1.00    2.239911273   -2.750534169   -1.815327607
  15  H       1.00    3.531482387    1.329611301    2.544724097

 Bond lengths in Bohr (Angstrom)

  1- 2  2.666238902   1- 5  2.699289504   2- 3  2.066818209   2- 4  2.079844613   2-15  2.083680934
       ( 1.410912866)       ( 1.428402491)       ( 1.093713095)       ( 1.100606371)       ( 1.102636465)

  5- 6  2.087276497   5- 7  2.895785336   5- 8  2.882931422   7-12  2.071345966   7-13  2.071020903
       ( 1.104539155)       ( 1.532383608)       ( 1.525581609)       ( 1.096109081)       ( 1.095937065)

  7-14  2.069628032   8- 9  2.070192508   8-10  2.068051501   8-11  2.070880961
       ( 1.095199989)       ( 1.095498697)       ( 1.094365725)       ( 1.095863011)

 Bond angles

  1- 2- 3  106.85884507   1- 2- 4  112.91125973   1- 2-15  111.64621834   1- 5- 6  108.63888518

  1-5-7  111.84608248   1-5-8  106.21369660   2-1-5  114.82992588   3-2-4  108.37425913

  3- 2-15  108.72850466   4- 2-15  108.20064699   5- 7-12  110.57572754   5- 7-13  110.08520206

  5- 7-14  111.89623115   5- 8- 9  110.82645738   5- 8-10  110.42517473   5- 8-11  110.16013005

  6- 5- 7  108.92239636   6- 5- 8  109.02480146   7- 5- 8  112.09364518   9- 8-10  108.73162751

  9- 8-11  108.44218100  10- 8-11  108.18344616  12- 7-13  108.42317703  12- 7-14  107.55382926

 13- 7-14  108.19151953

 NUCLEAR CHARGE:                   42
 NUMBER OF PRIMITIVE AOS:         105
 NUMBER OF SYMMETRY AOS:          105
 NUMBER OF CONTRACTIONS:           35   (  35A   )
 NUMBER OF CORE ORBITALS:           5   (   5A   )
 NUMBER OF VALENCE ORBITALS:       30   (  30A   )


 NUCLEAR REPULSION ENERGY  195.74983609


 Eigenvalues of metric

         1 0.208E+00 0.227E+00 0.234E+00 0.281E+00 0.352E+00 0.360E+00 0.363E+00 0.368E+00


 Contracted 2-electron integrals neglected if value below      1.0D-11
 AO integral compression algorithm  1   Integral accuracy      1.0D-11

     1.573 MB (compressed) written to integral file ( 89.1%)


 NUMBER OF SORTED TWO-ELECTRON INTEGRALS:     198765.     BUFFER LENGTH:  32768
 NUMBER OF SEGMENTS:   1  SEGMENT LENGTH:     198765      RECORD LENGTH: 524288

 Memory used in sort:       0.76 MW

 SORT1 READ      224802. AND WROTE      193897. INTEGRALS IN      1 RECORDS. CPU TIME:     0.01 SEC, REAL TIME:     0.01 SEC
 SORT2 READ      193897. AND WROTE      198765. INTEGRALS IN      6 RECORDS. CPU TIME:     0.02 SEC, REAL TIME:     0.03 SEC

 FILE SIZES:   FILE 1:    31.8 MBYTE,  FILE 4:     4.2 MBYTE,   TOTAL:     36.0 MBYTE

 OPERATOR DM      FOR CENTER  0  COORDINATES:    0.000000    0.000000    0.000000


 **********************************************************************************************************************************
 DATASETS  * FILE   NREC   LENGTH (MB)   RECORD NAMES
              1      19       31.10       500      610      700      900      950      970     1000      129      960     1100   
                                          VAR    BASINP    GEOM    SYMINP    ZMAT    AOBASIS   BASIS     P2S    ABASIS      S 
                                         1400     1410     1200     1210     1080     1600     1650     1300     1700   
                                           T        V       H0       H01     AOSYM     SMH    MOLCAS    ERIS     OPER   

 PROGRAMS   *        TOTAL       INT
 CPU TIMES  *         0.71      0.57
 REAL TIME  *         1.11 SEC
 DISK USED  *        36.55 MB      
 **********************************************************************************************************************************

 Density functional group B3LYP5=B88+DIRAC+LYP+VWN5
 Functional: B88(Automatically generated (new) B88)                            Gradient terms: 1
 Functional: DIRAC(Automatically generated (new) DIRAC)                        Gradient terms: 0
 Functional: LYP(Automatically generated (new) LYP)                            Gradient terms: 1
 Functional: VWN5(Automatically generated (new) VWN5)                          Gradient terms: 0
 Use grid at  1800.2


 Exact exchange will be calculated, factor:  0.2000

 Functional: B88                       Factor:  0.7200
 Functional: DIRAC                     Factor:  0.0800
 Functional: LYP                       Factor:  0.8100
 Functional: VWN5                      Factor:  0.1900

 Generated new metagrid on record  1800.2 with target accuracy 1.0D-06 and 52852 points in CPU time    1.4
 Computed new grid on record 1800.1 in CPU time    1.5
   32369 words reserved for DFT integration

 PROGRAM * RKS-SCF (Restricted closed shell Kohn-Sham)     Authors: W. Meyer, H.-J. Werner, P.J. Knowles, 1993

 NUMBER OF ELECTRONS:      21+   21-    SPACE SYMMETRY=1    SPIN SYMMETRY: Singlet 
 CONVERGENCE THRESHOLDS:    1.00E-05 (Density)    1.00E-06 (Energy)
 MAX. NUMBER OF ITERATIONS:       60
 INTERPOLATION TYPE:            DIIS
 INTERPOLATION STEPS:              2 (START)      1 (STEP)
 LEVEL SHIFTS:                  0.00 (CLOSED)  0.00 (OPEN) 



 Use fine grid record 1800.2 for energy threshold  1.0D-06
 Orbital guess generated from atomic densities. Full valence occupancy:   21

 Molecular orbital dump at record        2100.2

 Initial occupancy:  21

 ITERATION    DDIFF          GRAD             ENERGY        2-EL.EN.            DIPOLE MOMENTS         DIIS   ORB.
    1      0.000D+00      0.000D+00      -230.31410129    617.890705    0.60996   -0.99623    0.32118    0    start
    2      0.000D+00      0.249D-01      -230.41298835    593.785969   -0.45601    0.27359   -0.20300    1    diag
    3      0.811D-01      0.202D-01      -230.57374552    603.723196    0.22948   -0.42335    0.16090    2    diag
    4      0.371D-01      0.229D-02      -230.57542104    603.914403    0.16320   -0.33923    0.11831    3    diag
    5      0.448D-02      0.680D-03      -230.57557694    603.861318    0.16650   -0.35631    0.11765    4    diag
    6      0.105D-02      0.808D-04      -230.57557933    603.859181    0.16772   -0.35464    0.11926    5    diag
    7      0.171D-03      0.219D-04      -230.57557952    603.859720    0.16804   -0.35563    0.11979    6    diag
    8      0.412D-04      0.180D-05      -230.57557952    603.859664    0.16801   -0.35556    0.11968    7    diag
    9      0.407D-05      0.579D-06      -230.57557952    603.859586    0.16800   -0.35554    0.11968    0    orth

 Final occupancy:  21

 !RKS STATE 1.1 Energy               -230.575579519938
 Nuclear energy                       195.74983609
 One-electron energy                 -700.84337976
 Two-electron energy                  301.92979320
 SCF exchange energy                  -32.65426251     Factor= 0.2000
 Density functional                   -27.41182906     B88=-32.57059351 DIRAC=-29.35730489 LYP= -1.36561020 VWN5= -2.66459513
 Virial quotient                       -1.01575259
 !RKS STATE 1.1 Dipole moment           0.16799578    -0.35553750     0.11968462
 Dipole moment /Debye                   0.42697471    -0.90362700     0.30418803

 Orbital energies:

         1.1          2.1          3.1          4.1          5.1          6.1          7.1          8.1          9.1         10.1
    -18.867236   -10.057275   -10.043309   -10.000548    -9.998058    -0.959875    -0.735873    -0.652848    -0.628457    -0.532677

        11.1         12.1         13.1         14.1         15.1         16.1         17.1         18.1         19.1         20.1
     -0.440338    -0.418374    -0.402007    -0.382151    -0.357284    -0.349802    -0.331401    -0.308086    -0.297543    -0.194123

        21.1         22.1         23.1
     -0.126047     0.293796     0.368856

 HOMO     21.1    -0.126047 =      -3.4299eV
 LUMO     22.1     0.293796 =       7.9946eV
 LUMO-HOMO         0.419844 =      11.4245eV


 **********************************************************************************************************************************
 DATASETS  * FILE   NREC   LENGTH (MB)   RECORD NAMES
              1      20       32.79       500      610      700      900      950      970     1000      129      960     1100   
                                          VAR    BASINP    GEOM    SYMINP    ZMAT    AOBASIS   BASIS     P2S    ABASIS      S 
                                         1400     1410     1200     1210     1080     1600     1650     1300     1700     1800   
                                           T        V       H0       H01     AOSYM     SMH    MOLCAS    ERIS     OPER     GRID   

              2       5        3.02       700     1000      520     1800     2100   
                                         GEOM     BASIS   MCVARS    GRID      RKS  

 PROGRAMS   *        TOTAL        KS       INT
 CPU TIMES  *         5.17      4.46      0.57
 REAL TIME  *         6.76 SEC
 DISK USED  *        36.55 MB      
 **********************************************************************************************************************************


 PROGRAM * Intrinsic Basis Bonding Analysis (IBBA)          Author: G. Knizia

 Molecular orbitals read from record     2100.2  Type=RKS/CANONICAL (state 1.1)
 Fock matrix read from record            2100.2  Type=RKS/TOTAL (state 1.1)
 Orbital energies read from record       2100.2  Type=RKS/CANONICAL (state 1.1)
 Density matrix read from record         2100.2  Type=RKS/CHARGE (state 1.1)

 Number of core orbitals:           5 (   5 )
 Number of closed-shell orbitals:  16 (  16 )

 Basis set MINAO-AUTO-PP generated.      Number of basis functions:   35 

 Polarized AO type:                A = (O Ot + (1-O)(1-Ot)) P12
 Orthogonalization method:         Symmetric (Loewdin)
 Localization functional:          L = sum[A,i] <i|n_A|i>^4 -> max

 Localization group 1:  21 orbitals, occupancy  2.000
 Iterative localization: IB/PM,    7 iter; Final gradient 0.35E-08

 Bond order analysis:       [THRPRINT= 0.020]

   CEN ATOM   CEN ATOM     WIBERG.BO      RENORM.BO
     1   O  -   2   C       1.019449       1.017008
     1   O  -   5   C       0.988496       0.979059
     1   O  -   4   H       0.030253       0.017872
     1   O  -  15   H       0.028561       0.016987
     1   O  -   7   C       0.027760       0.014592
     1   O  -   6   H       0.022015       0.013243

     2   C  -   1   O       1.019449       1.017008
     2   C  -   3   H       0.956226       0.974876
     2   C  -  15   H       0.954606       0.947630
     2   C  -   4   H       0.953923       0.945647

     3   H  -   2   C       0.956226       0.974876

     4   H  -   2   C       0.953923       0.945647
     4   H  -   1   O       0.030253       0.017872

     5   C  -   8   C       1.003277       0.996392
     5   C  -   7   C       0.996555       0.970408
     5   C  -   1   O       0.988496       0.979059
     5   C  -   6   H       0.936255       0.931853

     6   H  -   5   C       0.936255       0.931853
     6   H  -   1   O       0.022015       0.013243

     7   C  -   5   C       0.996555       0.970408
     7   C  -  14   H       0.965764       0.987355
     7   C  -  12   H       0.965169       0.990474
     7   C  -  13   H       0.964714       0.986481
     7   C  -   1   O       0.027760       0.014592

     8   C  -   5   C       1.003277       0.996392
     8   C  -   9   H       0.966105       0.990871
     8   C  -  11   H       0.963682       0.986470
     8   C  -  10   H       0.963566       0.988255

     9   H  -   8   C       0.966105       0.990871

    10   H  -   8   C       0.963566       0.988255

    11   H  -   8   C       0.963682       0.986470

    12   H  -   7   C       0.965169       0.990474

    13   H  -   7   C       0.964714       0.986481

    14   H  -   7   C       0.965764       0.987355

    15   H  -   2   C       0.954606       0.947630
    15   H  -   1   O       0.028561       0.016987


 Valency analysis:

   CEN ATOM   TOT.VALENCE
     1   O       2.158377
     2   C       3.904212
     3   H       0.980622
     4   H       0.987897
     5   C       3.950564
     6   H       0.988154
     7   C       3.936058
     8   C       3.933413
     9   H       0.982544
    10   H       0.980965
    11   H       0.981956
    12   H       0.982321
    13   H       0.982591
    14   H       0.983674
    15   H       0.987628

 Total charge composition:

   CEN ATOM         s          p       ELECTRONS ->P.CHARGE
     1   O       3.65296    4.57275      8.22571   -0.22571
     2   C       3.00482    3.25023      6.25505   -0.25505
     3   H       0.86080                 0.86080    0.13920
     4   H       0.88999                 0.88999    0.11001
     5   C       2.96313    3.03262      5.99575    0.00425
     6   H       0.89116                 0.89116    0.10884
     7   C       2.99796    3.40176      6.39972   -0.39972
     8   C       2.99627    3.39387      6.39014   -0.39014
     9   H       0.86788                 0.86788    0.13212
    10   H       0.86203                 0.86203    0.13797
    11   H       0.86567                 0.86567    0.13433
    12   H       0.86704                 0.86704    0.13296
    13   H       0.86806                 0.86806    0.13194
    14   H       0.87223                 0.87223    0.12777
    15   H       0.88877                 0.88877    0.11123

 Total charge composition, AO contributions:

   CEN ATOM SHL      SPHERICAL COMPONENTS
     1   O  1s       1.99735
     1   O  2s       1.65561
     1   O  2p       1.28562    1.40565    1.88148

     2   C  1s       1.99245
     2   C  2s       1.01238
     2   C  2p       0.90562    1.18391    1.16070

     3   H  1s       0.86080

     4   H  1s       0.88999

     5   C  1s       1.99294
     5   C  2s       0.97019
     5   C  2p       1.03064    0.89886    1.10312

     6   H  1s       0.89116

     7   C  1s       1.99190
     7   C  2s       1.00606
     7   C  2p       1.15935    1.12780    1.11461

     8   C  1s       1.99182
     8   C  2s       1.00445
     8   C  2p       1.05281    1.16697    1.17409

     9   H  1s       0.86788

    10   H  1s       0.86203

    11   H  1s       0.86567

    12   H  1s       0.86704

    13   H  1s       0.86806

    14   H  1s       0.87223

    15   H  1s       0.88877

 Summary of localized orbital composition:   [THRPRINT= 0.020]

   ORB  GRP  ORB.ENERGY      CENTERS/CHARGES
     1   1   -18.703722      O  1   2.000
     2   1    -9.958398      C  5   2.000
     3   1    -9.935784      C  2   2.000
     4   1    -9.887628      C  8   2.000
     5   1    -9.885922      C  7   2.000
     6   1    -0.656763      O  1   1.162   C  2   0.829
     7   1    -0.634769      O  1   1.169   C  5   0.812
     8   1    -0.531085      C  5   1.002   C  8   0.983
     9   1    -0.526635      C  5   0.996   C  7   0.996
    10   1    -0.494889      O  1   1.972   (other: 0.028)
    11   1    -0.483153      C  2   1.140   H  3   0.852
    12   1    -0.482347      C  2   1.127   H  4   0.872
    13   1    -0.481838      C  2   1.127   H 15   0.871
    14   1    -0.478606      C  5   1.117   H  6   0.869
    15   1    -0.466364      C  8   1.128   H  9   0.862
    16   1    -0.465837      C  7   1.125   H 14   0.866
    17   1    -0.465622      C  7   1.129   H 12   0.860
    18   1    -0.460802      C  8   1.135   H 10   0.856
    19   1    -0.460104      C  7   1.130   H 13   0.862
    20   1    -0.459130      C  8   1.131   H 11   0.860
    21   1    -0.163910      O  1   1.915   (other: 0.085)

 Localized orbitals saved to record      2100.2  (orbital set 2)


 **********************************************************************************************************************************
 DATASETS  * FILE   NREC   LENGTH (MB)   RECORD NAMES
              1      20       32.79       500      610      700      900      950      970     1000      129      960     1100   
                                          VAR    BASINP    GEOM    SYMINP    ZMAT    AOBASIS   BASIS     P2S    ABASIS      S 
                                         1400     1410     1200     1210     1080     1600     1650     1300     1700     1800   
                                           T        V       H0       H01     AOSYM     SMH    MOLCAS    ERIS     OPER     GRID   

              2       5        3.03       700     1000      520     1800     2100   
                                         GEOM     BASIS   MCVARS    GRID      RKS  

 PROGRAMS   *        TOTAL      IBBA        KS       INT
 CPU TIMES  *         5.21      0.03      4.46      0.57
 REAL TIME  *         6.90 SEC
 DISK USED  *        36.55 MB      
 **********************************************************************************************************************************
 Molecular orbitals read from record     2100.2  Type=RKS/LOCAL(IBO)  
 Occupation numbers read from record     2100.2  Type=RKS/LOCAL(IBO)  
 Orbital energies read from record       2100.2  Type=RKS/LOCAL(IBO)  
 Redundancy group numbers read from rec  2100.2  Type=RKS/LOCAL(IBO)  

 IBBA/STO-3G energy=      0.000000000000

        KS-SCF  
   -230.57557952
 **********************************************************************************************************************************
 Molpro calculation terminated
