
 Primary working directories    : /tmp/sb13343
 Secondary working directories  : /tmp/sb13343
 Wavefunction directory         : /panfs/panasas01/chem/sb13343/wfu/
 Main file repository           : /tmp/sb13343/

 SHA1      : b4a5b34a9e711420743f49e6833241d17c61fb3c
 NAME      : 2099.9.b4a5b34
 ARCHNAME  : linux/x86_64_openmp
 FC        : /cm/shared/languages/GCC-6.1/bin/gfortran
 BLASLIB   : -lblas
 id        : simonbennie

 Nodes     nprocs
 node33-019    1

 Using customized tuning parameters: mindgm=1; mindgv=20; mindgc=4; mindgr=1; noblas=0; minvec=7
 default implementation of scratch files=df  

 memory,500,m
 geomtyp=xyz
 nosym
 noorient
 geometry={
 C          0.00000        0.00000        0.00000
 H          0.00000        0.00000        1.10056
 C          1.46209        0.00000       -0.46855
 C         -0.73105       -1.26621       -0.46855
 C         -0.73105        1.26621       -0.46855
 H          1.52118        0.00000       -1.56505
 H         -0.76059       -1.31738       -1.56505
 H         -0.76059        1.31738       -1.56505
 H          1.99755        0.88622       -0.10723
 H          1.99755       -0.88622       -0.10723
 H         -0.23129       -2.17304       -0.10723
 H         -1.76626       -1.28682       -0.10723
 H         -1.76626        1.28682       -0.10723
 H         -0.23129        2.17304       -0.10723
 }
 basis={ default,svp }
 {uks,PBE0,direct;wf,34,1,0}
 {ibba,bonds=1}

 Variables initialized (895), CPU time= 0.00 sec
 Commands  initialized (725), CPU time= 0.02 sec, 591 directives.
 Default parameters read. Elapsed time= 3.50 sec

 Checking input...
 Passed
1


                                         ***  PROGRAM SYSTEM MOLPRO  ***
                                       Copyright, TTI GmbH Stuttgart, 2015
                                    Version 2099.9 linked May 26 2017 16:03:21


 **********************************************************************************************************************************
 LABEL *                                                                                 
  64 bit serial version                                                                  DATE: 07-Jun-17          TIME: 20:09:07  
 **********************************************************************************************************************************

 SHA1:             b4a5b34a9e711420743f49e6833241d17c61fb3c
 **********************************************************************************************************************************
 SETTING GEOMTYP        =    XYZ

 Variable memory set to  500000000 words,  buffer space 

 ZSYMEL=NOSYM

 SETTING BASIS          =    SVP


 Recomputing integrals since basis changed


 Using spherical harmonics

 Library entry C      S def2-SVP             selected for orbital group  1
 Library entry C      P def2-SVP             selected for orbital group  1
 Library entry C      D def2-SVP             selected for orbital group  1
 Library entry H      S def2-SVP             selected for orbital group  2
 Library entry H      P def2-SVP             selected for orbital group  2


 PROGRAM * SEWARD (Integral evaluation for generally contracted gaussian basis sets)     Author: Roland Lindh, 1990

 Geometry written to block  1 of record 700


 Point group  C1  



 ATOMIC COORDINATES

 NR  ATOM    CHARGE       X              Y              Z

   1  C       6.00    0.000000000    0.000000000    0.000000000
   2  H       1.00    0.000000000    0.000000000    2.079756984
   3  C       6.00    2.762949669    0.000000000   -0.885431176
   4  C       6.00   -1.381484283   -2.392790116   -0.885431176
   5  C       6.00   -1.381484283    2.392790116   -0.885431176
   6  H       1.00    2.874613586    0.000000000   -2.957515871
   7  H       1.00   -1.437306793   -2.489487402   -2.957515871
   8  H       1.00   -1.437306793    2.489487402   -2.957515871
   9  H       1.00    3.774822420    1.674713086   -0.202635332
  10  H       1.00    3.774822420   -1.674713086   -0.202635332
  11  H       1.00   -0.437074755   -4.106450458   -0.202635332
  12  H       1.00   -3.337747665   -2.431737372   -0.202635332
  13  H       1.00   -3.337747665    2.431737372   -0.202635332
  14  H       1.00   -0.437074755    4.106450458   -0.202635332

 Bond lengths in Bohr (Angstrom)

 1-2  2.079756984  1-3  2.901358172  1-4  2.901367218  1-5  2.901367218  3-6  2.075091279
     ( 1.100560000)     ( 1.535332625)     ( 1.535337412)     ( 1.535337412)     ( 1.098091015)

  3- 9  2.072380406   3-10  2.072380406   4- 7  2.075090722   4-11  2.072378172   4-12  2.072364222
       ( 1.096656483)       ( 1.096656483)       ( 1.098090721)       ( 1.096655301)       ( 1.096647919)

  5- 8  2.075090722   5-13  2.072364222   5-14  2.072378172
       ( 1.098090721)       ( 1.096647919)       ( 1.096655301)

 Bond angles

  1- 3- 6  110.85354902   1- 3- 9  111.37220114   1- 3-10  111.37220114   1- 4- 7  110.85320625

  1- 4-11  111.37204414   1- 4-12  111.37216555   1- 5- 8  110.85320625   1- 5-13  111.37216555

  1- 5-14  111.37204414   2- 1- 3  107.76888332   2- 1- 4  107.76882608   2- 1- 5  107.76882608

  3-1-4  111.11870751   3-1-5  111.11870751   4-1-5  111.11845005   6-3-9  107.62119374

  6- 3-10  107.62119374   7- 4-11  107.62125572   7- 4-12  107.62162102   8- 5-13  107.62162102

  8- 5-14  107.62125572   9- 3-10  107.82352924  11- 4-12  107.82360822  13- 5-14  107.82360822

 NUCLEAR CHARGE:                   34
 NUMBER OF PRIMITIVE AOS:         170
 NUMBER OF SYMMETRY AOS:          166
 NUMBER OF CONTRACTIONS:          106   ( 106A   )
 NUMBER OF CORE ORBITALS:           4   (   4A   )
 NUMBER OF VALENCE ORBITALS:       26   (  26A   )


 NUCLEAR REPULSION ENERGY  134.07051350


 Eigenvalues of metric

         1 0.225E-02 0.614E-02 0.614E-02 0.233E-01 0.256E-01 0.268E-01 0.268E-01 0.277E-01


 Contracted 2-electron integrals neglected if value below      1.0D-11
 AO integral compression algorithm  1   Integral accuracy      1.0D-11

     64.750 MB (compressed) written to integral file ( 46.7%)


 NUMBER OF SORTED TWO-ELECTRON INTEGRALS:   16082956.     BUFFER LENGTH:  32768
 NUMBER OF SEGMENTS:   2  SEGMENT LENGTH:   15997996      RECORD LENGTH: 524288

 Memory used in sort:      16.56 MW

 SORT1 READ    17384690. AND WROTE    14795173. INTEGRALS IN     44 RECORDS. CPU TIME:     0.23 SEC, REAL TIME:     0.48 SEC
 SORT2 READ    14795173. AND WROTE    16082956. INTEGRALS IN    247 RECORDS. CPU TIME:     0.42 SEC, REAL TIME:     0.54 SEC

 FILE SIZES:   FILE 1:    95.4 MBYTE,  FILE 4:   184.6 MBYTE,   TOTAL:    279.9 MBYTE

 OPERATOR DM      FOR CENTER  0  COORDINATES:    0.000000    0.000000    0.000000


 **********************************************************************************************************************************
 DATASETS  * FILE   NREC   LENGTH (MB)   RECORD NAMES
              1      19       87.57       500      610      700      900      950      970     1000      129      960     1100   
                                          VAR    BASINP    GEOM    SYMINP    ZMAT    AOBASIS   BASIS     P2S    ABASIS      S 
                                         1400     1410     1200     1210     1080     1600     1650     1300     1700   
                                           T        V       H0       H01     AOSYM     SMH    MOLCAS    ERIS     OPER   

 PROGRAMS   *        TOTAL       INT
 CPU TIMES  *         2.79      2.65
 REAL TIME  *         7.28 SEC
 DISK USED  *       280.45 MB      
 **********************************************************************************************************************************

 Density functional group PBE0=PBEX+PBEC
 Functional: PBEX(Automatically generated (new) PBEX)                          Gradient terms: 1
 Functional: PBEC(Automatically generated (new) PBEC)                          Gradient terms: 1
 Use grid at  1800.2


 Exact exchange will be calculated, factor:  0.2500

 Functional: PBEX                      Factor:  0.7500
 Functional: PBEC                      Factor:  1.0000

 Generated new metagrid on record  1800.2 with target accuracy 1.0D-06 and 45620 points in CPU time    1.1
 Computed new grid on record 1800.1 in CPU time    1.3
   88342 words reserved for DFT integration

 PROGRAM * UKS-SCF (Unrestricted Kohn-Sham)     Authors: W. Meyer, H.-J. Werner, P.J. Knowles, 1993

 NUMBER OF ELECTRONS:      17+   17-    SPACE SYMMETRY=1    SPIN SYMMETRY: Singlet 
 CONVERGENCE THRESHOLDS:    1.00E-05 (Density)    1.00E-06 (Energy)
 MAX. NUMBER OF ITERATIONS:       60
 INTERPOLATION TYPE:            DIIS
 INTERPOLATION STEPS:              2 (START)      1 (STEP)
 LEVEL SHIFTS:                 -0.20 (ALPHA)  -0.20 (BETA) 



 Use fine grid record 1800.2 for energy threshold  1.0D-06
 Orbital guess generated from atomic densities. Full valence occupancy:   17

 Molecular orbital dump at record        2200.2

 Initial alpha occupation  17
 Initial beta  occupation  17

 ITERATION    DDIFF          GRAD             ENERGY        2-EL.EN.            DIPOLE MOMENTS         DIIS
    1      0.000D+00      0.000D+00      -157.98616973    417.686200   -0.00012   -0.00000   -0.01735    0
    2      0.986D-02      0.484D-02      -158.12325087    403.986864   -0.00013   -0.00000   -0.00078    1
    3      0.279D-02      0.178D-02      -158.13912033    406.919111   -0.00011   -0.00000    0.03195    2
    4      0.995D-03      0.236D-03      -158.13984049    406.763478   -0.00011   -0.00000    0.03212    3
    5      0.568D-03      0.927D-04      -158.13998320    406.723199   -0.00011   -0.00000    0.03384    4
    6      0.236D-03      0.292D-04      -158.13999760    406.700515   -0.00011   -0.00000    0.03540    5
    7      0.436D-04      0.689D-05      -158.13999824    406.700600   -0.00011   -0.00000    0.03403    6
    8      0.113D-04      0.169D-05      -158.13999829    406.700228   -0.00011   -0.00000    0.03449    6
    9      0.356D-05      0.458D-06      -158.13999830    406.700618   -0.00011   -0.00000    0.03437    6
   10      0.507D-06      0.125D-06      -158.13999830    406.700317   -0.00011   -0.00000    0.03438    6

 Final alpha occupancy:  17
 Final beta  occupancy:  17

 !UKS STATE 1.1 Energy               -158.139998296973
 Nuclear energy                       134.07051350
 One-electron energy                 -476.41893514
 Two-electron energy                  203.35015861
 Density functional                   -19.14173527     PBEX=-24.06473671 PBEC= -1.09318274
 Virial quotient                       -1.01299623
 !UKS STATE 1.1 Dipole moment          -0.00010831    -0.00000000     0.03438374
 Dipole moment /Debye                  -0.00027529    -0.00000000     0.08738902

 Orbital energies for positive spin:

         1.1          2.1          3.1          4.1          5.1          6.1          7.1          8.1          9.1         10.1
    -10.234106   -10.218385   -10.218373   -10.218353    -0.815025    -0.691685    -0.691681    -0.567939    -0.472992    -0.440699

        11.1         12.1         13.1         14.1         15.1         16.1         17.1         18.1         19.1
     -0.440690    -0.391122    -0.391117    -0.370620    -0.337045    -0.337044    -0.328458     0.064030     0.110071

 Orbital energies for negative spin:

         1.1          2.1          3.1          4.1          5.1          6.1          7.1          8.1          9.1         10.1
    -10.234106   -10.218385   -10.218373   -10.218353    -0.815025    -0.691685    -0.691681    -0.567939    -0.472992    -0.440699

        11.1         12.1         13.1         14.1         15.1         16.1         17.1         18.1         19.1
     -0.440690    -0.391122    -0.391117    -0.370620    -0.337045    -0.337044    -0.328458     0.064030     0.110071

 HOMO     17.1    -0.328458 =      -8.9378eV
 LUMO     18.1     0.064030 =       1.7424eV
 LUMO-HOMO         0.392489 =      10.6802eV

 EXPECTATION VALUE OF S**2:            -0.00000000

 Natural orbitals saved to record    2200.2 (Orbital set 3)

 Orbital spaces for UNO-CAS (Min. occupation: 0.020  Max. occupation: 1.980):

 Closed:       17
 Active:        0


 **********************************************************************************************************************************
 DATASETS  * FILE   NREC   LENGTH (MB)   RECORD NAMES
              1      20       89.03       500      610      700      900      950      970     1000      129      960     1100   
                                          VAR    BASINP    GEOM    SYMINP    ZMAT    AOBASIS   BASIS     P2S    ABASIS      S 
                                         1400     1410     1200     1210     1080     1600     1650     1300     1700     1800   
                                           T        V       H0       H01     AOSYM     SMH    MOLCAS    ERIS     OPER     GRID   

              2       5        3.45       700     1000      520     1800     2200   
                                         GEOM     BASIS   MCVARS    GRID      UKS  

 PROGRAMS   *        TOTAL       UKS       INT
 CPU TIMES  *        21.12     18.33      2.65
 REAL TIME  *        26.10 SEC
 DISK USED  *       280.45 MB      
 **********************************************************************************************************************************


 PROGRAM * Intrinsic Basis Bonding Analysis (IBBA)          Author: G. Knizia

 Molecular orbitals read from record     2200.2  Type=UKS/ALPHA (state 1.1)
 Fock matrix read from record            2200.2  Type=UKS/TOTAL (state 1.1)
 Orbital energies read from record       2200.2  Type=UKS/ALPHA (state 1.1)
 Density matrix read from record         2200.2  Type=UKS/CHARGE (state 1.1)

 Number of core orbitals:           4 (   4 )
 Number of closed-shell orbitals:  13 (  13 )

 Basis set MINAO-AUTO-PP generated.      Number of basis functions:   30 

 Polarized AO type:                A = (O Ot + (1-O)(1-Ot)) P12
 Orthogonalization method:         Symmetric (Loewdin)
 Localization functional:          L = sum[A,i] <i|n_A|i>^4 -> max

 Localization group 1:  17 orbitals, occupancy  2.000
 Iterative localization: IB/PM,    7 iter; Final gradient 0.16E-08

 Bond order analysis:       [THRPRINT= 0.020]

   CEN ATOM   CEN ATOM     WIBERG.BO      RENORM.BO
     1   C  -   3   C       1.013477       1.008979
     1   C  -   5   C       1.013470       1.008968
     1   C  -   4   C       1.013470       1.008968
     1   C  -   2   H       0.933708       0.956326

     2   H  -   1   C       0.933708       0.956326

     3   C  -   1   C       1.013477       1.008979
     3   C  -   9   H       0.964524       0.983851
     3   C  -  10   H       0.964524       0.983851
     3   C  -   6   H       0.963089       0.978957

     4   C  -   1   C       1.013470       1.008968
     4   C  -  11   H       0.964533       0.983853
     4   C  -  12   H       0.964521       0.983853
     4   C  -   7   H       0.963084       0.978953

     5   C  -   1   C       1.013470       1.008968
     5   C  -  14   H       0.964533       0.983853
     5   C  -  13   H       0.964521       0.983853
     5   C  -   8   H       0.963084       0.978953

     6   H  -   3   C       0.963089       0.978957

     7   H  -   4   C       0.963084       0.978953

     8   H  -   5   C       0.963084       0.978953

     9   H  -   3   C       0.964524       0.983851

    10   H  -   3   C       0.964524       0.983851

    11   H  -   4   C       0.964533       0.983853

    12   H  -   4   C       0.964521       0.983853

    13   H  -   5   C       0.964521       0.983853

    14   H  -   5   C       0.964533       0.983853


 Valency analysis:

   CEN ATOM   TOT.VALENCE
     1   C       3.980840
     2   H       0.985221
     3   C       3.941255
     4   C       3.941250
     5   C       3.941250
     6   H       0.983991
     7   H       0.983987
     8   H       0.983987
     9   H       0.982905
    10   H       0.982905
    11   H       0.982912
    12   H       0.982899
    13   H       0.982899
    14   H       0.982912

 Total charge composition:

   CEN ATOM         s          p       ELECTRONS ->P.CHARGE
     1   C       2.95223    3.12759      6.07981   -0.07981
     2   H       0.87843                 0.87843    0.12157
     3   C       3.02346    3.37849      6.40195   -0.40195
     4   C       3.02346    3.37849      6.40196   -0.40196
     5   C       3.02346    3.37849      6.40196   -0.40196
     6   H       0.87347                 0.87347    0.12653
     7   H       0.87346                 0.87346    0.12654
     8   H       0.87346                 0.87346    0.12654
     9   H       0.86925                 0.86925    0.13075
    10   H       0.86925                 0.86925    0.13075
    11   H       0.86928                 0.86928    0.13072
    12   H       0.86923                 0.86923    0.13077
    13   H       0.86923                 0.86923    0.13077
    14   H       0.86928                 0.86928    0.13072

 Total charge composition, AO contributions:

   CEN ATOM SHL      SPHERICAL COMPONENTS
     1   C  1s       1.99160
     1   C  2s       0.96063
     1   C  2p       1.00769    1.00769    1.11221

     2   H  1s       0.87843

     3   C  1s       1.99100
     3   C  2s       1.03246
     3   C  2p       1.06801    1.16127    1.14920

     4   C  1s       1.99100
     4   C  2s       1.03246
     4   C  2p       1.13797    1.09130    1.14922

     5   C  1s       1.99100
     5   C  2s       1.03246
     5   C  2p       1.13797    1.09130    1.14922

     6   H  1s       0.87347

     7   H  1s       0.87346

     8   H  1s       0.87346

     9   H  1s       0.86925

    10   H  1s       0.86925

    11   H  1s       0.86928

    12   H  1s       0.86923

    13   H  1s       0.86923

    14   H  1s       0.86928

 Summary of localized orbital composition:   [THRPRINT= 0.020]

   ORB  GRP  ORB.ENERGY      CENTERS/CHARGES
     1   1   -10.130355      C  1   2.000
     2   1   -10.103884      C  3   2.000
     3   1   -10.103867      C  5   2.000
     4   1   -10.103867      C  4   2.000
     5   1    -0.566423      C  3   1.006   C  1   0.978
     6   1    -0.566415      C  5   1.006   C  1   0.978
     7   1    -0.566415      C  4   1.006   C  1   0.978
     8   1    -0.503259      C  3   1.129   H  9   0.862
     9   1    -0.503259      C  3   1.129   H 10   0.862
    10   1    -0.503254      C  4   1.129   H 11   0.862
    11   1    -0.503254      C  5   1.129   H 14   0.862
    12   1    -0.503250      C  5   1.129   H 13   0.862
    13   1    -0.503250      C  4   1.129   H 12   0.862
    14   1    -0.502453      C  3   1.125   H  6   0.866
    15   1    -0.502442      C  4   1.125   H  7   0.866
    16   1    -0.502442      C  5   1.125   H  8   0.866
    17   1    -0.497312      C  1   1.105   H  2   0.865   (other: 0.030)

 Localized orbitals saved to record      2200.2  (orbital set 4)


 **********************************************************************************************************************************
 DATASETS  * FILE   NREC   LENGTH (MB)   RECORD NAMES
              1      20       89.03       500      610      700      900      950      970     1000      129      960     1100   
                                          VAR    BASINP    GEOM    SYMINP    ZMAT    AOBASIS   BASIS     P2S    ABASIS      S 
                                         1400     1410     1200     1210     1080     1600     1650     1300     1700     1800   
                                           T        V       H0       H01     AOSYM     SMH    MOLCAS    ERIS     OPER     GRID   

              2       5        3.54       700     1000      520     1800     2200   
                                         GEOM     BASIS   MCVARS    GRID      UKS  

 PROGRAMS   *        TOTAL      IBBA       UKS       INT
 CPU TIMES  *        21.15      0.03     18.33      2.65
 REAL TIME  *        26.60 SEC
 DISK USED  *       280.45 MB      
 **********************************************************************************************************************************
 Molecular orbitals read from record     2200.2  Type=UKS/LOCAL(IBO)  
 Occupation numbers read from record     2200.2  Type=UKS/LOCAL(IBO)  
 Orbital energies read from record       2200.2  Type=UKS/LOCAL(IBO)  
 Redundancy group numbers read from rec  2200.2  Type=UKS/BETA (state 1.1)

 IBBA/SVP energy=      0.000000000000

        UKS-SCF 
   -158.13999830
 **********************************************************************************************************************************
 Molpro calculation terminated
