
 Primary working directories    : /tmp/sb13343
 Secondary working directories  : /tmp/sb13343
 Wavefunction directory         : /panfs/panasas01/chem/sb13343/wfu/
 Main file repository           : /tmp/sb13343/

 SHA1      : b4a5b34a9e711420743f49e6833241d17c61fb3c
 NAME      : 2099.9.b4a5b34
 ARCHNAME  : linux/x86_64_openmp
 FC        : /cm/shared/languages/GCC-6.1/bin/gfortran
 BLASLIB   : -lblas
 id        : simonbennie

 Nodes     nprocs
 node32-020    1

 Using customized tuning parameters: mindgm=1; mindgv=20; mindgc=4; mindgr=1; noblas=0; minvec=7
 default implementation of scratch files=df  

 memory,500,m
 geomtyp=xyz
 nosym
 noorient
 geometry={
 O          0.25818        0.93788        0.04074
 C          1.63656        1.04230        0.32330
 H          1.89907        2.10041        0.23555
 H          2.26234        0.47024       -0.37847
 C         -0.29581       -0.36510        0.22961
 H          0.07373       -0.77023        1.18842
 C          0.09996       -1.32219       -0.89979
 C         -1.80707       -0.17660        0.31883
 H         -2.30941       -1.13436        0.49338
 H         -2.05917        0.50650        1.13581
 H         -2.19015        0.25071       -0.61475
 H         -0.34617       -2.31074       -0.74107
 H         -0.25158       -0.93408       -1.86253
 H          1.18531       -1.45552       -0.96063
 H          1.86878        0.70360        1.34661
 }
 basis={ default,svp }
 {ks,MM06,direct;wf,42,1,0}
 {ibba,bonds=1}

 Variables initialized (895), CPU time= 0.00 sec
 Commands  initialized (725), CPU time= 0.02 sec, 591 directives.
 Default parameters read. Elapsed time= 0.08 sec

 Checking input...
 Passed
1


                                         ***  PROGRAM SYSTEM MOLPRO  ***
                                       Copyright, TTI GmbH Stuttgart, 2015
                                    Version 2099.9 linked May 26 2017 16:03:21


 **********************************************************************************************************************************
 LABEL *                                                                                 
  64 bit serial version                                                                  DATE: 07-Jun-17          TIME: 22:01:39  
 **********************************************************************************************************************************

 SHA1:             b4a5b34a9e711420743f49e6833241d17c61fb3c
 **********************************************************************************************************************************
 SETTING GEOMTYP        =    XYZ

 Variable memory set to  500000000 words,  buffer space 

 ZSYMEL=NOSYM

 SETTING BASIS          =    SVP


 Recomputing integrals since basis changed


 Using spherical harmonics

 Library entry O      S def2-SVP             selected for orbital group  1
 Library entry O      P def2-SVP             selected for orbital group  1
 Library entry O      D def2-SVP             selected for orbital group  1
 Library entry C      S def2-SVP             selected for orbital group  2
 Library entry C      P def2-SVP             selected for orbital group  2
 Library entry C      D def2-SVP             selected for orbital group  2
 Library entry H      S def2-SVP             selected for orbital group  3
 Library entry H      P def2-SVP             selected for orbital group  3


 PROGRAM * SEWARD (Integral evaluation for generally contracted gaussian basis sets)     Author: Roland Lindh, 1990

 Geometry written to block  1 of record 700


 Point group  C1  



 ATOMIC COORDINATES

 NR  ATOM    CHARGE       X              Y              Z

   1  O       8.00    0.487889491    1.772336338    0.076987442
   2  C       6.00    3.092650186    1.969661540    0.610948456
   3  H       1.00    3.588722191    3.969199649    0.445124989
   4  H       1.00    4.275203001    0.888624813   -0.715204646
   5  C       6.00   -0.558999885   -0.689939008    0.433900015
   6  H       1.00    0.139329507   -1.455523753    2.245788321
   7  C       6.00    0.188897023   -2.498576985   -1.700356670
   8  C       6.00   -3.414867388   -0.333725634    0.602501380
   9  H       1.00   -4.364152409   -2.143629727    0.932353075
  10  H       1.00   -3.891267344    0.957146282    2.146369830
  11  H       1.00   -4.138783672    0.473773237   -1.161709135
  12  H       1.00   -0.654166493   -4.366665745   -1.400419339
  13  H       1.00   -0.475417298   -1.765155378   -3.519671599
  14  H       1.00    2.239911273   -2.750534169   -1.815327607
  15  H       1.00    3.531482387    1.329611301    2.544724097

 Bond lengths in Bohr (Angstrom)

  1- 2  2.666238902   1- 5  2.699289504   2- 3  2.066818209   2- 4  2.079844613   2-15  2.083680934
       ( 1.410912866)       ( 1.428402491)       ( 1.093713095)       ( 1.100606371)       ( 1.102636465)

  5- 6  2.087276497   5- 7  2.895785336   5- 8  2.882931422   7-12  2.071345966   7-13  2.071020903
       ( 1.104539155)       ( 1.532383608)       ( 1.525581609)       ( 1.096109081)       ( 1.095937065)

  7-14  2.069628032   8- 9  2.070192508   8-10  2.068051501   8-11  2.070880961
       ( 1.095199989)       ( 1.095498697)       ( 1.094365725)       ( 1.095863011)

 Bond angles

  1- 2- 3  106.85884507   1- 2- 4  112.91125973   1- 2-15  111.64621834   1- 5- 6  108.63888518

  1-5-7  111.84608248   1-5-8  106.21369660   2-1-5  114.82992588   3-2-4  108.37425913

  3- 2-15  108.72850466   4- 2-15  108.20064699   5- 7-12  110.57572754   5- 7-13  110.08520206

  5- 7-14  111.89623115   5- 8- 9  110.82645738   5- 8-10  110.42517473   5- 8-11  110.16013005

  6- 5- 7  108.92239636   6- 5- 8  109.02480146   7- 5- 8  112.09364518   9- 8-10  108.73162751

  9- 8-11  108.44218100  10- 8-11  108.18344616  12- 7-13  108.42317703  12- 7-14  107.55382926

 13- 7-14  108.19151953

 NUCLEAR CHARGE:                   42
 NUMBER OF PRIMITIVE AOS:         195
 NUMBER OF SYMMETRY AOS:          190
 NUMBER OF CONTRACTIONS:          120   ( 120A   )
 NUMBER OF CORE ORBITALS:           5   (   5A   )
 NUMBER OF VALENCE ORBITALS:       30   (  30A   )


 NUCLEAR REPULSION ENERGY  195.74983609


 Eigenvalues of metric

         1 0.241E-02 0.514E-02 0.104E-01 0.150E-01 0.214E-01 0.243E-01 0.289E-01 0.305E-01


 Contracted 2-electron integrals neglected if value below      1.0D-11
 AO integral compression algorithm  1   Integral accuracy      1.0D-11

     97.518 MB (compressed) written to integral file ( 44.4%)


 NUMBER OF SORTED TWO-ELECTRON INTEGRALS:   26357430.     BUFFER LENGTH:  32768
 NUMBER OF SEGMENTS:   2  SEGMENT LENGTH:   15997996      RECORD LENGTH: 524288

 Memory used in sort:      16.56 MW

 SORT1 READ    27501115. AND WROTE    22923365. INTEGRALS IN     67 RECORDS. CPU TIME:     0.35 SEC, REAL TIME:     0.69 SEC
 SORT2 READ    22923365. AND WROTE    26357430. INTEGRALS IN    372 RECORDS. CPU TIME:     0.58 SEC, REAL TIME:     0.75 SEC

 FILE SIZES:   FILE 1:   128.3 MBYTE,  FILE 4:   281.1 MBYTE,   TOTAL:    409.3 MBYTE

 OPERATOR DM      FOR CENTER  0  COORDINATES:    0.000000    0.000000    0.000000


 **********************************************************************************************************************************
 DATASETS  * FILE   NREC   LENGTH (MB)   RECORD NAMES
              1      19      116.03       500      610      700      900      950      970     1000      129      960     1100   
                                          VAR    BASINP    GEOM    SYMINP    ZMAT    AOBASIS   BASIS     P2S    ABASIS      S 
                                         1400     1410     1200     1210     1080     1600     1650     1300     1700   
                                           T        V       H0       H01     AOSYM     SMH    MOLCAS    ERIS     OPER   

 PROGRAMS   *        TOTAL       INT
 CPU TIMES  *         4.01      3.87
 REAL TIME  *         5.24 SEC
 DISK USED  *       409.85 MB      
 **********************************************************************************************************************************

 Density functional group MM06=M06X+M06C
 Functional: M06X(Automatically generated (new) M06X)                          Gradient terms: 2
 Functional: M06C(Automatically generated (new) M06C)                          Gradient terms: 2
 Use grid at  1800.2


 Exact exchange will be calculated, factor:  0.2700

 Functional: M06X                      Factor:  0.7300
 Functional: M06C                      Factor:  1.0000

 Generated new metagrid on record  1800.2 with target accuracy 1.0D-06 and 52852 points in CPU time    1.3
 Computed new grid on record 1800.1 in CPU time    1.5
  190979 words reserved for DFT integration

 PROGRAM * RKS-SCF (Restricted closed shell Kohn-Sham)     Authors: W. Meyer, H.-J. Werner, P.J. Knowles, 1993

 NUMBER OF ELECTRONS:      21+   21-    SPACE SYMMETRY=1    SPIN SYMMETRY: Singlet 
 CONVERGENCE THRESHOLDS:    1.00E-05 (Density)    1.00E-06 (Energy)
 MAX. NUMBER OF ITERATIONS:       60
 INTERPOLATION TYPE:            DIIS
 INTERPOLATION STEPS:              2 (START)      1 (STEP)
 LEVEL SHIFTS:                  0.00 (CLOSED)  0.00 (OPEN) 



 Use fine grid record 1800.2 for energy threshold  1.0D-06
 Orbital guess generated from atomic densities. Full valence occupancy:   21

 Molecular orbital dump at record        2100.2

 Initial occupancy:  21

 ITERATION    DDIFF          GRAD             ENERGY        2-EL.EN.            DIPOLE MOMENTS         DIIS   ORB.
    1      0.000D+00      0.000D+00      -226.94839279    600.992012    0.38446   -0.55201    0.21191    0    start
    2      0.000D+00      0.618D-02      -226.91843841    583.003519    0.05912   -0.12019   -0.01519    1    diag
    3      0.139D-01      0.733D-02      -227.04018071    592.972246    0.23861   -0.29205    0.12780    2    diag
    4      0.762D-02      0.461D-03      -227.04046515    592.636705    0.22215   -0.31333    0.10706    3    diag
    5      0.492D-03      0.220D-03      -227.04055651    592.748150    0.22686   -0.31134    0.10933    4    diag
    6      0.219D-03      0.428D-04      -227.04056005    592.747139    0.22660   -0.31069    0.11192    5    diag
    7      0.429D-04      0.599D-05      -227.04056012    592.742401    0.22660   -0.31062    0.11060    6    diag
    8      0.826D-05      0.231D-05      -227.04056011    592.744970    0.22653   -0.31094    0.11110    0    orth

 Final occupancy:  21

 !RKS STATE 1.1 Energy               -227.040560110660
 Nuclear energy                       195.74983609
 One-electron energy                 -700.59060647
 Two-electron energy                  296.37248493
 SCF exchange energy                  -32.11688738     Factor= 0.2700
 Density functional                   -18.57227466     M06X=-23.11668899 M06C= -1.69709170
 Virial quotient                       -0.99501915
 !RKS STATE 1.1 Dipole moment           0.22653360    -0.31094481     0.11109605
 Dipole moment /Debye                   0.57575327    -0.79029112     0.28235951

 Orbital energies:

         1.1          2.1          3.1          4.1          5.1          6.1          7.1          8.1          9.1         10.1
    -18.789746    -9.952257    -9.947769    -9.902490    -9.899211    -0.965559    -0.719100    -0.630707    -0.607397    -0.516572

        11.1         12.1         13.1         14.1         15.1         16.1         17.1         18.1         19.1         20.1
     -0.446681    -0.415324    -0.408344    -0.374043    -0.344589    -0.337076    -0.325704    -0.302015    -0.292720    -0.255591

        21.1         22.1         23.1
     -0.203699     0.087615     0.116257

 HOMO     21.1    -0.203699 =      -5.5429eV
 LUMO     22.1     0.087615 =       2.3841eV
 LUMO-HOMO         0.291314 =       7.9271eV


 **********************************************************************************************************************************
 DATASETS  * FILE   NREC   LENGTH (MB)   RECORD NAMES
              1      20      117.72       500      610      700      900      950      970     1000      129      960     1100   
                                          VAR    BASINP    GEOM    SYMINP    ZMAT    AOBASIS   BASIS     P2S    ABASIS      S 
                                         1400     1410     1200     1210     1080     1600     1650     1300     1700     1800   
                                           T        V       H0       H01     AOSYM     SMH    MOLCAS    ERIS     OPER     GRID   

              2       5        3.30       700     1000      520     1800     2100   
                                         GEOM     BASIS   MCVARS    GRID      RKS  

 PROGRAMS   *        TOTAL        KS       INT
 CPU TIMES  *        43.53     39.52      3.87
 REAL TIME  *        45.07 SEC
 DISK USED  *       409.85 MB      
 **********************************************************************************************************************************


 PROGRAM * Intrinsic Basis Bonding Analysis (IBBA)          Author: G. Knizia

 Molecular orbitals read from record     2100.2  Type=RKS/CANONICAL (state 1.1)
 Fock matrix read from record            2100.2  Type=RKS/TOTAL (state 1.1)
 Orbital energies read from record       2100.2  Type=RKS/CANONICAL (state 1.1)
 Density matrix read from record         2100.2  Type=RKS/CHARGE (state 1.1)

 Number of core orbitals:           5 (   5 )
 Number of closed-shell orbitals:  16 (  16 )

 Basis set MINAO-AUTO-PP generated.      Number of basis functions:   35 

 Polarized AO type:                A = (O Ot + (1-O)(1-Ot)) P12
 Orthogonalization method:         Symmetric (Loewdin)
 Localization functional:          L = sum[A,i] <i|n_A|i>^4 -> max

 Localization group 1:  21 orbitals, occupancy  2.000
 Iterative localization: IB/PM,    8 iter; Final gradient 0.28E-09

 Bond order analysis:       [THRPRINT= 0.020]

   CEN ATOM   CEN ATOM     WIBERG.BO      RENORM.BO
     1   O  -   2   C       1.002734       1.022288
     1   O  -   5   C       0.954354       0.962553
     1   O  -   4   H       0.037660       0.021834
     1   O  -  15   H       0.035918       0.021026
     1   O  -   7   C       0.032189       0.016842
     1   O  -   6   H       0.028501       0.016600

     2   C  -   1   O       1.002734       1.022288
     2   C  -   3   H       0.960585       0.975644
     2   C  -   4   H       0.948782       0.929370
     2   C  -  15   H       0.948491       0.929640

     3   H  -   2   C       0.960585       0.975644

     4   H  -   2   C       0.948782       0.929370
     4   H  -   1   O       0.037660       0.021834

     5   C  -   8   C       1.013088       1.007169
     5   C  -   7   C       1.004974       0.981397
     5   C  -   1   O       0.954354       0.962553
     5   C  -   6   H       0.922208       0.907074

     6   H  -   5   C       0.922208       0.907074
     6   H  -   1   O       0.028501       0.016600

     7   C  -   5   C       1.004974       0.981397
     7   C  -  14   H       0.963574       0.981674
     7   C  -  12   H       0.961944       0.984718
     7   C  -  13   H       0.960588       0.975952
     7   C  -   1   O       0.032189       0.016842

     8   C  -   5   C       1.013088       1.007169
     8   C  -   9   H       0.964668       0.985715
     8   C  -  10   H       0.962384       0.982272
     8   C  -  11   H       0.960056       0.976189

     9   H  -   8   C       0.964668       0.985715

    10   H  -   8   C       0.962384       0.982272

    11   H  -   8   C       0.960056       0.976189

    12   H  -   7   C       0.961944       0.984718

    13   H  -   7   C       0.960588       0.975952

    14   H  -   7   C       0.963574       0.981674

    15   H  -   2   C       0.948491       0.929640
    15   H  -   1   O       0.035918       0.021026


 Valency analysis:

   CEN ATOM   TOT.VALENCE
     1   O       2.150974
     2   C       3.884011
     3   H       0.983338
     4   H       0.992021
     5   C       3.924876
     6   H       0.994871
     7   C       3.948357
     8   C       3.948229
     9   H       0.987180
    10   H       0.985023
    11   H       0.986502
    12   H       0.986218
    13   H       0.986598
    14   H       0.987337
    15   H       0.992098

 Total charge composition:

   CEN ATOM         s          p       ELECTRONS ->P.CHARGE
     1   O       3.57975    4.77926      8.35902   -0.35902
     2   C       2.98512    3.15685      6.14197   -0.14197
     3   H       0.87092                 0.87092    0.12908
     4   H       0.91068                 0.91068    0.08932
     5   C       2.92653    2.93271      5.85925    0.14075
     6   H       0.92838                 0.92838    0.07162
     7   C       2.99480    3.37161      6.36641   -0.36641
     8   C       2.99269    3.35706      6.34975   -0.34975
     9   H       0.88677                 0.88677    0.11323
    10   H       0.87762                 0.87762    0.12238
    11   H       0.88382                 0.88382    0.11618
    12   H       0.88260                 0.88260    0.11740
    13   H       0.88423                 0.88423    0.11577
    14   H       0.88747                 0.88747    0.11253
    15   H       0.91111                 0.91111    0.08889

 Total charge composition, AO contributions:

   CEN ATOM SHL      SPHERICAL COMPONENTS
     1   O  1s       1.99753
     1   O  2s       1.58223
     1   O  2p       1.38453    1.52154    1.87320

     2   C  1s       1.99314
     2   C  2s       0.99198
     2   C  2p       0.84387    1.17197    1.14101

     3   H  1s       0.87092

     4   H  1s       0.91068

     5   C  1s       1.99367
     5   C  2s       0.93286
     5   C  2p       1.01340    0.84093    1.07839

     6   H  1s       0.92838

     7   C  1s       1.99258
     7   C  2s       1.00222
     7   C  2p       1.14658    1.11868    1.10635

     8   C  1s       1.99252
     8   C  2s       1.00017
     8   C  2p       1.05323    1.14686    1.15696

     9   H  1s       0.88677

    10   H  1s       0.87762

    11   H  1s       0.88382

    12   H  1s       0.88260

    13   H  1s       0.88423

    14   H  1s       0.88747

    15   H  1s       0.91111

 Summary of localized orbital composition:   [THRPRINT= 0.020]

   ORB  GRP  ORB.ENERGY      CENTERS/CHARGES
     1   1   -18.656242      O  1   2.000
     2   1    -9.859761      C  5   2.000
     3   1    -9.845623      C  2   2.000
     4   1    -9.795341      C  7   2.000
     5   1    -9.791315      C  8   2.000
     6   1    -0.711443      O  1   1.240   C  2   0.751
     7   1    -0.693256      O  1   1.260   C  5   0.721
     8   1    -0.527068      C  8   0.995   C  5   0.991
     9   1    -0.526011      C  7   1.010   C  5   0.980
    10   1    -0.481112      O  1   1.957   (other: 0.043)
    11   1    -0.462072      C  2   1.110   H  4   0.888
    12   1    -0.461195      C  2   1.108   H 15   0.889
    13   1    -0.459315      C  2   1.130   H  3   0.863
    14   1    -0.456007      C  5   1.077   H  6   0.902   (other: 0.022)
    15   1    -0.446318      C  7   1.109   H 12   0.874
    16   1    -0.445018      C  7   1.109   H 14   0.879
    17   1    -0.443498      C  8   1.106   H  9   0.879
    18   1    -0.441531      C  7   1.113   H 13   0.876
    19   1    -0.438435      C  8   1.113   H 11   0.875
    20   1    -0.437294      C  8   1.119   H 10   0.869
    21   1    -0.258739      O  1   1.897   C  2   0.022   C  5   0.021   (other: 0.060)

 Localized orbitals saved to record      2100.2  (orbital set 2)


 **********************************************************************************************************************************
 DATASETS  * FILE   NREC   LENGTH (MB)   RECORD NAMES
              1      20      117.72       500      610      700      900      950      970     1000      129      960     1100   
                                          VAR    BASINP    GEOM    SYMINP    ZMAT    AOBASIS   BASIS     P2S    ABASIS      S 
                                         1400     1410     1200     1210     1080     1600     1650     1300     1700     1800   
                                           T        V       H0       H01     AOSYM     SMH    MOLCAS    ERIS     OPER     GRID   

              2       5        3.42       700     1000      520     1800     2100   
                                         GEOM     BASIS   MCVARS    GRID      RKS  

 PROGRAMS   *        TOTAL      IBBA        KS       INT
 CPU TIMES  *        43.57      0.04     39.52      3.87
 REAL TIME  *        45.22 SEC
 DISK USED  *       409.85 MB      
 **********************************************************************************************************************************
 Molecular orbitals read from record     2100.2  Type=RKS/LOCAL(IBO)  
 Occupation numbers read from record     2100.2  Type=RKS/LOCAL(IBO)  
 Orbital energies read from record       2100.2  Type=RKS/LOCAL(IBO)  
 Redundancy group numbers read from rec  2100.2  Type=RKS/LOCAL(IBO)  

 IBBA/SVP energy=      0.000000000000

        KS-SCF  
   -227.04056011
 **********************************************************************************************************************************
 Molpro calculation terminated
