
 Primary working directories    : /tmp/sb13343
 Secondary working directories  : /tmp/sb13343
 Wavefunction directory         : /panfs/panasas01/chem/sb13343/wfu/
 Main file repository           : /tmp/sb13343/

 SHA1      : b4a5b34a9e711420743f49e6833241d17c61fb3c
 NAME      : 2099.9.b4a5b34
 ARCHNAME  : linux/x86_64_openmp
 FC        : /cm/shared/languages/GCC-6.1/bin/gfortran
 BLASLIB   : -lblas
 id        : simonbennie

 Nodes     nprocs
 node47-015    1

 Using customized tuning parameters: mindgm=1; mindgv=20; mindgc=4; mindgr=1; noblas=0; minvec=7
 default implementation of scratch files=df  

 memory,500,m
 geomtyp=xyz
 nosym
 noorient
 geometry={
 O          0.25818        0.93788        0.04074
 C          1.63656        1.04230        0.32330
 H          1.89907        2.10041        0.23555
 H          2.26234        0.47024       -0.37847
 C         -0.29581       -0.36510        0.22961
 H          0.07373       -0.77023        1.18842
 C          0.09996       -1.32219       -0.89979
 C         -1.80707       -0.17660        0.31883
 H         -2.30941       -1.13436        0.49338
 H         -2.05917        0.50650        1.13581
 H         -2.19015        0.25071       -0.61475
 H         -0.34617       -2.31074       -0.74107
 H         -0.25158       -0.93408       -1.86253
 H          1.18531       -1.45552       -0.96063
 H          1.86878        0.70360        1.34661
 }
 basis={ default,svp }
 {uks,SOGGA11-X,direct;wf,42,1,0}
 {ibba,bonds=1}

 Variables initialized (895), CPU time= 0.01 sec
 Commands  initialized (725), CPU time= 0.01 sec, 591 directives.
 Default parameters read. Elapsed time= 0.08 sec

 Checking input...
 Passed
1


                                         ***  PROGRAM SYSTEM MOLPRO  ***
                                       Copyright, TTI GmbH Stuttgart, 2015
                                    Version 2099.9 linked May 26 2017 16:03:21


 **********************************************************************************************************************************
 LABEL *                                                                                 
  64 bit serial version                                                                  DATE: 07-Jun-17          TIME: 22:09:09  
 **********************************************************************************************************************************

 SHA1:             b4a5b34a9e711420743f49e6833241d17c61fb3c
 **********************************************************************************************************************************
 SETTING GEOMTYP        =    XYZ

 Variable memory set to  500000000 words,  buffer space 

 ZSYMEL=NOSYM

 SETTING BASIS          =    SVP


 Recomputing integrals since basis changed


 Using spherical harmonics

 Library entry O      S def2-SVP             selected for orbital group  1
 Library entry O      P def2-SVP             selected for orbital group  1
 Library entry O      D def2-SVP             selected for orbital group  1
 Library entry C      S def2-SVP             selected for orbital group  2
 Library entry C      P def2-SVP             selected for orbital group  2
 Library entry C      D def2-SVP             selected for orbital group  2
 Library entry H      S def2-SVP             selected for orbital group  3
 Library entry H      P def2-SVP             selected for orbital group  3


 PROGRAM * SEWARD (Integral evaluation for generally contracted gaussian basis sets)     Author: Roland Lindh, 1990

 Geometry written to block  1 of record 700


 Point group  C1  



 ATOMIC COORDINATES

 NR  ATOM    CHARGE       X              Y              Z

   1  O       8.00    0.487889491    1.772336338    0.076987442
   2  C       6.00    3.092650186    1.969661540    0.610948456
   3  H       1.00    3.588722191    3.969199649    0.445124989
   4  H       1.00    4.275203001    0.888624813   -0.715204646
   5  C       6.00   -0.558999885   -0.689939008    0.433900015
   6  H       1.00    0.139329507   -1.455523753    2.245788321
   7  C       6.00    0.188897023   -2.498576985   -1.700356670
   8  C       6.00   -3.414867388   -0.333725634    0.602501380
   9  H       1.00   -4.364152409   -2.143629727    0.932353075
  10  H       1.00   -3.891267344    0.957146282    2.146369830
  11  H       1.00   -4.138783672    0.473773237   -1.161709135
  12  H       1.00   -0.654166493   -4.366665745   -1.400419339
  13  H       1.00   -0.475417298   -1.765155378   -3.519671599
  14  H       1.00    2.239911273   -2.750534169   -1.815327607
  15  H       1.00    3.531482387    1.329611301    2.544724097

 Bond lengths in Bohr (Angstrom)

  1- 2  2.666238902   1- 5  2.699289504   2- 3  2.066818209   2- 4  2.079844613   2-15  2.083680934
       ( 1.410912866)       ( 1.428402491)       ( 1.093713095)       ( 1.100606371)       ( 1.102636465)

  5- 6  2.087276497   5- 7  2.895785336   5- 8  2.882931422   7-12  2.071345966   7-13  2.071020903
       ( 1.104539155)       ( 1.532383608)       ( 1.525581609)       ( 1.096109081)       ( 1.095937065)

  7-14  2.069628032   8- 9  2.070192508   8-10  2.068051501   8-11  2.070880961
       ( 1.095199989)       ( 1.095498697)       ( 1.094365725)       ( 1.095863011)

 Bond angles

  1- 2- 3  106.85884507   1- 2- 4  112.91125973   1- 2-15  111.64621834   1- 5- 6  108.63888518

  1-5-7  111.84608248   1-5-8  106.21369660   2-1-5  114.82992588   3-2-4  108.37425913

  3- 2-15  108.72850466   4- 2-15  108.20064699   5- 7-12  110.57572754   5- 7-13  110.08520206

  5- 7-14  111.89623115   5- 8- 9  110.82645738   5- 8-10  110.42517473   5- 8-11  110.16013005

  6- 5- 7  108.92239636   6- 5- 8  109.02480146   7- 5- 8  112.09364518   9- 8-10  108.73162751

  9- 8-11  108.44218100  10- 8-11  108.18344616  12- 7-13  108.42317703  12- 7-14  107.55382926

 13- 7-14  108.19151953

 NUCLEAR CHARGE:                   42
 NUMBER OF PRIMITIVE AOS:         195
 NUMBER OF SYMMETRY AOS:          190
 NUMBER OF CONTRACTIONS:          120   ( 120A   )
 NUMBER OF CORE ORBITALS:           5   (   5A   )
 NUMBER OF VALENCE ORBITALS:       30   (  30A   )


 NUCLEAR REPULSION ENERGY  195.74983609


 Eigenvalues of metric

         1 0.241E-02 0.514E-02 0.104E-01 0.150E-01 0.214E-01 0.243E-01 0.289E-01 0.305E-01


 Contracted 2-electron integrals neglected if value below      1.0D-11
 AO integral compression algorithm  1   Integral accuracy      1.0D-11

     97.518 MB (compressed) written to integral file ( 44.4%)


 NUMBER OF SORTED TWO-ELECTRON INTEGRALS:   26357430.     BUFFER LENGTH:  32768
 NUMBER OF SEGMENTS:   2  SEGMENT LENGTH:   15997996      RECORD LENGTH: 524288

 Memory used in sort:      16.56 MW

 SORT1 READ    27501115. AND WROTE    22923365. INTEGRALS IN     67 RECORDS. CPU TIME:     0.35 SEC, REAL TIME:     0.63 SEC
 SORT2 READ    22923365. AND WROTE    26357430. INTEGRALS IN    372 RECORDS. CPU TIME:     0.60 SEC, REAL TIME:     0.74 SEC

 FILE SIZES:   FILE 1:   128.3 MBYTE,  FILE 4:   281.1 MBYTE,   TOTAL:    409.3 MBYTE

 OPERATOR DM      FOR CENTER  0  COORDINATES:    0.000000    0.000000    0.000000


 **********************************************************************************************************************************
 DATASETS  * FILE   NREC   LENGTH (MB)   RECORD NAMES
              1      19      116.03       500      610      700      900      950      970     1000      129      960     1100   
                                          VAR    BASINP    GEOM    SYMINP    ZMAT    AOBASIS   BASIS     P2S    ABASIS      S 
                                         1400     1410     1200     1210     1080     1600     1650     1300     1700   
                                           T        V       H0       H01     AOSYM     SMH    MOLCAS    ERIS     OPER   

 PROGRAMS   *        TOTAL       INT
 CPU TIMES  *         3.84      3.70
 REAL TIME  *        11.86 SEC
 DISK USED  *       409.85 MB      
 **********************************************************************************************************************************

 Density functional group SOGGA11-X=XC-SOGGA11-X
 Functional: XC-SOGGA11-X(via MFM 1.6)                                         Gradient terms: 1
 Use grid at  1800.2


 Exact exchange will be calculated, factor:  0.4015

 Functional: XC-SOGGA11-X              Factor:  1.0000

 Generated new metagrid on record  1800.2 with target accuracy 1.0D-06 and 52852 points in CPU time    1.3
 Computed new grid on record 1800.1 in CPU time    1.5
   99539 words reserved for DFT integration

 PROGRAM * UKS-SCF (Unrestricted Kohn-Sham)     Authors: W. Meyer, H.-J. Werner, P.J. Knowles, 1993

 NUMBER OF ELECTRONS:      21+   21-    SPACE SYMMETRY=1    SPIN SYMMETRY: Singlet 
 CONVERGENCE THRESHOLDS:    1.00E-05 (Density)    1.00E-06 (Energy)
 MAX. NUMBER OF ITERATIONS:       60
 INTERPOLATION TYPE:            DIIS
 INTERPOLATION STEPS:              2 (START)      1 (STEP)
 LEVEL SHIFTS:                 -0.20 (ALPHA)  -0.20 (BETA) 



 Use fine grid record 1800.2 for energy threshold  1.0D-06
 Orbital guess generated from atomic densities. Full valence occupancy:   21

 Molecular orbital dump at record        2200.2

 Initial alpha occupation  21
 Initial beta  occupation  21

 ITERATION    DDIFF          GRAD             ENERGY        2-EL.EN.            DIPOLE MOMENTS         DIIS
    1      0.000D+00      0.000D+00      -233.34230328    596.795787    0.45279   -0.72683    0.25456    0
    2      0.619D-02      0.325D-02      -233.42042840    587.088458    0.23721   -0.41079    0.11172    1
    3      0.170D-02      0.107D-02      -233.42713565    588.856959    0.28221   -0.44635    0.15577    2
    4      0.728D-03      0.261D-03      -233.42793233    588.614242    0.27065   -0.41352    0.14780    3
    5      0.492D-03      0.124D-03      -233.42816635    588.579390    0.27178   -0.40968    0.14756    4
    6      0.237D-03      0.321D-04      -233.42818967    588.558164    0.27232   -0.40554    0.14634    5
    7      0.499D-04      0.652D-05      -233.42819061    588.555905    0.27229   -0.40551    0.14543    6
    8      0.126D-04      0.238D-05      -233.42819070    588.555683    0.27242   -0.40528    0.14530    7
    9      0.531D-05      0.770D-06      -233.42819071    588.555674    0.27240   -0.40524    0.14523    7
   10      0.138D-05      0.203D-06      -233.42819071    588.555906    0.27241   -0.40524    0.14519    7

 Final alpha occupancy:  21
 Final beta  occupancy:  21

 !UKS STATE 1.1 Energy               -233.428190712723
 Nuclear energy                       195.74983609
 One-electron energy                 -702.55960453
 Two-electron energy                  294.27795284
 Density functional                   -20.89637511     XC-SOGGA11-X=-20.89637511
 Virial quotient                       -1.01139566
 !UKS STATE 1.1 Dipole moment           0.27240573    -0.40523879     0.14519051
 Dipole moment /Debye                   0.69234095    -1.02994681     0.36901329

 Orbital energies for positive spin:

         1.1          2.1          3.1          4.1          5.1          6.1          7.1          8.1          9.1         10.1
    -19.500201   -10.501629   -10.494101   -10.445055   -10.441493    -1.119930    -0.857516    -0.762642    -0.739189    -0.637704

        11.1         12.1         13.1         14.1         15.1         16.1         17.1         18.1         19.1         20.1
     -0.549238    -0.516943    -0.509899    -0.474133    -0.443267    -0.435418    -0.424181    -0.397462    -0.389368    -0.354060

        21.1         22.1         23.1
     -0.301973     0.084716     0.114688

 Orbital energies for negative spin:

         1.1          2.1          3.1          4.1          5.1          6.1          7.1          8.1          9.1         10.1
    -19.500201   -10.501629   -10.494101   -10.445055   -10.441493    -1.119930    -0.857516    -0.762642    -0.739189    -0.637704

        11.1         12.1         13.1         14.1         15.1         16.1         17.1         18.1         19.1         20.1
     -0.549238    -0.516943    -0.509899    -0.474133    -0.443267    -0.435418    -0.424181    -0.397462    -0.389368    -0.354060

        21.1         22.1         23.1
     -0.301973     0.084716     0.114688

 HOMO     21.1    -0.301973 =      -8.2171eV
 LUMO     22.1     0.084716 =       2.3052eV
 LUMO-HOMO         0.386688 =      10.5223eV

 EXPECTATION VALUE OF S**2:            -0.00000000

 Natural orbitals saved to record    2200.2 (Orbital set 3)

 Orbital spaces for UNO-CAS (Min. occupation: 0.020  Max. occupation: 1.980):

 Closed:       21
 Active:        0


 **********************************************************************************************************************************
 DATASETS  * FILE   NREC   LENGTH (MB)   RECORD NAMES
              1      20      117.72       500      610      700      900      950      970     1000      129      960     1100   
                                          VAR    BASINP    GEOM    SYMINP    ZMAT    AOBASIS   BASIS     P2S    ABASIS      S 
                                         1400     1410     1200     1210     1080     1600     1650     1300     1700     1800   
                                           T        V       H0       H01     AOSYM     SMH    MOLCAS    ERIS     OPER     GRID   

              2       5        3.59       700     1000      520     1800     2200   
                                         GEOM     BASIS   MCVARS    GRID      UKS  

 PROGRAMS   *        TOTAL       UKS       INT
 CPU TIMES  *        27.46     23.62      3.70
 REAL TIME  *        36.18 SEC
 DISK USED  *       409.85 MB      
 **********************************************************************************************************************************


 PROGRAM * Intrinsic Basis Bonding Analysis (IBBA)          Author: G. Knizia

 Molecular orbitals read from record     2200.2  Type=UKS/ALPHA (state 1.1)
 Fock matrix read from record            2200.2  Type=UKS/TOTAL (state 1.1)
 Orbital energies read from record       2200.2  Type=UKS/ALPHA (state 1.1)
 Density matrix read from record         2200.2  Type=UKS/CHARGE (state 1.1)

 Number of core orbitals:           5 (   5 )
 Number of closed-shell orbitals:  16 (  16 )

 Basis set MINAO-AUTO-PP generated.      Number of basis functions:   35 

 Polarized AO type:                A = (O Ot + (1-O)(1-Ot)) P12
 Orthogonalization method:         Symmetric (Loewdin)
 Localization functional:          L = sum[A,i] <i|n_A|i>^4 -> max

 Localization group 1:  21 orbitals, occupancy  2.000
 Iterative localization: IB/PM,    7 iter; Final gradient 0.30E-08

 Bond order analysis:       [THRPRINT= 0.020]

   CEN ATOM   CEN ATOM     WIBERG.BO      RENORM.BO
     1   O  -   2   C       0.983450       1.017181
     1   O  -   5   C       0.942630       0.963887
     1   O  -   4   H       0.031549       0.018486
     1   O  -  15   H       0.030153       0.017831
     1   O  -   7   C       0.028153       0.014635
     1   O  -   6   H       0.023734       0.014098

     2   C  -   1   O       0.983450       1.017181
     2   C  -   3   H       0.960559       0.978869
     2   C  -  15   H       0.953919       0.942552
     2   C  -   4   H       0.953824       0.941539

     3   H  -   2   C       0.960559       0.978869

     4   H  -   2   C       0.953824       0.941539
     4   H  -   1   O       0.031549       0.018486

     5   C  -   8   C       1.013211       1.006535
     5   C  -   7   C       1.005659       0.982438
     5   C  -   1   O       0.942630       0.963887
     5   C  -   6   H       0.930547       0.922095

     6   H  -   5   C       0.930547       0.922095
     6   H  -   1   O       0.023734       0.014098

     7   C  -   5   C       1.005659       0.982438
     7   C  -  14   H       0.965083       0.984580
     7   C  -  12   H       0.963222       0.987300
     7   C  -  13   H       0.961872       0.980536
     7   C  -   1   O       0.028153       0.014635

     8   C  -   5   C       1.013211       1.006535
     8   C  -   9   H       0.965553       0.988007
     8   C  -  10   H       0.962391       0.984705
     8   C  -  11   H       0.961312       0.980710

     9   H  -   8   C       0.965553       0.988007

    10   H  -   8   C       0.962391       0.984705

    11   H  -   8   C       0.961312       0.980710

    12   H  -   7   C       0.963222       0.987300

    13   H  -   7   C       0.961872       0.980536

    14   H  -   7   C       0.965083       0.984580

    15   H  -   2   C       0.953919       0.942552
    15   H  -   1   O       0.030153       0.017831


 Valency analysis:

   CEN ATOM   TOT.VALENCE
     1   O       2.088791
     2   C       3.871614
     3   H       0.979478
     4   H       0.988831
     5   C       3.916985
     6   H       0.990833
     7   C       3.944334
     8   C       3.942922
     9   H       0.984081
    10   H       0.981254
    11   H       0.982464
    12   H       0.983037
    13   H       0.982637
    14   H       0.984279
    15   H       0.988792

 Total charge composition:

   CEN ATOM         s          p       ELECTRONS ->P.CHARGE
     1   O       3.60089    4.80972      8.41061   -0.41061
     2   C       3.01855    3.14217      6.16072   -0.16072
     3   H       0.85674                 0.85674    0.14326
     4   H       0.89432                 0.89432    0.10568
     5   C       2.95687    2.91660      5.87347    0.12653
     6   H       0.90425                 0.90425    0.09575
     7   C       3.02830    3.37336      6.40166   -0.40166
     8   C       3.02610    3.36090      6.38700   -0.38700
     9   H       0.87383                 0.87383    0.12617
    10   H       0.86308                 0.86308    0.13692
    11   H       0.86758                 0.86758    0.13242
    12   H       0.86976                 0.86976    0.13024
    13   H       0.86823                 0.86823    0.13177
    14   H       0.87462                 0.87462    0.12538
    15   H       0.89413                 0.89413    0.10587

 Total charge composition, AO contributions:

   CEN ATOM SHL      SPHERICAL COMPONENTS
     1   O  1s       1.99701
     1   O  2s       1.60388
     1   O  2p       1.39187    1.52635    1.89151

     2   C  1s       1.99115
     2   C  2s       1.02740
     2   C  2p       0.82820    1.17338    1.14059

     3   H  1s       0.85674

     4   H  1s       0.89432

     5   C  1s       1.99175
     5   C  2s       0.96513
     5   C  2p       1.00621    0.82915    1.08125

     6   H  1s       0.90425

     7   C  1s       1.99046
     7   C  2s       1.03783
     7   C  2p       1.14922    1.11763    1.10651

     8   C  1s       1.99039
     8   C  2s       1.03571
     8   C  2p       1.04518    1.15240    1.16333

     9   H  1s       0.87383

    10   H  1s       0.86308

    11   H  1s       0.86758

    12   H  1s       0.86976

    13   H  1s       0.86823

    14   H  1s       0.87462

    15   H  1s       0.89413

 Summary of localized orbital composition:   [THRPRINT= 0.020]

   ORB  GRP  ORB.ENERGY      CENTERS/CHARGES
     1   1   -19.348253      O  1   2.000
     2   1   -10.400355      C  5   2.000
     3   1   -10.381164      C  2   2.000
     4   1   -10.326733      C  7   2.000
     5   1   -10.322389      C  8   2.000
     6   1    -0.831262      O  1   1.254   C  2   0.737
     7   1    -0.813345      O  1   1.272   C  5   0.711
     8   1    -0.639308      C  5   0.996   C  8   0.991
     9   1    -0.637796      C  7   1.007   C  5   0.985
    10   1    -0.621497      O  1   1.965   (other: 0.035)
    11   1    -0.575860      C  2   1.123   H  4   0.876
    12   1    -0.575130      C  2   1.122   H 15   0.876
    13   1    -0.574226      C  2   1.143   H  3   0.850
    14   1    -0.571352      C  5   1.101   H  6   0.881
    15   1    -0.557926      C  7   1.123   H 12   0.862
    16   1    -0.555984      C  7   1.122   H 14   0.868
    17   1    -0.554727      C  8   1.119   H  9   0.867
    18   1    -0.551386      C  7   1.129   H 13   0.861
    19   1    -0.548138      C  8   1.129   H 11   0.861
    20   1    -0.548098      C  8   1.133   H 10   0.856
    21   1    -0.360401      O  1   1.916   (other: 0.084)

 Localized orbitals saved to record      2200.2  (orbital set 4)


 **********************************************************************************************************************************
 DATASETS  * FILE   NREC   LENGTH (MB)   RECORD NAMES
              1      20      117.72       500      610      700      900      950      970     1000      129      960     1100   
                                          VAR    BASINP    GEOM    SYMINP    ZMAT    AOBASIS   BASIS     P2S    ABASIS      S 
                                         1400     1410     1200     1210     1080     1600     1650     1300     1700     1800   
                                           T        V       H0       H01     AOSYM     SMH    MOLCAS    ERIS     OPER     GRID   

              2       5        3.71       700     1000      520     1800     2200   
                                         GEOM     BASIS   MCVARS    GRID      UKS  

 PROGRAMS   *        TOTAL      IBBA       UKS       INT
 CPU TIMES  *        27.50      0.04     23.62      3.70
 REAL TIME  *        36.33 SEC
 DISK USED  *       409.85 MB      
 **********************************************************************************************************************************
 Molecular orbitals read from record     2200.2  Type=UKS/LOCAL(IBO)  
 Occupation numbers read from record     2200.2  Type=UKS/LOCAL(IBO)  
 Orbital energies read from record       2200.2  Type=UKS/LOCAL(IBO)  
 Redundancy group numbers read from rec  2200.2  Type=UKS/BETA (state 1.1)

 IBBA/SVP energy=      0.000000000000

        UKS-SCF 
   -233.42819071
 **********************************************************************************************************************************
 Molpro calculation terminated
