
 Primary working directories    : /tmp/sb13343
 Secondary working directories  : /tmp/sb13343
 Wavefunction directory         : /panfs/panasas01/chem/sb13343/wfu/
 Main file repository           : /tmp/sb13343/

 SHA1      : b4a5b34a9e711420743f49e6833241d17c61fb3c
 NAME      : 2099.9.b4a5b34
 ARCHNAME  : linux/x86_64_openmp
 FC        : /cm/shared/languages/GCC-6.1/bin/gfortran
 BLASLIB   : -lblas
 id        : simonbennie

 Nodes     nprocs
 node32-013    1

 Using customized tuning parameters: mindgm=1; mindgv=20; mindgc=4; mindgr=1; noblas=0; minvec=7
 default implementation of scratch files=df  

 memory,500,m
 geomtyp=xyz
 nosym
 noorient
 geometry={
 O          0.25818        0.93788        0.04074
 C          1.63656        1.04230        0.32330
 H          1.89907        2.10041        0.23555
 H          2.26234        0.47024       -0.37847
 C         -0.29581       -0.36510        0.22961
 H          0.07373       -0.77023        1.18842
 C          0.09996       -1.32219       -0.89979
 C         -1.80707       -0.17660        0.31883
 H         -2.30941       -1.13436        0.49338
 H         -2.05917        0.50650        1.13581
 H         -2.19015        0.25071       -0.61475
 H         -0.34617       -2.31074       -0.74107
 H         -0.25158       -0.93408       -1.86253
 H          1.18531       -1.45552       -0.96063
 H          1.86878        0.70360        1.34661
 }
 basis={ default,svp }
 {uks,M06-HF,direct;wf,42,1,0}
 {ibba,bonds=1}

 Variables initialized (895), CPU time= 0.01 sec
 Commands  initialized (725), CPU time= 0.01 sec, 591 directives.
 Default parameters read. Elapsed time= 0.08 sec

 Checking input...
 Passed
1


                                         ***  PROGRAM SYSTEM MOLPRO  ***
                                       Copyright, TTI GmbH Stuttgart, 2015
                                    Version 2099.9 linked May 26 2017 16:03:21


 **********************************************************************************************************************************
 LABEL *                                                                                 
  64 bit serial version                                                                  DATE: 07-Jun-17          TIME: 22:02:43  
 **********************************************************************************************************************************

 SHA1:             b4a5b34a9e711420743f49e6833241d17c61fb3c
 **********************************************************************************************************************************
 SETTING GEOMTYP        =    XYZ

 Variable memory set to  500000000 words,  buffer space 

 ZSYMEL=NOSYM

 SETTING BASIS          =    SVP


 Recomputing integrals since basis changed


 Using spherical harmonics

 Library entry O      S def2-SVP             selected for orbital group  1
 Library entry O      P def2-SVP             selected for orbital group  1
 Library entry O      D def2-SVP             selected for orbital group  1
 Library entry C      S def2-SVP             selected for orbital group  2
 Library entry C      P def2-SVP             selected for orbital group  2
 Library entry C      D def2-SVP             selected for orbital group  2
 Library entry H      S def2-SVP             selected for orbital group  3
 Library entry H      P def2-SVP             selected for orbital group  3


 PROGRAM * SEWARD (Integral evaluation for generally contracted gaussian basis sets)     Author: Roland Lindh, 1990

 Geometry written to block  1 of record 700


 Point group  C1  



 ATOMIC COORDINATES

 NR  ATOM    CHARGE       X              Y              Z

   1  O       8.00    0.487889491    1.772336338    0.076987442
   2  C       6.00    3.092650186    1.969661540    0.610948456
   3  H       1.00    3.588722191    3.969199649    0.445124989
   4  H       1.00    4.275203001    0.888624813   -0.715204646
   5  C       6.00   -0.558999885   -0.689939008    0.433900015
   6  H       1.00    0.139329507   -1.455523753    2.245788321
   7  C       6.00    0.188897023   -2.498576985   -1.700356670
   8  C       6.00   -3.414867388   -0.333725634    0.602501380
   9  H       1.00   -4.364152409   -2.143629727    0.932353075
  10  H       1.00   -3.891267344    0.957146282    2.146369830
  11  H       1.00   -4.138783672    0.473773237   -1.161709135
  12  H       1.00   -0.654166493   -4.366665745   -1.400419339
  13  H       1.00   -0.475417298   -1.765155378   -3.519671599
  14  H       1.00    2.239911273   -2.750534169   -1.815327607
  15  H       1.00    3.531482387    1.329611301    2.544724097

 Bond lengths in Bohr (Angstrom)

  1- 2  2.666238902   1- 5  2.699289504   2- 3  2.066818209   2- 4  2.079844613   2-15  2.083680934
       ( 1.410912866)       ( 1.428402491)       ( 1.093713095)       ( 1.100606371)       ( 1.102636465)

  5- 6  2.087276497   5- 7  2.895785336   5- 8  2.882931422   7-12  2.071345966   7-13  2.071020903
       ( 1.104539155)       ( 1.532383608)       ( 1.525581609)       ( 1.096109081)       ( 1.095937065)

  7-14  2.069628032   8- 9  2.070192508   8-10  2.068051501   8-11  2.070880961
       ( 1.095199989)       ( 1.095498697)       ( 1.094365725)       ( 1.095863011)

 Bond angles

  1- 2- 3  106.85884507   1- 2- 4  112.91125973   1- 2-15  111.64621834   1- 5- 6  108.63888518

  1-5-7  111.84608248   1-5-8  106.21369660   2-1-5  114.82992588   3-2-4  108.37425913

  3- 2-15  108.72850466   4- 2-15  108.20064699   5- 7-12  110.57572754   5- 7-13  110.08520206

  5- 7-14  111.89623115   5- 8- 9  110.82645738   5- 8-10  110.42517473   5- 8-11  110.16013005

  6- 5- 7  108.92239636   6- 5- 8  109.02480146   7- 5- 8  112.09364518   9- 8-10  108.73162751

  9- 8-11  108.44218100  10- 8-11  108.18344616  12- 7-13  108.42317703  12- 7-14  107.55382926

 13- 7-14  108.19151953

 NUCLEAR CHARGE:                   42
 NUMBER OF PRIMITIVE AOS:         195
 NUMBER OF SYMMETRY AOS:          190
 NUMBER OF CONTRACTIONS:          120   ( 120A   )
 NUMBER OF CORE ORBITALS:           5   (   5A   )
 NUMBER OF VALENCE ORBITALS:       30   (  30A   )


 NUCLEAR REPULSION ENERGY  195.74983609


 Eigenvalues of metric

         1 0.241E-02 0.514E-02 0.104E-01 0.150E-01 0.214E-01 0.243E-01 0.289E-01 0.305E-01


 Contracted 2-electron integrals neglected if value below      1.0D-11
 AO integral compression algorithm  1   Integral accuracy      1.0D-11

     97.518 MB (compressed) written to integral file ( 44.4%)


 NUMBER OF SORTED TWO-ELECTRON INTEGRALS:   26357430.     BUFFER LENGTH:  32768
 NUMBER OF SEGMENTS:   2  SEGMENT LENGTH:   15997996      RECORD LENGTH: 524288

 Memory used in sort:      16.56 MW

 SORT1 READ    27501115. AND WROTE    22923365. INTEGRALS IN     67 RECORDS. CPU TIME:     0.34 SEC, REAL TIME:     0.61 SEC
 SORT2 READ    22923365. AND WROTE    26357430. INTEGRALS IN    372 RECORDS. CPU TIME:     0.61 SEC, REAL TIME:     0.74 SEC

 FILE SIZES:   FILE 1:   128.3 MBYTE,  FILE 4:   281.1 MBYTE,   TOTAL:    409.3 MBYTE

 OPERATOR DM      FOR CENTER  0  COORDINATES:    0.000000    0.000000    0.000000


 **********************************************************************************************************************************
 DATASETS  * FILE   NREC   LENGTH (MB)   RECORD NAMES
              1      19      116.03       500      610      700      900      950      970     1000      129      960     1100   
                                          VAR    BASINP    GEOM    SYMINP    ZMAT    AOBASIS   BASIS     P2S    ABASIS      S 
                                         1400     1410     1200     1210     1080     1600     1650     1300     1700   
                                           T        V       H0       H01     AOSYM     SMH    MOLCAS    ERIS     OPER   

 PROGRAMS   *        TOTAL       INT
 CPU TIMES  *         3.84      3.71
 REAL TIME  *         4.85 SEC
 DISK USED  *       409.85 MB      
 **********************************************************************************************************************************

 Density functional group M06-HF=XC-M06-HF
 Functional: XC-M06-HF(via MFM 1.6)                                            Gradient terms: 1
 Use grid at  1800.2


 Exact exchange will be calculated, factor:  1.0000

 Functional: XC-M06-HF                 Factor:  1.0000

 Generated new metagrid on record  1800.2 with target accuracy 1.0D-06 and 52852 points in CPU time    1.3
 Computed new grid on record 1800.1 in CPU time    1.4
   99539 words reserved for DFT integration

 PROGRAM * UKS-SCF (Unrestricted Kohn-Sham)     Authors: W. Meyer, H.-J. Werner, P.J. Knowles, 1993

 NUMBER OF ELECTRONS:      21+   21-    SPACE SYMMETRY=1    SPIN SYMMETRY: Singlet 
 CONVERGENCE THRESHOLDS:    1.00E-05 (Density)    1.00E-06 (Energy)
 MAX. NUMBER OF ITERATIONS:       60
 INTERPOLATION TYPE:            DIIS
 INTERPOLATION STEPS:              2 (START)      1 (STEP)
 LEVEL SHIFTS:                 -0.20 (ALPHA)  -0.20 (BETA) 



 Use fine grid record 1800.2 for energy threshold  1.0D-06
 Orbital guess generated from atomic densities. Full valence occupancy:   21

 Molecular orbital dump at record        2200.2

 Initial alpha occupation  21
 Initial beta  occupation  21

 ITERATION    DDIFF          GRAD             ENERGY        2-EL.EN.            DIPOLE MOMENTS         DIIS
    1      0.000D+00      0.000D+00      -233.31692791    553.378008    0.44239   -0.72671    0.23972    0
    2      0.444D-02      0.281D-02      -233.37680098    549.750678    0.28349   -0.47013    0.14050    1
    3      0.149D-02      0.979D-03      -233.38513193    550.389678    0.31474   -0.47808    0.17257    2
    4      0.115D-02      0.439D-03      -233.38778984    550.197435    0.31107   -0.44255    0.17308    3
    5      0.511D-03      0.138D-03      -233.38808628    550.221634    0.31510   -0.44211    0.17511    4
    6      0.265D-03      0.406D-04      -233.38811883    550.201236    0.31776   -0.43931    0.17509    5
    7      0.594D-04      0.865D-05      -233.38812051    550.204811    0.31844   -0.43869    0.17472    6
    8      0.148D-04      0.259D-05      -233.38812065    550.202313    0.31868   -0.43831    0.17459    7
    9      0.506D-05      0.876D-06      -233.38812067    550.203189    0.31874   -0.43819    0.17452    7
   10      0.157D-05      0.277D-06      -233.38812067    550.202997    0.31875   -0.43817    0.17449    6

 Final alpha occupancy:  21
 Final beta  occupancy:  21

 !UKS STATE 1.1 Energy               -233.388120674596
 Nuclear energy                       195.74983609
 One-electron energy                 -702.80396356
 Two-electron energy                  275.10149861
 Density functional                    -1.43549182     XC-M06-HF=-1.43549182
 Virial quotient                       -1.01187277
 !UKS STATE 1.1 Dipole moment           0.31875107    -0.43816672     0.17449140
 Dipole moment /Debye                   0.81013135    -1.11363577     0.44348385

 Orbital energies for positive spin:

         1.1          2.1          3.1          4.1          5.1          6.1          7.1          8.1          9.1         10.1
    -20.200179   -11.023193   -11.021473   -10.968771   -10.965004    -1.245353    -0.979991    -0.882822    -0.859230    -0.754530

        11.1         12.1         13.1         14.1         15.1         16.1         17.1         18.1         19.1         20.1
     -0.661446    -0.625928    -0.624665    -0.583313    -0.544214    -0.537725    -0.524545    -0.492938    -0.487438    -0.454569

        21.1         22.1         23.1
     -0.407587     0.120583     0.150330

 Orbital energies for negative spin:

         1.1          2.1          3.1          4.1          5.1          6.1          7.1          8.1          9.1         10.1
    -20.200179   -11.023193   -11.021473   -10.968771   -10.965004    -1.245353    -0.979991    -0.882822    -0.859230    -0.754530

        11.1         12.1         13.1         14.1         15.1         16.1         17.1         18.1         19.1         20.1
     -0.661446    -0.625928    -0.624665    -0.583313    -0.544214    -0.537725    -0.524545    -0.492938    -0.487438    -0.454569

        21.1         22.1         23.1
     -0.407587     0.120583     0.150330

 HOMO     21.1    -0.407587 =     -11.0910eV
 LUMO     22.1     0.120583 =       3.2812eV
 LUMO-HOMO         0.528170 =      14.3722eV

 EXPECTATION VALUE OF S**2:            -0.00000000

 Natural orbitals saved to record    2200.2 (Orbital set 3)

 Orbital spaces for UNO-CAS (Min. occupation: 0.020  Max. occupation: 1.980):

 Closed:       21
 Active:        0


 **********************************************************************************************************************************
 DATASETS  * FILE   NREC   LENGTH (MB)   RECORD NAMES
              1      20      117.72       500      610      700      900      950      970     1000      129      960     1100   
                                          VAR    BASINP    GEOM    SYMINP    ZMAT    AOBASIS   BASIS     P2S    ABASIS      S 
                                         1400     1410     1200     1210     1080     1600     1650     1300     1700     1800   
                                           T        V       H0       H01     AOSYM     SMH    MOLCAS    ERIS     OPER     GRID   

              2       5        3.59       700     1000      520     1800     2200   
                                         GEOM     BASIS   MCVARS    GRID      UKS  

 PROGRAMS   *        TOTAL       UKS       INT
 CPU TIMES  *        59.11     55.27      3.71
 REAL TIME  *        61.24 SEC
 DISK USED  *       409.85 MB      
 **********************************************************************************************************************************


 PROGRAM * Intrinsic Basis Bonding Analysis (IBBA)          Author: G. Knizia

 Molecular orbitals read from record     2200.2  Type=UKS/ALPHA (state 1.1)
 Fock matrix read from record            2200.2  Type=UKS/TOTAL (state 1.1)
 Orbital energies read from record       2200.2  Type=UKS/ALPHA (state 1.1)
 Density matrix read from record         2200.2  Type=UKS/CHARGE (state 1.1)

 Number of core orbitals:           5 (   5 )
 Number of closed-shell orbitals:  16 (  16 )

 Basis set MINAO-AUTO-PP generated.      Number of basis functions:   35 

 Polarized AO type:                A = (O Ot + (1-O)(1-Ot)) P12
 Orthogonalization method:         Symmetric (Loewdin)
 Localization functional:          L = sum[A,i] <i|n_A|i>^4 -> max

 Localization group 1:  21 orbitals, occupancy  2.000
 Iterative localization: IB/PM,    7 iter; Final gradient 0.25E-08

 Bond order analysis:       [THRPRINT= 0.020]

   CEN ATOM   CEN ATOM     WIBERG.BO      RENORM.BO
     1   O  -   2   C       0.978565       1.013471
     1   O  -   5   C       0.949013       0.969413
     1   O  -   4   H       0.026313       0.015335
     1   O  -   7   C       0.025642       0.013428
     1   O  -  15   H       0.025087       0.014778

     2   C  -   1   O       0.978565       1.013471
     2   C  -   3   H       0.961628       0.981721
     2   C  -   4   H       0.958461       0.952167
     2   C  -  15   H       0.958038       0.953242

     3   H  -   2   C       0.961628       0.981721

     4   H  -   2   C       0.958461       0.952167
     4   H  -   1   O       0.026313       0.015335

     5   C  -   8   C       1.007192       1.002628
     5   C  -   7   C       1.000817       0.980879
     5   C  -   1   O       0.949013       0.969413
     5   C  -   6   H       0.937032       0.936468

     6   H  -   5   C       0.937032       0.936468

     7   C  -   5   C       1.000817       0.980879
     7   C  -  14   H       0.965798       0.986780
     7   C  -  12   H       0.964068       0.989542
     7   C  -  13   H       0.962594       0.983797
     7   C  -   1   O       0.025642       0.013428

     8   C  -   5   C       1.007192       1.002628
     8   C  -   9   H       0.966493       0.989218
     8   C  -  10   H       0.962467       0.986637
     8   C  -  11   H       0.962166       0.983877

     9   H  -   8   C       0.966493       0.989218

    10   H  -   8   C       0.962467       0.986637

    11   H  -   8   C       0.962166       0.983877

    12   H  -   7   C       0.964068       0.989542

    13   H  -   7   C       0.962594       0.983797

    14   H  -   7   C       0.965798       0.986780

    15   H  -   2   C       0.958038       0.953242
    15   H  -   1   O       0.025087       0.014778


 Valency analysis:

   CEN ATOM   TOT.VALENCE
     1   O       2.068281
     2   C       3.873094
     3   H       0.979736
     4   H       0.988634
     5   C       3.917357
     6   H       0.988108
     7   C       3.937421
     8   C       3.935852
     9   H       0.984769
    10   H       0.981456
    11   H       0.982342
    12   H       0.983229
    13   H       0.982466
    14   H       0.984874
    15   H       0.988114

 Total charge composition:

   CEN ATOM         s          p       ELECTRONS ->P.CHARGE
     1   O       3.55594    4.85002      8.40596   -0.40596
     2   C       2.99010    3.17062      6.16072   -0.16072
     3   H       0.85765                 0.85765    0.14235
     4   H       0.89339                 0.89339    0.10661
     5   C       2.93639    2.97273      5.90912    0.09088
     6   H       0.89095                 0.89095    0.10905
     7   C       2.99469    3.39840      6.39309   -0.39309
     8   C       2.99274    3.38279      6.37553   -0.37553
     9   H       0.87659                 0.87659    0.12341
    10   H       0.86382                 0.86382    0.13618
    11   H       0.86712                 0.86712    0.13288
    12   H       0.87050                 0.87050    0.12950
    13   H       0.86758                 0.86758    0.13242
    14   H       0.87701                 0.87701    0.12299
    15   H       0.89098                 0.89098    0.10902

 Total charge composition, AO contributions:

   CEN ATOM SHL      SPHERICAL COMPONENTS
     1   O  1s       1.99698
     1   O  2s       1.55896
     1   O  2p       1.40389    1.53851    1.90762

     2   C  1s       1.99106
     2   C  2s       0.99904
     2   C  2p       0.83818    1.18249    1.14995

     3   H  1s       0.85765

     4   H  1s       0.89339

     5   C  1s       1.99167
     5   C  2s       0.94473
     5   C  2p       1.02432    0.84750    1.10091

     6   H  1s       0.89095

     7   C  1s       1.99043
     7   C  2s       1.00426
     7   C  2p       1.15802    1.12670    1.11368

     8   C  1s       1.99035
     8   C  2s       1.00239
     8   C  2p       1.04370    1.16370    1.17540

     9   H  1s       0.87659

    10   H  1s       0.86382

    11   H  1s       0.86712

    12   H  1s       0.87050

    13   H  1s       0.86758

    14   H  1s       0.87701

    15   H  1s       0.89098

 Summary of localized orbital composition:   [THRPRINT= 0.020]

   ORB  GRP  ORB.ENERGY      CENTERS/CHARGES
     1   1   -20.053377      O  1   2.000
     2   1   -10.919369      C  5   2.000
     3   1   -10.906877      C  2   2.000
     4   1   -10.849113      C  7   2.000
     5   1   -10.844560      C  8   2.000
     6   1    -0.959641      O  1   1.247   C  2   0.746
     7   1    -0.936587      O  1   1.256   C  5   0.729
     8   1    -0.734350      C  5   1.007   C  8   0.980
     9   1    -0.732428      C  7   1.000   C  5   0.991
    10   1    -0.714205      O  1   1.968   (other: 0.032)
    11   1    -0.689496      C  2   1.122   H 15   0.876
    12   1    -0.688646      C  2   1.121   H  4   0.878
    13   1    -0.685810      C  2   1.143   H  3   0.851
    14   1    -0.683699      C  5   1.114   H  6   0.870
    15   1    -0.665800      C  7   1.124   H 12   0.863
    16   1    -0.663778      C  7   1.120   H 14   0.870
    17   1    -0.662011      C  8   1.118   H  9   0.870
    18   1    -0.658625      C  7   1.130   H 13   0.861
    19   1    -0.655995      C  8   1.133   H 10   0.857
    20   1    -0.655338      C  8   1.130   H 11   0.860
    21   1    -0.485251      O  1   1.930   (other: 0.070)

 Localized orbitals saved to record      2200.2  (orbital set 4)


 **********************************************************************************************************************************
 DATASETS  * FILE   NREC   LENGTH (MB)   RECORD NAMES
              1      20      117.72       500      610      700      900      950      970     1000      129      960     1100   
                                          VAR    BASINP    GEOM    SYMINP    ZMAT    AOBASIS   BASIS     P2S    ABASIS      S 
                                         1400     1410     1200     1210     1080     1600     1650     1300     1700     1800   
                                           T        V       H0       H01     AOSYM     SMH    MOLCAS    ERIS     OPER     GRID   

              2       5        3.71       700     1000      520     1800     2200   
                                         GEOM     BASIS   MCVARS    GRID      UKS  

 PROGRAMS   *        TOTAL      IBBA       UKS       INT
 CPU TIMES  *        59.15      0.04     55.27      3.71
 REAL TIME  *        61.38 SEC
 DISK USED  *       409.85 MB      
 **********************************************************************************************************************************
 Molecular orbitals read from record     2200.2  Type=UKS/LOCAL(IBO)  
 Occupation numbers read from record     2200.2  Type=UKS/LOCAL(IBO)  
 Orbital energies read from record       2200.2  Type=UKS/LOCAL(IBO)  
 Redundancy group numbers read from rec  2200.2  Type=UKS/BETA (state 1.1)

 IBBA/SVP energy=      0.000000000000

        UKS-SCF 
   -233.38812067
 **********************************************************************************************************************************
 Molpro calculation terminated
