
 Primary working directories    : /tmp/sb13343
 Secondary working directories  : /tmp/sb13343
 Wavefunction directory         : /panfs/panasas01/chem/sb13343/wfu/
 Main file repository           : /tmp/sb13343/

 SHA1      : b4a5b34a9e711420743f49e6833241d17c61fb3c
 NAME      : 2099.9.b4a5b34
 ARCHNAME  : linux/x86_64_openmp
 FC        : /cm/shared/languages/GCC-6.1/bin/gfortran
 BLASLIB   : -lblas
 id        : simonbennie

 Nodes     nprocs
 node33-017    1

 Using customized tuning parameters: mindgm=1; mindgv=20; mindgc=4; mindgr=1; noblas=0; minvec=7
 default implementation of scratch files=df  

 memory,500,m
 geomtyp=xyz
 nosym
 noorient
 geometry={
 O          0.25818        0.93788        0.04074
 C          1.63656        1.04230        0.32330
 H          1.89907        2.10041        0.23555
 H          2.26234        0.47024       -0.37847
 C         -0.29581       -0.36510        0.22961
 H          0.07373       -0.77023        1.18842
 C          0.09996       -1.32219       -0.89979
 C         -1.80707       -0.17660        0.31883
 H         -2.30941       -1.13436        0.49338
 H         -2.05917        0.50650        1.13581
 H         -2.19015        0.25071       -0.61475
 H         -0.34617       -2.31074       -0.74107
 H         -0.25158       -0.93408       -1.86253
 H          1.18531       -1.45552       -0.96063
 H          1.86878        0.70360        1.34661
 }
 basis={ default,svp }
 {ks,B-P,direct;wf,42,1,0}
 {ibba,bonds=1}

 Variables initialized (895), CPU time= 0.00 sec
 Commands  initialized (725), CPU time= 0.01 sec, 591 directives.
 Default parameters read. Elapsed time= 0.33 sec

 Checking input...
 Passed
1


                                         ***  PROGRAM SYSTEM MOLPRO  ***
                                       Copyright, TTI GmbH Stuttgart, 2015
                                    Version 2099.9 linked May 26 2017 16:03:21


 **********************************************************************************************************************************
 LABEL *                                                                                 
  64 bit serial version                                                                  DATE: 07-Jun-17          TIME: 21:52:34  
 **********************************************************************************************************************************

 SHA1:             b4a5b34a9e711420743f49e6833241d17c61fb3c
 **********************************************************************************************************************************
 SETTING GEOMTYP        =    XYZ

 Variable memory set to  500000000 words,  buffer space 

 ZSYMEL=NOSYM

 SETTING BASIS          =    SVP


 Recomputing integrals since basis changed


 Using spherical harmonics

 Library entry O      S def2-SVP             selected for orbital group  1
 Library entry O      P def2-SVP             selected for orbital group  1
 Library entry O      D def2-SVP             selected for orbital group  1
 Library entry C      S def2-SVP             selected for orbital group  2
 Library entry C      P def2-SVP             selected for orbital group  2
 Library entry C      D def2-SVP             selected for orbital group  2
 Library entry H      S def2-SVP             selected for orbital group  3
 Library entry H      P def2-SVP             selected for orbital group  3


 PROGRAM * SEWARD (Integral evaluation for generally contracted gaussian basis sets)     Author: Roland Lindh, 1990

 Geometry written to block  1 of record 700


 Point group  C1  



 ATOMIC COORDINATES

 NR  ATOM    CHARGE       X              Y              Z

   1  O       8.00    0.487889491    1.772336338    0.076987442
   2  C       6.00    3.092650186    1.969661540    0.610948456
   3  H       1.00    3.588722191    3.969199649    0.445124989
   4  H       1.00    4.275203001    0.888624813   -0.715204646
   5  C       6.00   -0.558999885   -0.689939008    0.433900015
   6  H       1.00    0.139329507   -1.455523753    2.245788321
   7  C       6.00    0.188897023   -2.498576985   -1.700356670
   8  C       6.00   -3.414867388   -0.333725634    0.602501380
   9  H       1.00   -4.364152409   -2.143629727    0.932353075
  10  H       1.00   -3.891267344    0.957146282    2.146369830
  11  H       1.00   -4.138783672    0.473773237   -1.161709135
  12  H       1.00   -0.654166493   -4.366665745   -1.400419339
  13  H       1.00   -0.475417298   -1.765155378   -3.519671599
  14  H       1.00    2.239911273   -2.750534169   -1.815327607
  15  H       1.00    3.531482387    1.329611301    2.544724097

 Bond lengths in Bohr (Angstrom)

  1- 2  2.666238902   1- 5  2.699289504   2- 3  2.066818209   2- 4  2.079844613   2-15  2.083680934
       ( 1.410912866)       ( 1.428402491)       ( 1.093713095)       ( 1.100606371)       ( 1.102636465)

  5- 6  2.087276497   5- 7  2.895785336   5- 8  2.882931422   7-12  2.071345966   7-13  2.071020903
       ( 1.104539155)       ( 1.532383608)       ( 1.525581609)       ( 1.096109081)       ( 1.095937065)

  7-14  2.069628032   8- 9  2.070192508   8-10  2.068051501   8-11  2.070880961
       ( 1.095199989)       ( 1.095498697)       ( 1.094365725)       ( 1.095863011)

 Bond angles

  1- 2- 3  106.85884507   1- 2- 4  112.91125973   1- 2-15  111.64621834   1- 5- 6  108.63888518

  1-5-7  111.84608248   1-5-8  106.21369660   2-1-5  114.82992588   3-2-4  108.37425913

  3- 2-15  108.72850466   4- 2-15  108.20064699   5- 7-12  110.57572754   5- 7-13  110.08520206

  5- 7-14  111.89623115   5- 8- 9  110.82645738   5- 8-10  110.42517473   5- 8-11  110.16013005

  6- 5- 7  108.92239636   6- 5- 8  109.02480146   7- 5- 8  112.09364518   9- 8-10  108.73162751

  9- 8-11  108.44218100  10- 8-11  108.18344616  12- 7-13  108.42317703  12- 7-14  107.55382926

 13- 7-14  108.19151953

 NUCLEAR CHARGE:                   42
 NUMBER OF PRIMITIVE AOS:         195
 NUMBER OF SYMMETRY AOS:          190
 NUMBER OF CONTRACTIONS:          120   ( 120A   )
 NUMBER OF CORE ORBITALS:           5   (   5A   )
 NUMBER OF VALENCE ORBITALS:       30   (  30A   )


 NUCLEAR REPULSION ENERGY  195.74983609


 Eigenvalues of metric

         1 0.241E-02 0.514E-02 0.104E-01 0.150E-01 0.214E-01 0.243E-01 0.289E-01 0.305E-01


 Contracted 2-electron integrals neglected if value below      1.0D-11
 AO integral compression algorithm  1   Integral accuracy      1.0D-11

     97.518 MB (compressed) written to integral file ( 44.4%)


 NUMBER OF SORTED TWO-ELECTRON INTEGRALS:   26357430.     BUFFER LENGTH:  32768
 NUMBER OF SEGMENTS:   2  SEGMENT LENGTH:   15997996      RECORD LENGTH: 524288

 Memory used in sort:      16.56 MW

 SORT1 READ    27501115. AND WROTE    22923365. INTEGRALS IN     67 RECORDS. CPU TIME:     0.36 SEC, REAL TIME:     0.73 SEC
 SORT2 READ    22923365. AND WROTE    26357430. INTEGRALS IN    372 RECORDS. CPU TIME:     0.60 SEC, REAL TIME:     0.77 SEC

 FILE SIZES:   FILE 1:   128.3 MBYTE,  FILE 4:   281.1 MBYTE,   TOTAL:    409.3 MBYTE

 OPERATOR DM      FOR CENTER  0  COORDINATES:    0.000000    0.000000    0.000000


 **********************************************************************************************************************************
 DATASETS  * FILE   NREC   LENGTH (MB)   RECORD NAMES
              1      19      116.03       500      610      700      900      950      970     1000      129      960     1100   
                                          VAR    BASINP    GEOM    SYMINP    ZMAT    AOBASIS   BASIS     P2S    ABASIS      S 
                                         1400     1410     1200     1210     1080     1600     1650     1300     1700   
                                           T        V       H0       H01     AOSYM     SMH    MOLCAS    ERIS     OPER   

 PROGRAMS   *        TOTAL       INT
 CPU TIMES  *         4.09      3.95
 REAL TIME  *         9.43 SEC
 DISK USED  *       409.85 MB      
 **********************************************************************************************************************************

 Density functional group B-P=B88+P86
 Functional: B88(Automatically generated (new) B88)                            Gradient terms: 1
 Functional: P86(Automatically generated (new) P86)                            Gradient terms: 1
 Use grid at  1800.2

 Functional: B88                       Factor:  1.0000
 Functional: P86                       Factor:  1.0000

 Generated new metagrid on record  1800.2 with target accuracy 1.0D-06 and 52852 points in CPU time    1.3
 Computed new grid on record 1800.1 in CPU time    1.5
   99539 words reserved for DFT integration

 PROGRAM * RKS-SCF (Restricted closed shell Kohn-Sham)     Authors: W. Meyer, H.-J. Werner, P.J. Knowles, 1993

 NUMBER OF ELECTRONS:      21+   21-    SPACE SYMMETRY=1    SPIN SYMMETRY: Singlet 
 CONVERGENCE THRESHOLDS:    1.00E-05 (Density)    1.00E-06 (Energy)
 MAX. NUMBER OF ITERATIONS:       60
 INTERPOLATION TYPE:            DIIS
 INTERPOLATION STEPS:              2 (START)      1 (STEP)
 LEVEL SHIFTS:                  0.00 (CLOSED)  0.00 (OPEN) 



 Use fine grid record 1800.2 for energy threshold  1.0D-06
 Orbital guess generated from atomic densities. Full valence occupancy:   21

 Molecular orbital dump at record        2100.2

 Initial occupancy:  21

 ITERATION    DDIFF          GRAD             ENERGY        2-EL.EN.            DIPOLE MOMENTS         DIIS   ORB.
    1      0.000D+00      0.000D+00      -233.24494208    631.416574    0.48342   -0.71212    0.26719    0    start
    2      0.000D+00      0.103D-01      -232.96563857    591.394019   -0.30851    0.43833   -0.26554    1    diag
    3      0.275D-01      0.151D-01      -233.48316194    616.716647    0.34056   -0.50826    0.21902    2    diag
    4      0.194D-01      0.188D-02      -233.48824387    615.311626    0.22143   -0.30075    0.11620    3    diag
    5      0.217D-02      0.835D-03      -233.48932823    615.311032    0.23138   -0.35516    0.11523    4    diag
    6      0.693D-03      0.171D-03      -233.48937180    615.360821    0.23489   -0.34767    0.12483    5    diag
    7      0.188D-03      0.770D-04      -233.48938286    615.354473    0.23606   -0.35111    0.12684    6    diag
    8      0.647D-04      0.959D-05      -233.48938305    615.362165    0.23615   -0.35040    0.12466    7    diag
    9      0.116D-04      0.274D-05      -233.48938306    615.363282    0.23610   -0.35072    0.12539    8    diag
   10      0.340D-05      0.761D-06      -233.48938306    615.363039    0.23616   -0.35065    0.12532    0    orth

 Final occupancy:  21

 !RKS STATE 1.1 Energy               -233.489383061829
 Nuclear energy                       195.74983609
 One-electron energy                 -702.92521372
 Two-electron energy                  307.68151935
 Density functional                   -33.99552478     B88=-32.49170929 P86= -1.50381549
 Virial quotient                       -1.01142432
 !RKS STATE 1.1 Dipole moment           0.23616386    -0.35064994     0.12532418
 Dipole moment /Debye                   0.60022934    -0.89120488     0.31852144

 Orbital energies:

         1.1          2.1          3.1          4.1          5.1          6.1          7.1          8.1          9.1         10.1
    -18.769948    -9.957485    -9.948837    -9.902109    -9.899319    -0.928855    -0.702858    -0.620138    -0.600762    -0.512945

        11.1         12.1         13.1         14.1         15.1         16.1         17.1         18.1         19.1         20.1
     -0.446164    -0.414041    -0.404613    -0.376571    -0.351014    -0.343273    -0.334089    -0.309741    -0.301926    -0.261103

        21.1         22.1         23.1
     -0.205990     0.037045     0.067250

 HOMO     21.1    -0.205990 =      -5.6053eV
 LUMO     22.1     0.037045 =       1.0080eV
 LUMO-HOMO         0.243035 =       6.6133eV


 **********************************************************************************************************************************
 DATASETS  * FILE   NREC   LENGTH (MB)   RECORD NAMES
              1      20      117.72       500      610      700      900      950      970     1000      129      960     1100   
                                          VAR    BASINP    GEOM    SYMINP    ZMAT    AOBASIS   BASIS     P2S    ABASIS      S 
                                         1400     1410     1200     1210     1080     1600     1650     1300     1700     1800   
                                           T        V       H0       H01     AOSYM     SMH    MOLCAS    ERIS     OPER     GRID   

              2       5        3.30       700     1000      520     1800     2100   
                                         GEOM     BASIS   MCVARS    GRID      RKS  

 PROGRAMS   *        TOTAL        KS       INT
 CPU TIMES  *        18.18     14.09      3.95
 REAL TIME  *        25.12 SEC
 DISK USED  *       409.85 MB      
 **********************************************************************************************************************************


 PROGRAM * Intrinsic Basis Bonding Analysis (IBBA)          Author: G. Knizia

 Molecular orbitals read from record     2100.2  Type=RKS/CANONICAL (state 1.1)
 Fock matrix read from record            2100.2  Type=RKS/TOTAL (state 1.1)
 Orbital energies read from record       2100.2  Type=RKS/CANONICAL (state 1.1)
 Density matrix read from record         2100.2  Type=RKS/CHARGE (state 1.1)

 Number of core orbitals:           5 (   5 )
 Number of closed-shell orbitals:  16 (  16 )

 Basis set MINAO-AUTO-PP generated.      Number of basis functions:   35 

 Polarized AO type:                A = (O Ot + (1-O)(1-Ot)) P12
 Orthogonalization method:         Symmetric (Loewdin)
 Localization functional:          L = sum[A,i] <i|n_A|i>^4 -> max

 Localization group 1:  21 orbitals, occupancy  2.000
 Iterative localization: IB/PM,    7 iter; Final gradient 0.23E-08

 Bond order analysis:       [THRPRINT= 0.020]

   CEN ATOM   CEN ATOM     WIBERG.BO      RENORM.BO
     1   O  -   2   C       0.995762       1.019199
     1   O  -   5   C       0.950690       0.958786
     1   O  -   4   H       0.036845       0.021871
     1   O  -  15   H       0.035126       0.021016
     1   O  -   7   C       0.033281       0.017379
     1   O  -   6   H       0.027162       0.016309

     2   C  -   1   O       0.995762       1.019199
     2   C  -   3   H       0.955774       0.976184
     2   C  -  15   H       0.946251       0.932553
     2   C  -   4   H       0.946098       0.931479

     3   H  -   2   C       0.955774       0.976184

     4   H  -   2   C       0.946098       0.931479
     4   H  -   1   O       0.036845       0.021871

     5   C  -   8   C       1.013804       1.005678
     5   C  -   7   C       1.005165       0.977994
     5   C  -   1   O       0.950690       0.958786
     5   C  -   6   H       0.921541       0.912317

     6   H  -   5   C       0.921541       0.912317
     6   H  -   1   O       0.027162       0.016309

     7   C  -   5   C       1.005165       0.977994
     7   C  -  14   H       0.960486       0.982111
     7   C  -  12   H       0.958005       0.984531
     7   C  -  13   H       0.957724       0.977689
     7   C  -   1   O       0.033281       0.017379

     8   C  -   5   C       1.013804       1.005678
     8   C  -   9   H       0.960768       0.986324
     8   C  -  10   H       0.958273       0.982529
     8   C  -  11   H       0.956991       0.977854

     9   H  -   8   C       0.960768       0.986324

    10   H  -   8   C       0.958273       0.982529

    11   H  -   8   C       0.956991       0.977854

    12   H  -   7   C       0.958005       0.984531

    13   H  -   7   C       0.957724       0.977689

    14   H  -   7   C       0.960486       0.982111

    15   H  -   2   C       0.946251       0.932553
    15   H  -   1   O       0.035126       0.021016


 Valency analysis:

   CEN ATOM   TOT.VALENCE
     1   O       2.137649
     2   C       3.867218
     3   H       0.977531
     4   H       0.987646
     5   C       3.919857
     6   H       0.989630
     7   C       3.938523
     8   C       3.937120
     9   H       0.982133
    10   H       0.979665
    11   H       0.980979
    12   H       0.981289
    13   H       0.981234
    14   H       0.982614
    15   H       0.987655

 Total charge composition:

   CEN ATOM         s          p       ELECTRONS ->P.CHARGE
     1   O       3.60008    4.77248      8.37256   -0.37256
     2   C       3.01904    3.17865      6.19769   -0.19769
     3   H       0.85010                 0.85010    0.14990
     4   H       0.88885                 0.88885    0.11115
     5   C       2.95530    2.94166      5.89696    0.10304
     6   H       0.89817                 0.89817    0.10183
     7   C       3.02731    3.39342      6.42073   -0.42073
     8   C       3.02491    3.38095      6.40587   -0.40587
     9   H       0.86633                 0.86633    0.13367
    10   H       0.85740                 0.85740    0.14260
    11   H       0.86208                 0.86208    0.13792
    12   H       0.86321                 0.86321    0.13679
    13   H       0.86301                 0.86301    0.13699
    14   H       0.86815                 0.86815    0.13185
    15   H       0.88889                 0.88889    0.11111

 Total charge composition, AO contributions:

   CEN ATOM SHL      SPHERICAL COMPONENTS
     1   O  1s       1.99722
     1   O  2s       1.60285
     1   O  2p       1.38194    1.51495    1.87559

     2   C  1s       1.99185
     2   C  2s       1.02719
     2   C  2p       0.83944    1.18462    1.15459

     3   H  1s       0.85010

     4   H  1s       0.88885

     5   C  1s       1.99244
     5   C  2s       0.96285
     5   C  2p       1.01160    0.83935    1.09071

     6   H  1s       0.89817

     7   C  1s       1.99122
     7   C  2s       1.03609
     7   C  2p       1.15749    1.12396    1.11197

     8   C  1s       1.99115
     8   C  2s       1.03376
     8   C  2p       1.04960    1.16019    1.17117

     9   H  1s       0.86633

    10   H  1s       0.85740

    11   H  1s       0.86208

    12   H  1s       0.86321

    13   H  1s       0.86301

    14   H  1s       0.86815

    15   H  1s       0.88889

 Summary of localized orbital composition:   [THRPRINT= 0.020]

   ORB  GRP  ORB.ENERGY      CENTERS/CHARGES
     1   1   -18.632510      O  1   2.000
     2   1    -9.862031      C  5   2.000
     3   1    -9.842324      C  2   2.000
     4   1    -9.790699      C  7   2.000
     5   1    -9.787161      C  8   2.000
     6   1    -0.694612      O  1   1.245   C  2   0.746
     7   1    -0.676123      O  1   1.263   C  5   0.717
     8   1    -0.522792      C  5   0.995   C  8   0.991
     9   1    -0.520928      C  7   1.006   C  5   0.985
    10   1    -0.476173      O  1   1.959   (other: 0.041)
    11   1    -0.466806      C  2   1.132   H  4   0.867
    12   1    -0.466489      C  2   1.130   H 15   0.867
    13   1    -0.465885      C  2   1.150   H  3   0.842
    14   1    -0.461894      C  5   1.108   H  6   0.872   (other: 0.020)
    15   1    -0.450798      C  7   1.129   H 12   0.854
    16   1    -0.448711      C  7   1.128   H 14   0.860
    17   1    -0.448272      C  8   1.126   H  9   0.859
    18   1    -0.444559      C  7   1.134   H 13   0.855
    19   1    -0.441969      C  8   1.134   H 11   0.854
    20   1    -0.441681      C  8   1.139   H 10   0.849
    21   1    -0.249364      O  1   1.899   C  5   0.021   C  2   0.020   (other: 0.059)

 Localized orbitals saved to record      2100.2  (orbital set 2)


 **********************************************************************************************************************************
 DATASETS  * FILE   NREC   LENGTH (MB)   RECORD NAMES
              1      20      117.72       500      610      700      900      950      970     1000      129      960     1100   
                                          VAR    BASINP    GEOM    SYMINP    ZMAT    AOBASIS   BASIS     P2S    ABASIS      S 
                                         1400     1410     1200     1210     1080     1600     1650     1300     1700     1800   
                                           T        V       H0       H01     AOSYM     SMH    MOLCAS    ERIS     OPER     GRID   

              2       5        3.42       700     1000      520     1800     2100   
                                         GEOM     BASIS   MCVARS    GRID      RKS  

 PROGRAMS   *        TOTAL      IBBA        KS       INT
 CPU TIMES  *        18.23      0.05     14.09      3.95
 REAL TIME  *        25.28 SEC
 DISK USED  *       409.85 MB      
 **********************************************************************************************************************************
 Molecular orbitals read from record     2100.2  Type=RKS/LOCAL(IBO)  
 Occupation numbers read from record     2100.2  Type=RKS/LOCAL(IBO)  
 Orbital energies read from record       2100.2  Type=RKS/LOCAL(IBO)  
 Redundancy group numbers read from rec  2100.2  Type=RKS/LOCAL(IBO)  

 IBBA/SVP energy=      0.000000000000

        KS-SCF  
   -233.48938306
 **********************************************************************************************************************************
 Molpro calculation terminated
