
 Primary working directories    : /tmp/sb13343
 Secondary working directories  : /tmp/sb13343
 Wavefunction directory         : /panfs/panasas01/chem/sb13343/wfu/
 Main file repository           : /tmp/sb13343/

 SHA1      : b4a5b34a9e711420743f49e6833241d17c61fb3c
 NAME      : 2099.9.b4a5b34
 ARCHNAME  : linux/x86_64_openmp
 FC        : /cm/shared/languages/GCC-6.1/bin/gfortran
 BLASLIB   : -lblas
 id        : simonbennie

 Nodes     nprocs
 node32-012    1

 Using customized tuning parameters: mindgm=1; mindgv=20; mindgc=4; mindgr=1; noblas=0; minvec=7
 default implementation of scratch files=df  

 memory,500,m
 geomtyp=xyz
 nosym
 noorient
 geometry={
 O          0.25818        0.93788        0.04074
 C          1.63656        1.04230        0.32330
 H          1.89907        2.10041        0.23555
 H          2.26234        0.47024       -0.37847
 C         -0.29581       -0.36510        0.22961
 H          0.07373       -0.77023        1.18842
 C          0.09996       -1.32219       -0.89979
 C         -1.80707       -0.17660        0.31883
 H         -2.30941       -1.13436        0.49338
 H         -2.05917        0.50650        1.13581
 H         -2.19015        0.25071       -0.61475
 H         -0.34617       -2.31074       -0.74107
 H         -0.25158       -0.93408       -1.86253
 H          1.18531       -1.45552       -0.96063
 H          1.86878        0.70360        1.34661
 }
 basis={ default,sto-3g }
 {ks,LDA,direct;wf,42,1,0}
 {ibba,bonds=1}

 Variables initialized (895), CPU time= 0.00 sec
 Commands  initialized (725), CPU time= 0.02 sec, 591 directives.
 Default parameters read. Elapsed time= 0.08 sec

 Checking input...
 Passed
1


                                         ***  PROGRAM SYSTEM MOLPRO  ***
                                       Copyright, TTI GmbH Stuttgart, 2015
                                    Version 2099.9 linked May 26 2017 16:03:21


 **********************************************************************************************************************************
 LABEL *                                                                                 
  64 bit serial version                                                                  DATE: 07-Jun-17          TIME: 21:40:16  
 **********************************************************************************************************************************

 SHA1:             b4a5b34a9e711420743f49e6833241d17c61fb3c
 **********************************************************************************************************************************
 SETTING GEOMTYP        =    XYZ

 Variable memory set to  500000000 words,  buffer space 

 ZSYMEL=NOSYM

 SETTING BASIS          =    STO-3G


 Recomputing integrals since basis changed


 Using spherical harmonics

 Library entry O      S STO-3G               selected for orbital group  1
 Library entry O      P STO-3G               selected for orbital group  1
 Library entry C      S STO-3G               selected for orbital group  2
 Library entry C      P STO-3G               selected for orbital group  2
 Library entry H      S STO-3G               selected for orbital group  3


 PROGRAM * SEWARD (Integral evaluation for generally contracted gaussian basis sets)     Author: Roland Lindh, 1990

 Geometry written to block  1 of record 700


 Point group  C1  



 ATOMIC COORDINATES

 NR  ATOM    CHARGE       X              Y              Z

   1  O       8.00    0.487889491    1.772336338    0.076987442
   2  C       6.00    3.092650186    1.969661540    0.610948456
   3  H       1.00    3.588722191    3.969199649    0.445124989
   4  H       1.00    4.275203001    0.888624813   -0.715204646
   5  C       6.00   -0.558999885   -0.689939008    0.433900015
   6  H       1.00    0.139329507   -1.455523753    2.245788321
   7  C       6.00    0.188897023   -2.498576985   -1.700356670
   8  C       6.00   -3.414867388   -0.333725634    0.602501380
   9  H       1.00   -4.364152409   -2.143629727    0.932353075
  10  H       1.00   -3.891267344    0.957146282    2.146369830
  11  H       1.00   -4.138783672    0.473773237   -1.161709135
  12  H       1.00   -0.654166493   -4.366665745   -1.400419339
  13  H       1.00   -0.475417298   -1.765155378   -3.519671599
  14  H       1.00    2.239911273   -2.750534169   -1.815327607
  15  H       1.00    3.531482387    1.329611301    2.544724097

 Bond lengths in Bohr (Angstrom)

  1- 2  2.666238902   1- 5  2.699289504   2- 3  2.066818209   2- 4  2.079844613   2-15  2.083680934
       ( 1.410912866)       ( 1.428402491)       ( 1.093713095)       ( 1.100606371)       ( 1.102636465)

  5- 6  2.087276497   5- 7  2.895785336   5- 8  2.882931422   7-12  2.071345966   7-13  2.071020903
       ( 1.104539155)       ( 1.532383608)       ( 1.525581609)       ( 1.096109081)       ( 1.095937065)

  7-14  2.069628032   8- 9  2.070192508   8-10  2.068051501   8-11  2.070880961
       ( 1.095199989)       ( 1.095498697)       ( 1.094365725)       ( 1.095863011)

 Bond angles

  1- 2- 3  106.85884507   1- 2- 4  112.91125973   1- 2-15  111.64621834   1- 5- 6  108.63888518

  1-5-7  111.84608248   1-5-8  106.21369660   2-1-5  114.82992588   3-2-4  108.37425913

  3- 2-15  108.72850466   4- 2-15  108.20064699   5- 7-12  110.57572754   5- 7-13  110.08520206

  5- 7-14  111.89623115   5- 8- 9  110.82645738   5- 8-10  110.42517473   5- 8-11  110.16013005

  6- 5- 7  108.92239636   6- 5- 8  109.02480146   7- 5- 8  112.09364518   9- 8-10  108.73162751

  9- 8-11  108.44218100  10- 8-11  108.18344616  12- 7-13  108.42317703  12- 7-14  107.55382926

 13- 7-14  108.19151953

 NUCLEAR CHARGE:                   42
 NUMBER OF PRIMITIVE AOS:         105
 NUMBER OF SYMMETRY AOS:          105
 NUMBER OF CONTRACTIONS:           35   (  35A   )
 NUMBER OF CORE ORBITALS:           5   (   5A   )
 NUMBER OF VALENCE ORBITALS:       30   (  30A   )


 NUCLEAR REPULSION ENERGY  195.74983609


 Eigenvalues of metric

         1 0.208E+00 0.227E+00 0.234E+00 0.281E+00 0.352E+00 0.360E+00 0.363E+00 0.368E+00


 Contracted 2-electron integrals neglected if value below      1.0D-11
 AO integral compression algorithm  1   Integral accuracy      1.0D-11

     1.573 MB (compressed) written to integral file ( 89.1%)


 NUMBER OF SORTED TWO-ELECTRON INTEGRALS:     198765.     BUFFER LENGTH:  32768
 NUMBER OF SEGMENTS:   1  SEGMENT LENGTH:     198765      RECORD LENGTH: 524288

 Memory used in sort:       0.76 MW

 SORT1 READ      224802. AND WROTE      193897. INTEGRALS IN      1 RECORDS. CPU TIME:     0.01 SEC, REAL TIME:     0.01 SEC
 SORT2 READ      193897. AND WROTE      198765. INTEGRALS IN      6 RECORDS. CPU TIME:     0.01 SEC, REAL TIME:     0.02 SEC

 FILE SIZES:   FILE 1:    31.8 MBYTE,  FILE 4:     4.2 MBYTE,   TOTAL:     36.0 MBYTE

 OPERATOR DM      FOR CENTER  0  COORDINATES:    0.000000    0.000000    0.000000


 **********************************************************************************************************************************
 DATASETS  * FILE   NREC   LENGTH (MB)   RECORD NAMES
              1      19       31.10       500      610      700      900      950      970     1000      129      960     1100   
                                          VAR    BASINP    GEOM    SYMINP    ZMAT    AOBASIS   BASIS     P2S    ABASIS      S 
                                         1400     1410     1200     1210     1080     1600     1650     1300     1700   
                                           T        V       H0       H01     AOSYM     SMH    MOLCAS    ERIS     OPER   

 PROGRAMS   *        TOTAL       INT
 CPU TIMES  *         0.59      0.46
 REAL TIME  *         0.94 SEC
 DISK USED  *        36.55 MB      
 **********************************************************************************************************************************

 Density functional group LDA=DIRAC+VWN5
 Functional: DIRAC(Automatically generated (new) DIRAC)                        Gradient terms: 0
 Functional: VWN5(Automatically generated (new) VWN5)                          Gradient terms: 0
 Use grid at  1800.2

 Functional: DIRAC                     Factor:  1.0000
 Functional: VWN5                      Factor:  1.0000

 Generated new metagrid on record  1800.2 with target accuracy 1.0D-06 and 52852 points in CPU time    1.3
 Computed new grid on record 1800.1 in CPU time    1.5
   19034 words reserved for DFT integration

 PROGRAM * RKS-SCF (Restricted closed shell Kohn-Sham)     Authors: W. Meyer, H.-J. Werner, P.J. Knowles, 1993

 NUMBER OF ELECTRONS:      21+   21-    SPACE SYMMETRY=1    SPIN SYMMETRY: Singlet 
 CONVERGENCE THRESHOLDS:    1.00E-05 (Density)    1.00E-06 (Energy)
 MAX. NUMBER OF ITERATIONS:       60
 INTERPOLATION TYPE:            DIIS
 INTERPOLATION STEPS:              2 (START)      1 (STEP)
 LEVEL SHIFTS:                  0.00 (CLOSED)  0.00 (OPEN) 



 Use fine grid record 1800.2 for energy threshold  1.0D-06
 Orbital guess generated from atomic densities. Full valence occupancy:   21

 Molecular orbital dump at record        2100.2

 Initial occupancy:  21

 ITERATION    DDIFF          GRAD             ENERGY        2-EL.EN.            DIPOLE MOMENTS         DIIS   ORB.
    1      0.000D+00      0.000D+00      -228.32486261    633.807072    0.63090   -0.98200    0.31964    0    start
    2      0.000D+00      0.286D-01      -228.27248186    601.829544   -0.82069    0.45291   -0.34070    1    diag
    3      0.106D+00      0.313D-01      -228.65301877    617.604919    0.29564   -0.48269    0.20143    2    diag
    4      0.578D-01      0.419D-02      -228.65844041    617.726416    0.15199   -0.31162    0.11656    3    diag
    5      0.831D-02      0.138D-02      -228.65906304    617.700583    0.15455   -0.35697    0.11458    4    diag
    6      0.217D-02      0.219D-03      -228.65908112    617.691604    0.16043   -0.35157    0.11924    5    diag
    7      0.450D-03      0.530D-04      -228.65908220    617.693710    0.16205   -0.35389    0.12101    6    diag
    8      0.957D-04      0.459D-05      -228.65908221    617.694237    0.16209   -0.35377    0.12074    7    diag
    9      0.109D-04      0.185D-05      -228.65908221    617.694171    0.16206   -0.35373    0.12073    8    diag
   10      0.332D-05      0.280D-06      -228.65908221    617.694291    0.16207   -0.35377    0.12076    0    orth

 Final occupancy:  21

 !RKS STATE 1.1 Energy               -228.659082212476
 Nuclear energy                       195.74983609
 One-electron energy                 -701.23583667
 Two-electron energy                  308.84714532
 Density functional                   -32.02022695     DIRAC=-29.35502294 VWN5= -2.66520402
 Virial quotient                       -1.00825498
 !RKS STATE 1.1 Dipole moment           0.16207152    -0.35376547     0.12075690
 Dipole moment /Debye                   0.41191774    -0.89912325     0.30691331

 Orbital energies:

         1.1          2.1          3.1          4.1          5.1          6.1          7.1          8.1          9.1         10.1
    -18.325501    -9.638414    -9.620211    -9.579128    -9.575683    -0.863126    -0.653920    -0.574668    -0.552855    -0.463440

        11.1         12.1         13.1         14.1         15.1         16.1         17.1         18.1         19.1         20.1
     -0.387094    -0.362559    -0.345231    -0.326041    -0.301887    -0.293527    -0.278298    -0.255243    -0.245847    -0.134159

        21.1         22.1         23.1
     -0.060501     0.246789     0.325230

 HOMO     21.1    -0.060501 =      -1.6463eV
 LUMO     22.1     0.246789 =       6.7155eV
 LUMO-HOMO         0.307290 =       8.3618eV


 **********************************************************************************************************************************
 DATASETS  * FILE   NREC   LENGTH (MB)   RECORD NAMES
              1      20       32.79       500      610      700      900      950      970     1000      129      960     1100   
                                          VAR    BASINP    GEOM    SYMINP    ZMAT    AOBASIS   BASIS     P2S    ABASIS      S 
                                         1400     1410     1200     1210     1080     1600     1650     1300     1700     1800   
                                           T        V       H0       H01     AOSYM     SMH    MOLCAS    ERIS     OPER     GRID   

              2       5        3.02       700     1000      520     1800     2100   
                                         GEOM     BASIS   MCVARS    GRID      RKS  

 PROGRAMS   *        TOTAL        KS       INT
 CPU TIMES  *         4.24      3.65      0.46
 REAL TIME  *         4.72 SEC
 DISK USED  *        36.55 MB      
 **********************************************************************************************************************************


 PROGRAM * Intrinsic Basis Bonding Analysis (IBBA)          Author: G. Knizia

 Molecular orbitals read from record     2100.2  Type=RKS/CANONICAL (state 1.1)
 Fock matrix read from record            2100.2  Type=RKS/TOTAL (state 1.1)
 Orbital energies read from record       2100.2  Type=RKS/CANONICAL (state 1.1)
 Density matrix read from record         2100.2  Type=RKS/CHARGE (state 1.1)

 Number of core orbitals:           5 (   5 )
 Number of closed-shell orbitals:  16 (  16 )

 Basis set MINAO-AUTO-PP generated.      Number of basis functions:   35 

 Polarized AO type:                A = (O Ot + (1-O)(1-Ot)) P12
 Orthogonalization method:         Symmetric (Loewdin)
 Localization functional:          L = sum[A,i] <i|n_A|i>^4 -> max

 Localization group 1:  21 orbitals, occupancy  2.000
 Iterative localization: IB/PM,    7 iter; Final gradient 0.33E-08

 Bond order analysis:       [THRPRINT= 0.020]

   CEN ATOM   CEN ATOM     WIBERG.BO      RENORM.BO
     1   O  -   2   C       1.025653       1.018139
     1   O  -   5   C       0.994162       0.975475
     1   O  -   4   H       0.034671       0.020939
     1   O  -   7   C       0.033255       0.017592
     1   O  -  15   H       0.032669       0.019836
     1   O  -   6   H       0.024921       0.015284

     2   C  -   1   O       1.025653       1.018139
     2   C  -   3   H       0.948764       0.972421
     2   C  -  15   H       0.946000       0.940519
     2   C  -   4   H       0.945180       0.938123

     3   H  -   2   C       0.948764       0.972421

     4   H  -   2   C       0.945180       0.938123
     4   H  -   1   O       0.034671       0.020939

     5   C  -   8   C       1.001920       0.993483
     5   C  -   1   O       0.994162       0.975475
     5   C  -   7   C       0.992897       0.962008
     5   C  -   6   H       0.927509       0.925259

     6   H  -   5   C       0.927509       0.925259
     6   H  -   1   O       0.024921       0.015284

     7   C  -   5   C       0.992897       0.962008
     7   C  -  14   H       0.959328       0.986210
     7   C  -  13   H       0.958540       0.985556
     7   C  -  12   H       0.958274       0.989746
     7   C  -   1   O       0.033255       0.017592

     8   C  -   5   C       1.001920       0.993483
     8   C  -   9   H       0.959277       0.990467
     8   C  -  11   H       0.957296       0.985569
     8   C  -  10   H       0.957132       0.987573

     9   H  -   8   C       0.959277       0.990467

    10   H  -   8   C       0.957132       0.987573

    11   H  -   8   C       0.957296       0.985569

    12   H  -   7   C       0.958274       0.989746

    13   H  -   7   C       0.958540       0.985556

    14   H  -   7   C       0.959328       0.986210

    15   H  -   2   C       0.946000       0.940519
    15   H  -   1   O       0.032669       0.019836


 Valency analysis:

   CEN ATOM   TOT.VALENCE
     1   O       2.194015
     2   C       3.887347
     3   H       0.976216
     4   H       0.984799
     5   C       3.945833
     6   H       0.984737
     7   C       3.920515
     8   C       3.917414
     9   H       0.978093
    10   H       0.976546
    11   H       0.977651
    12   H       0.977960
    13   H       0.978460
    14   H       0.979730
    15   H       0.984401

 Total charge composition:

   CEN ATOM         s          p       ELECTRONS ->P.CHARGE
     1   O       3.64982    4.55318      8.20299   -0.20299
     2   C       3.00597    3.30158      6.30755   -0.30755
     3   H       0.84578                 0.84578    0.15422
     4   H       0.87671                 0.87671    0.12329
     5   C       2.96019    3.06404      6.02423   -0.02423
     6   H       0.87646                 0.87646    0.12354
     7   C       2.99626    3.44833      6.44458   -0.44458
     8   C       2.99478    3.44006      6.43484   -0.43484
     9   H       0.85199                 0.85199    0.14801
    10   H       0.84685                 0.84685    0.15315
    11   H       0.85050                 0.85050    0.14950
    12   H       0.85154                 0.85154    0.14846
    13   H       0.85323                 0.85323    0.14677
    14   H       0.85763                 0.85763    0.14237
    15   H       0.87510                 0.87510    0.12490

 Total charge composition, AO contributions:

   CEN ATOM SHL      SPHERICAL COMPONENTS
     1   O  1s       1.99757
     1   O  2s       1.65225
     1   O  2p       1.28420    1.40104    1.86794

     2   C  1s       1.99332
     2   C  2s       1.01265
     2   C  2p       0.91414    1.20436    1.18308

     3   H  1s       0.84578

     4   H  1s       0.87671

     5   C  1s       1.99380
     5   C  2s       0.96639
     5   C  2p       1.03768    0.90716    1.11921

     6   H  1s       0.87646

     7   C  1s       1.99284
     7   C  2s       1.00341
     7   C  2p       1.17722    1.14267    1.12843

     8   C  1s       1.99277
     8   C  2s       1.00201
     8   C  2p       1.06135    1.18566    1.19304

     9   H  1s       0.85199

    10   H  1s       0.84685

    11   H  1s       0.85050

    12   H  1s       0.85154

    13   H  1s       0.85323

    14   H  1s       0.85763

    15   H  1s       0.87510

 Summary of localized orbital composition:   [THRPRINT= 0.020]

   ORB  GRP  ORB.ENERGY      CENTERS/CHARGES
     1   1   -18.176936      O  1   2.000
     2   1    -9.543623      C  5   2.000
     3   1    -9.516940      C  2   2.000
     4   1    -9.471050      C  8   2.000
     5   1    -9.468418      C  7   2.000
     6   1    -0.594965      O  1   1.160   C  2   0.830
     7   1    -0.572350      O  1   1.166   C  5   0.814
     8   1    -0.469455      C  5   1.002   C  8   0.981
     9   1    -0.463894      C  5   0.997   C  7   0.993
    10   1    -0.420362      C  2   1.156   H  3   0.835
    11   1    -0.418848      C  2   1.143   H  4   0.855
    12   1    -0.418690      C  2   1.143   H 15   0.855
    13   1    -0.414999      C  5   1.134   H  6   0.851
    14   1    -0.403632      C  8   1.143   H  9   0.845
    15   1    -0.402331      C  7   1.139   H 14   0.850
    16   1    -0.402186      C  7   1.143   H 12   0.844
    17   1    -0.397706      C  8   1.150   H 10   0.839
    18   1    -0.396048      C  7   1.144   H 13   0.846
    19   1    -0.395798      C  8   1.147   H 11   0.844
    20   1    -0.394773      O  1   1.969   (other: 0.031)
    21   1    -0.094330      O  1   1.900   C  5   0.022   (other: 0.078)

 Localized orbitals saved to record      2100.2  (orbital set 2)


 **********************************************************************************************************************************
 DATASETS  * FILE   NREC   LENGTH (MB)   RECORD NAMES
              1      20       32.79       500      610      700      900      950      970     1000      129      960     1100   
                                          VAR    BASINP    GEOM    SYMINP    ZMAT    AOBASIS   BASIS     P2S    ABASIS      S 
                                         1400     1410     1200     1210     1080     1600     1650     1300     1700     1800   
                                           T        V       H0       H01     AOSYM     SMH    MOLCAS    ERIS     OPER     GRID   

              2       5        3.03       700     1000      520     1800     2100   
                                         GEOM     BASIS   MCVARS    GRID      RKS  

 PROGRAMS   *        TOTAL      IBBA        KS       INT
 CPU TIMES  *         4.28      0.04      3.65      0.46
 REAL TIME  *         4.85 SEC
 DISK USED  *        36.55 MB      
 **********************************************************************************************************************************
 Molecular orbitals read from record     2100.2  Type=RKS/LOCAL(IBO)  
 Occupation numbers read from record     2100.2  Type=RKS/LOCAL(IBO)  
 Orbital energies read from record       2100.2  Type=RKS/LOCAL(IBO)  
 Redundancy group numbers read from rec  2100.2  Type=RKS/LOCAL(IBO)  

 IBBA/STO-3G energy=      0.000000000000

        KS-SCF  
   -228.65908221
 **********************************************************************************************************************************
 Molpro calculation terminated
