
 Primary working directories    : /tmp/sb13343
 Secondary working directories  : /tmp/sb13343
 Wavefunction directory         : /panfs/panasas01/chem/sb13343/wfu/
 Main file repository           : /tmp/sb13343/

 SHA1      : b4a5b34a9e711420743f49e6833241d17c61fb3c
 NAME      : 2099.9.b4a5b34
 ARCHNAME  : linux/x86_64_openmp
 FC        : /cm/shared/languages/GCC-6.1/bin/gfortran
 BLASLIB   : -lblas
 id        : simonbennie

 Nodes     nprocs
 node34-013    1

 Using customized tuning parameters: mindgm=1; mindgv=20; mindgc=4; mindgr=1; noblas=0; minvec=7
 default implementation of scratch files=df  

 memory,500,m
 geomtyp=xyz
 nosym
 noorient
 geometry={
 O          0.25818        0.93788        0.04074
 C          1.63656        1.04230        0.32330
 H          1.89907        2.10041        0.23555
 H          2.26234        0.47024       -0.37847
 C         -0.29581       -0.36510        0.22961
 H          0.07373       -0.77023        1.18842
 C          0.09996       -1.32219       -0.89979
 C         -1.80707       -0.17660        0.31883
 H         -2.30941       -1.13436        0.49338
 H         -2.05917        0.50650        1.13581
 H         -2.19015        0.25071       -0.61475
 H         -0.34617       -2.31074       -0.74107
 H         -0.25158       -0.93408       -1.86253
 H          1.18531       -1.45552       -0.96063
 H          1.86878        0.70360        1.34661
 }
 basis={ default,svp }
 {ks,MM06-2X,direct;wf,42,1,0}
 {ibba,bonds=1}

 Variables initialized (895), CPU time= 0.00 sec
 Commands  initialized (725), CPU time= 0.01 sec, 591 directives.
 Default parameters read. Elapsed time= 0.09 sec

 Checking input...
 Passed
1


                                         ***  PROGRAM SYSTEM MOLPRO  ***
                                       Copyright, TTI GmbH Stuttgart, 2015
                                    Version 2099.9 linked May 26 2017 16:03:21


 **********************************************************************************************************************************
 LABEL *                                                                                 
  64 bit serial version                                                                  DATE: 07-Jun-17          TIME: 22:01:39  
 **********************************************************************************************************************************

 SHA1:             b4a5b34a9e711420743f49e6833241d17c61fb3c
 **********************************************************************************************************************************
 SETTING GEOMTYP        =    XYZ

 Variable memory set to  500000000 words,  buffer space 

 ZSYMEL=NOSYM

 SETTING BASIS          =    SVP


 Recomputing integrals since basis changed


 Using spherical harmonics

 Library entry O      S def2-SVP             selected for orbital group  1
 Library entry O      P def2-SVP             selected for orbital group  1
 Library entry O      D def2-SVP             selected for orbital group  1
 Library entry C      S def2-SVP             selected for orbital group  2
 Library entry C      P def2-SVP             selected for orbital group  2
 Library entry C      D def2-SVP             selected for orbital group  2
 Library entry H      S def2-SVP             selected for orbital group  3
 Library entry H      P def2-SVP             selected for orbital group  3


 PROGRAM * SEWARD (Integral evaluation for generally contracted gaussian basis sets)     Author: Roland Lindh, 1990

 Geometry written to block  1 of record 700


 Point group  C1  



 ATOMIC COORDINATES

 NR  ATOM    CHARGE       X              Y              Z

   1  O       8.00    0.487889491    1.772336338    0.076987442
   2  C       6.00    3.092650186    1.969661540    0.610948456
   3  H       1.00    3.588722191    3.969199649    0.445124989
   4  H       1.00    4.275203001    0.888624813   -0.715204646
   5  C       6.00   -0.558999885   -0.689939008    0.433900015
   6  H       1.00    0.139329507   -1.455523753    2.245788321
   7  C       6.00    0.188897023   -2.498576985   -1.700356670
   8  C       6.00   -3.414867388   -0.333725634    0.602501380
   9  H       1.00   -4.364152409   -2.143629727    0.932353075
  10  H       1.00   -3.891267344    0.957146282    2.146369830
  11  H       1.00   -4.138783672    0.473773237   -1.161709135
  12  H       1.00   -0.654166493   -4.366665745   -1.400419339
  13  H       1.00   -0.475417298   -1.765155378   -3.519671599
  14  H       1.00    2.239911273   -2.750534169   -1.815327607
  15  H       1.00    3.531482387    1.329611301    2.544724097

 Bond lengths in Bohr (Angstrom)

  1- 2  2.666238902   1- 5  2.699289504   2- 3  2.066818209   2- 4  2.079844613   2-15  2.083680934
       ( 1.410912866)       ( 1.428402491)       ( 1.093713095)       ( 1.100606371)       ( 1.102636465)

  5- 6  2.087276497   5- 7  2.895785336   5- 8  2.882931422   7-12  2.071345966   7-13  2.071020903
       ( 1.104539155)       ( 1.532383608)       ( 1.525581609)       ( 1.096109081)       ( 1.095937065)

  7-14  2.069628032   8- 9  2.070192508   8-10  2.068051501   8-11  2.070880961
       ( 1.095199989)       ( 1.095498697)       ( 1.094365725)       ( 1.095863011)

 Bond angles

  1- 2- 3  106.85884507   1- 2- 4  112.91125973   1- 2-15  111.64621834   1- 5- 6  108.63888518

  1-5-7  111.84608248   1-5-8  106.21369660   2-1-5  114.82992588   3-2-4  108.37425913

  3- 2-15  108.72850466   4- 2-15  108.20064699   5- 7-12  110.57572754   5- 7-13  110.08520206

  5- 7-14  111.89623115   5- 8- 9  110.82645738   5- 8-10  110.42517473   5- 8-11  110.16013005

  6- 5- 7  108.92239636   6- 5- 8  109.02480146   7- 5- 8  112.09364518   9- 8-10  108.73162751

  9- 8-11  108.44218100  10- 8-11  108.18344616  12- 7-13  108.42317703  12- 7-14  107.55382926

 13- 7-14  108.19151953

 NUCLEAR CHARGE:                   42
 NUMBER OF PRIMITIVE AOS:         195
 NUMBER OF SYMMETRY AOS:          190
 NUMBER OF CONTRACTIONS:          120   ( 120A   )
 NUMBER OF CORE ORBITALS:           5   (   5A   )
 NUMBER OF VALENCE ORBITALS:       30   (  30A   )


 NUCLEAR REPULSION ENERGY  195.74983609


 Eigenvalues of metric

         1 0.241E-02 0.514E-02 0.104E-01 0.150E-01 0.214E-01 0.243E-01 0.289E-01 0.305E-01


 Contracted 2-electron integrals neglected if value below      1.0D-11
 AO integral compression algorithm  1   Integral accuracy      1.0D-11

     97.518 MB (compressed) written to integral file ( 44.4%)


 NUMBER OF SORTED TWO-ELECTRON INTEGRALS:   26357430.     BUFFER LENGTH:  32768
 NUMBER OF SEGMENTS:   2  SEGMENT LENGTH:   15997996      RECORD LENGTH: 524288

 Memory used in sort:      16.56 MW

 SORT1 READ    27501115. AND WROTE    22923365. INTEGRALS IN     67 RECORDS. CPU TIME:     0.39 SEC, REAL TIME:     0.75 SEC
 SORT2 READ    22923365. AND WROTE    26357430. INTEGRALS IN    372 RECORDS. CPU TIME:     0.66 SEC, REAL TIME:     4.21 SEC

 FILE SIZES:   FILE 1:   128.3 MBYTE,  FILE 4:   281.1 MBYTE,   TOTAL:    409.3 MBYTE

 OPERATOR DM      FOR CENTER  0  COORDINATES:    0.000000    0.000000    0.000000


 **********************************************************************************************************************************
 DATASETS  * FILE   NREC   LENGTH (MB)   RECORD NAMES
              1      19      116.03       500      610      700      900      950      970     1000      129      960     1100   
                                          VAR    BASINP    GEOM    SYMINP    ZMAT    AOBASIS   BASIS     P2S    ABASIS      S 
                                         1400     1410     1200     1210     1080     1600     1650     1300     1700   
                                           T        V       H0       H01     AOSYM     SMH    MOLCAS    ERIS     OPER   

 PROGRAMS   *        TOTAL       INT
 CPU TIMES  *         4.21      4.06
 REAL TIME  *         8.83 SEC
 DISK USED  *       409.85 MB      
 **********************************************************************************************************************************

 Density functional group MM06-2X=M062XX+M062XC
 Functional: M062XX(Automatically generated (new) M062XX)                      Gradient terms: 2
 Functional: M062XC(Automatically generated (new) M062XC)                      Gradient terms: 2
 Use grid at  1800.2


 Exact exchange will be calculated, factor:  0.5400

 Functional: M062XX                    Factor:  0.4600
 Functional: M062XC                    Factor:  1.0000

 Generated new metagrid on record  1800.2 with target accuracy 1.0D-06 and 52852 points in CPU time    1.4
 Computed new grid on record 1800.1 in CPU time    1.6
  190979 words reserved for DFT integration

 PROGRAM * RKS-SCF (Restricted closed shell Kohn-Sham)     Authors: W. Meyer, H.-J. Werner, P.J. Knowles, 1993

 NUMBER OF ELECTRONS:      21+   21-    SPACE SYMMETRY=1    SPIN SYMMETRY: Singlet 
 CONVERGENCE THRESHOLDS:    1.00E-05 (Density)    1.00E-06 (Energy)
 MAX. NUMBER OF ITERATIONS:       60
 INTERPOLATION TYPE:            DIIS
 INTERPOLATION STEPS:              2 (START)      1 (STEP)
 LEVEL SHIFTS:                  0.00 (CLOSED)  0.00 (OPEN) 



 Use fine grid record 1800.2 for energy threshold  1.0D-06
 Orbital guess generated from atomic densities. Full valence occupancy:   21

 Molecular orbital dump at record        2100.2

 Initial occupancy:  21

 ITERATION    DDIFF          GRAD             ENERGY        2-EL.EN.            DIPOLE MOMENTS         DIIS   ORB.
    1      0.000D+00      0.000D+00      -225.35390205    577.331922    0.34573   -0.50398    0.18832    0    start
    2      0.000D+00      0.402D-02      -225.37194551    571.581426    0.17765   -0.31908    0.07727    1    diag
    3      0.596D-02      0.317D-02      -225.39224908    574.157256    0.24696   -0.29630    0.12815    2    diag
    4      0.263D-02      0.354D-03      -225.39244806    574.175752    0.25108   -0.34275    0.12691    3    diag
    5      0.481D-03      0.212D-03      -225.39251534    574.042706    0.24526   -0.32263    0.12094    4    diag
    6      0.202D-03      0.548D-04      -225.39252036    574.089237    0.24761   -0.32377    0.12311    5    diag
    7      0.569D-04      0.949D-05      -225.39252052    574.083570    0.24730   -0.32382    0.12285    6    diag
    8      0.101D-04      0.332D-05      -225.39252054    574.085110    0.24742   -0.32389    0.12280    7    diag
    9      0.376D-05      0.398D-06      -225.39252054    574.084712    0.24740   -0.32382    0.12280    0    orth

 Final occupancy:  21

 !RKS STATE 1.1 Energy               -225.392520540680
 Nuclear energy                       195.74983609
 One-electron energy                 -699.95656487
 Two-electron energy                  287.04235623
 SCF exchange energy                  -32.05226443     Factor= 0.5400
 Density functional                    -8.22814799     M062XX=-14.66154492 M062XC= -1.48383732
 Virial quotient                       -0.99018623
 !RKS STATE 1.1 Dipole moment           0.24739795    -0.32382017     0.12280395
 Dipole moment /Debye                   0.62878168    -0.82301488     0.31211606

 Orbital energies:

         1.1          2.1          3.1          4.1          5.1          6.1          7.1          8.1          9.1         10.1
    -19.140628   -10.199583   -10.196513   -10.150337   -10.146876    -1.057962    -0.799526    -0.703000    -0.677014    -0.578580

        11.1         12.1         13.1         14.1         15.1         16.1         17.1         18.1         19.1         20.1
     -0.498999    -0.466443    -0.460842    -0.421737    -0.387000    -0.379423    -0.366312    -0.340314    -0.331102    -0.295186

        21.1         22.1         23.1
     -0.243184     0.135261     0.166325

 HOMO     21.1    -0.243184 =      -6.6174eV
 LUMO     22.1     0.135261 =       3.6806eV
 LUMO-HOMO         0.378445 =      10.2980eV


 **********************************************************************************************************************************
 DATASETS  * FILE   NREC   LENGTH (MB)   RECORD NAMES
              1      20      117.72       500      610      700      900      950      970     1000      129      960     1100   
                                          VAR    BASINP    GEOM    SYMINP    ZMAT    AOBASIS   BASIS     P2S    ABASIS      S 
                                         1400     1410     1200     1210     1080     1600     1650     1300     1700     1800   
                                           T        V       H0       H01     AOSYM     SMH    MOLCAS    ERIS     OPER     GRID   

              2       5        3.30       700     1000      520     1800     2100   
                                         GEOM     BASIS   MCVARS    GRID      RKS  

 PROGRAMS   *        TOTAL        KS       INT
 CPU TIMES  *        50.29     46.08      4.06
 REAL TIME  *        55.60 SEC
 DISK USED  *       409.85 MB      
 **********************************************************************************************************************************


 PROGRAM * Intrinsic Basis Bonding Analysis (IBBA)          Author: G. Knizia

 Molecular orbitals read from record     2100.2  Type=RKS/CANONICAL (state 1.1)
 Fock matrix read from record            2100.2  Type=RKS/TOTAL (state 1.1)
 Orbital energies read from record       2100.2  Type=RKS/CANONICAL (state 1.1)
 Density matrix read from record         2100.2  Type=RKS/CHARGE (state 1.1)

 Number of core orbitals:           5 (   5 )
 Number of closed-shell orbitals:  16 (  16 )

 Basis set MINAO-AUTO-PP generated.      Number of basis functions:   35 

 Polarized AO type:                A = (O Ot + (1-O)(1-Ot)) P12
 Orthogonalization method:         Symmetric (Loewdin)
 Localization functional:          L = sum[A,i] <i|n_A|i>^4 -> max

 Localization group 1:  21 orbitals, occupancy  2.000
 Iterative localization: IB/PM,    7 iter; Final gradient 0.43E-08

 Bond order analysis:       [THRPRINT= 0.020]

   CEN ATOM   CEN ATOM     WIBERG.BO      RENORM.BO
     1   O  -   2   C       1.001609       1.020643
     1   O  -   5   C       0.956917       0.964773
     1   O  -   4   H       0.034705       0.019955
     1   O  -  15   H       0.033310       0.019340
     1   O  -   7   C       0.030684       0.016064
     1   O  -   6   H       0.026628       0.015430

     2   C  -   1   O       1.001609       1.020643
     2   C  -   3   H       0.962712       0.977183
     2   C  -   4   H       0.952615       0.935002
     2   C  -  15   H       0.952092       0.934900

     3   H  -   2   C       0.962712       0.977183

     4   H  -   2   C       0.952615       0.935002
     4   H  -   1   O       0.034705       0.019955

     5   C  -   8   C       1.011896       1.006325
     5   C  -   7   C       1.004097       0.981631
     5   C  -   1   O       0.956917       0.964773
     5   C  -   6   H       0.926544       0.912853

     6   H  -   5   C       0.926544       0.912853
     6   H  -   1   O       0.026628       0.015430

     7   C  -   5   C       1.004097       0.981631
     7   C  -  14   H       0.964737       0.982477
     7   C  -  12   H       0.963507       0.985699
     7   C  -  13   H       0.962113       0.977404
     7   C  -   1   O       0.030684       0.016064

     8   C  -   5   C       1.011896       1.006325
     8   C  -   9   H       0.966071       0.986082
     8   C  -  10   H       0.963645       0.983045
     8   C  -  11   H       0.961603       0.977605

     9   H  -   8   C       0.966071       0.986082

    10   H  -   8   C       0.963645       0.983045

    11   H  -   8   C       0.961603       0.977605

    12   H  -   7   C       0.963507       0.985699

    13   H  -   7   C       0.962113       0.977404

    14   H  -   7   C       0.964737       0.982477

    15   H  -   2   C       0.952092       0.934900
    15   H  -   1   O       0.033310       0.019340


 Valency analysis:

   CEN ATOM   TOT.VALENCE
     1   O       2.140220
     2   C       3.891226
     3   H       0.984559
     4   H       0.992812
     5   C       3.928424
     6   H       0.995150
     7   C       3.949426
     8   C       3.949473
     9   H       0.988356
    10   H       0.986157
    11   H       0.987375
    12   H       0.987291
    13   H       0.987492
    14   H       0.988343
    15   H       0.992888

 Total charge composition:

   CEN ATOM         s          p       ELECTRONS ->P.CHARGE
     1   O       3.56530    4.78870      8.35400   -0.35400
     2   C       2.97708    3.15227      6.12935   -0.12935
     3   H       0.87574                 0.87574    0.12426
     4   H       0.91522                 0.91522    0.08478
     5   C       2.92384    2.93723      5.86108    0.13892
     6   H       0.93036                 0.93036    0.06964
     7   C       2.98512    3.36830      6.35343   -0.35343
     8   C       2.98289    3.35274      6.33564   -0.33564
     9   H       0.89209                 0.89209    0.10791
    10   H       0.88234                 0.88234    0.11766
    11   H       0.88764                 0.88764    0.11236
    12   H       0.88726                 0.88726    0.11274
    13   H       0.88816                 0.88816    0.11184
    14   H       0.89203                 0.89203    0.10797
    15   H       0.91567                 0.91567    0.08433

 Total charge composition, AO contributions:

   CEN ATOM SHL      SPHERICAL COMPONENTS
     1   O  1s       1.99748
     1   O  2s       1.56781
     1   O  2p       1.38399    1.52347    1.88124

     2   C  1s       1.99298
     2   C  2s       0.98410
     2   C  2p       0.84723    1.16871    1.13633

     3   H  1s       0.87574

     4   H  1s       0.91522

     5   C  1s       1.99351
     5   C  2s       0.93034
     5   C  2p       1.01427    0.84555    1.07741

     6   H  1s       0.93036

     7   C  1s       1.99243
     7   C  2s       0.99269
     7   C  2p       1.14464    1.11790    1.10576

     8   C  1s       1.99236
     8   C  2s       0.99053
     8   C  2p       1.05166    1.14551    1.15557

     9   H  1s       0.89209

    10   H  1s       0.88234

    11   H  1s       0.88764

    12   H  1s       0.88726

    13   H  1s       0.88816

    14   H  1s       0.89203

    15   H  1s       0.91567

 Summary of localized orbital composition:   [THRPRINT= 0.020]

   ORB  GRP  ORB.ENERGY      CENTERS/CHARGES
     1   1   -19.005529      O  1   2.000
     2   1   -10.104866      C  5   2.000
     3   1   -10.092493      C  2   2.000
     4   1   -10.041258      C  7   2.000
     5   1   -10.037053      C  8   2.000
     6   1    -0.780556      O  1   1.233   C  2   0.759
     7   1    -0.761331      O  1   1.252   C  5   0.730
     8   1    -0.582590      C  8   0.994   C  5   0.991
     9   1    -0.581329      C  7   1.011   C  5   0.979
    10   1    -0.536333      O  1   1.959   (other: 0.041)
    11   1    -0.515087      C  2   1.103   H  4   0.894
    12   1    -0.514280      C  2   1.102   H 15   0.895
    13   1    -0.512306      C  2   1.125   H  3   0.868
    14   1    -0.509461      C  5   1.074   H  6   0.905   (other: 0.021)
    15   1    -0.497393      C  7   1.105   H 12   0.879
    16   1    -0.496065      C  7   1.104   H 14   0.884
    17   1    -0.494280      C  8   1.101   H  9   0.884
    18   1    -0.492266      C  7   1.109   H 13   0.880
    19   1    -0.489100      C  8   1.109   H 11   0.879
    20   1    -0.488319      C  8   1.114   H 10   0.874
    21   1    -0.308664      O  1   1.905   C  2   0.020   C  5   0.020   (other: 0.055)

 Localized orbitals saved to record      2100.2  (orbital set 2)


 **********************************************************************************************************************************
 DATASETS  * FILE   NREC   LENGTH (MB)   RECORD NAMES
              1      20      117.72       500      610      700      900      950      970     1000      129      960     1100   
                                          VAR    BASINP    GEOM    SYMINP    ZMAT    AOBASIS   BASIS     P2S    ABASIS      S 
                                         1400     1410     1200     1210     1080     1600     1650     1300     1700     1800   
                                           T        V       H0       H01     AOSYM     SMH    MOLCAS    ERIS     OPER     GRID   

              2       5        3.42       700     1000      520     1800     2100   
                                         GEOM     BASIS   MCVARS    GRID      RKS  

 PROGRAMS   *        TOTAL      IBBA        KS       INT
 CPU TIMES  *        50.34      0.04     46.08      4.06
 REAL TIME  *        55.78 SEC
 DISK USED  *       409.85 MB      
 **********************************************************************************************************************************
 Molecular orbitals read from record     2100.2  Type=RKS/LOCAL(IBO)  
 Occupation numbers read from record     2100.2  Type=RKS/LOCAL(IBO)  
 Orbital energies read from record       2100.2  Type=RKS/LOCAL(IBO)  
 Redundancy group numbers read from rec  2100.2  Type=RKS/LOCAL(IBO)  

 IBBA/SVP energy=      0.000000000000

        KS-SCF  
   -225.39252054
 **********************************************************************************************************************************
 Molpro calculation terminated
