
 Primary working directories    : /tmp/sb13343
 Secondary working directories  : /tmp/sb13343
 Wavefunction directory         : /panfs/panasas01/chem/sb13343/wfu/
 Main file repository           : /tmp/sb13343/

 SHA1      : b4a5b34a9e711420743f49e6833241d17c61fb3c
 NAME      : 2099.9.b4a5b34
 ARCHNAME  : linux/x86_64_openmp
 FC        : /cm/shared/languages/GCC-6.1/bin/gfortran
 BLASLIB   : -lblas
 id        : simonbennie

 Nodes     nprocs
 node34-005    1

 Using customized tuning parameters: mindgm=1; mindgv=20; mindgc=4; mindgr=1; noblas=0; minvec=7
 default implementation of scratch files=df  

 memory,500,m
 geomtyp=xyz
 nosym
 noorient
 geometry={
 O          0.25818        0.93788        0.04074
 C          1.63656        1.04230        0.32330
 H          1.89907        2.10041        0.23555
 H          2.26234        0.47024       -0.37847
 C         -0.29581       -0.36510        0.22961
 H          0.07373       -0.77023        1.18842
 C          0.09996       -1.32219       -0.89979
 C         -1.80707       -0.17660        0.31883
 H         -2.30941       -1.13436        0.49338
 H         -2.05917        0.50650        1.13581
 H         -2.19015        0.25071       -0.61475
 H         -0.34617       -2.31074       -0.74107
 H         -0.25158       -0.93408       -1.86253
 H          1.18531       -1.45552       -0.96063
 H          1.86878        0.70360        1.34661
 }
 basis={ default,sto-3g }
 {ks,SOGGA11-X,direct;wf,42,1,0}
 {ibba,bonds=1}

 Variables initialized (895), CPU time= 0.00 sec
 Commands  initialized (725), CPU time= 0.02 sec, 591 directives.
 Default parameters read. Elapsed time= 0.08 sec

 Checking input...
 Passed
1


                                         ***  PROGRAM SYSTEM MOLPRO  ***
                                       Copyright, TTI GmbH Stuttgart, 2015
                                    Version 2099.9 linked May 26 2017 16:03:21


 **********************************************************************************************************************************
 LABEL *                                                                                 
  64 bit serial version                                                                  DATE: 07-Jun-17          TIME: 21:53:06  
 **********************************************************************************************************************************

 SHA1:             b4a5b34a9e711420743f49e6833241d17c61fb3c
 **********************************************************************************************************************************
 SETTING GEOMTYP        =    XYZ

 Variable memory set to  500000000 words,  buffer space 

 ZSYMEL=NOSYM

 SETTING BASIS          =    STO-3G


 Recomputing integrals since basis changed


 Using spherical harmonics

 Library entry O      S STO-3G               selected for orbital group  1
 Library entry O      P STO-3G               selected for orbital group  1
 Library entry C      S STO-3G               selected for orbital group  2
 Library entry C      P STO-3G               selected for orbital group  2
 Library entry H      S STO-3G               selected for orbital group  3


 PROGRAM * SEWARD (Integral evaluation for generally contracted gaussian basis sets)     Author: Roland Lindh, 1990

 Geometry written to block  1 of record 700


 Point group  C1  



 ATOMIC COORDINATES

 NR  ATOM    CHARGE       X              Y              Z

   1  O       8.00    0.487889491    1.772336338    0.076987442
   2  C       6.00    3.092650186    1.969661540    0.610948456
   3  H       1.00    3.588722191    3.969199649    0.445124989
   4  H       1.00    4.275203001    0.888624813   -0.715204646
   5  C       6.00   -0.558999885   -0.689939008    0.433900015
   6  H       1.00    0.139329507   -1.455523753    2.245788321
   7  C       6.00    0.188897023   -2.498576985   -1.700356670
   8  C       6.00   -3.414867388   -0.333725634    0.602501380
   9  H       1.00   -4.364152409   -2.143629727    0.932353075
  10  H       1.00   -3.891267344    0.957146282    2.146369830
  11  H       1.00   -4.138783672    0.473773237   -1.161709135
  12  H       1.00   -0.654166493   -4.366665745   -1.400419339
  13  H       1.00   -0.475417298   -1.765155378   -3.519671599
  14  H       1.00    2.239911273   -2.750534169   -1.815327607
  15  H       1.00    3.531482387    1.329611301    2.544724097

 Bond lengths in Bohr (Angstrom)

  1- 2  2.666238902   1- 5  2.699289504   2- 3  2.066818209   2- 4  2.079844613   2-15  2.083680934
       ( 1.410912866)       ( 1.428402491)       ( 1.093713095)       ( 1.100606371)       ( 1.102636465)

  5- 6  2.087276497   5- 7  2.895785336   5- 8  2.882931422   7-12  2.071345966   7-13  2.071020903
       ( 1.104539155)       ( 1.532383608)       ( 1.525581609)       ( 1.096109081)       ( 1.095937065)

  7-14  2.069628032   8- 9  2.070192508   8-10  2.068051501   8-11  2.070880961
       ( 1.095199989)       ( 1.095498697)       ( 1.094365725)       ( 1.095863011)

 Bond angles

  1- 2- 3  106.85884507   1- 2- 4  112.91125973   1- 2-15  111.64621834   1- 5- 6  108.63888518

  1-5-7  111.84608248   1-5-8  106.21369660   2-1-5  114.82992588   3-2-4  108.37425913

  3- 2-15  108.72850466   4- 2-15  108.20064699   5- 7-12  110.57572754   5- 7-13  110.08520206

  5- 7-14  111.89623115   5- 8- 9  110.82645738   5- 8-10  110.42517473   5- 8-11  110.16013005

  6- 5- 7  108.92239636   6- 5- 8  109.02480146   7- 5- 8  112.09364518   9- 8-10  108.73162751

  9- 8-11  108.44218100  10- 8-11  108.18344616  12- 7-13  108.42317703  12- 7-14  107.55382926

 13- 7-14  108.19151953

 NUCLEAR CHARGE:                   42
 NUMBER OF PRIMITIVE AOS:         105
 NUMBER OF SYMMETRY AOS:          105
 NUMBER OF CONTRACTIONS:           35   (  35A   )
 NUMBER OF CORE ORBITALS:           5   (   5A   )
 NUMBER OF VALENCE ORBITALS:       30   (  30A   )


 NUCLEAR REPULSION ENERGY  195.74983609


 Eigenvalues of metric

         1 0.208E+00 0.227E+00 0.234E+00 0.281E+00 0.352E+00 0.360E+00 0.363E+00 0.368E+00


 Contracted 2-electron integrals neglected if value below      1.0D-11
 AO integral compression algorithm  1   Integral accuracy      1.0D-11

     1.573 MB (compressed) written to integral file ( 89.1%)


 NUMBER OF SORTED TWO-ELECTRON INTEGRALS:     198765.     BUFFER LENGTH:  32768
 NUMBER OF SEGMENTS:   1  SEGMENT LENGTH:     198765      RECORD LENGTH: 524288

 Memory used in sort:       0.76 MW

 SORT1 READ      224802. AND WROTE      193897. INTEGRALS IN      1 RECORDS. CPU TIME:     0.01 SEC, REAL TIME:     0.01 SEC
 SORT2 READ      193897. AND WROTE      198765. INTEGRALS IN      6 RECORDS. CPU TIME:     0.02 SEC, REAL TIME:     0.02 SEC

 FILE SIZES:   FILE 1:    31.8 MBYTE,  FILE 4:     4.2 MBYTE,   TOTAL:     36.0 MBYTE

 OPERATOR DM      FOR CENTER  0  COORDINATES:    0.000000    0.000000    0.000000


 **********************************************************************************************************************************
 DATASETS  * FILE   NREC   LENGTH (MB)   RECORD NAMES
              1      19       31.10       500      610      700      900      950      970     1000      129      960     1100   
                                          VAR    BASINP    GEOM    SYMINP    ZMAT    AOBASIS   BASIS     P2S    ABASIS      S 
                                         1400     1410     1200     1210     1080     1600     1650     1300     1700   
                                           T        V       H0       H01     AOSYM     SMH    MOLCAS    ERIS     OPER   

 PROGRAMS   *        TOTAL       INT
 CPU TIMES  *         0.61      0.47
 REAL TIME  *         0.95 SEC
 DISK USED  *        36.55 MB      
 **********************************************************************************************************************************

 Density functional group SOGGA11-X=XC-SOGGA11-X
 Functional: XC-SOGGA11-X(via MFM 1.6)                                         Gradient terms: 1
 Use grid at  1800.2


 Exact exchange will be calculated, factor:  0.4015

 Functional: XC-SOGGA11-X              Factor:  1.0000

 Generated new metagrid on record  1800.2 with target accuracy 1.0D-06 and 52852 points in CPU time    1.3
 Computed new grid on record 1800.1 in CPU time    1.5
   32369 words reserved for DFT integration

 PROGRAM * RKS-SCF (Restricted closed shell Kohn-Sham)     Authors: W. Meyer, H.-J. Werner, P.J. Knowles, 1993

 NUMBER OF ELECTRONS:      21+   21-    SPACE SYMMETRY=1    SPIN SYMMETRY: Singlet 
 CONVERGENCE THRESHOLDS:    1.00E-05 (Density)    1.00E-06 (Energy)
 MAX. NUMBER OF ITERATIONS:       60
 INTERPOLATION TYPE:            DIIS
 INTERPOLATION STEPS:              2 (START)      1 (STEP)
 LEVEL SHIFTS:                  0.00 (CLOSED)  0.00 (OPEN) 



 Use fine grid record 1800.2 for energy threshold  1.0D-06
 Orbital guess generated from atomic densities. Full valence occupancy:   21

 Molecular orbital dump at record        2100.2

 Initial occupancy:  21

 ITERATION    DDIFF          GRAD             ENERGY        2-EL.EN.            DIPOLE MOMENTS         DIIS   ORB.
    1      0.000D+00      0.000D+00      -230.51551614    603.245918    0.59049   -0.99336    0.31836    0    start
    2      0.000D+00      0.231D-01      -230.66457250    584.006536   -0.22055    0.08932   -0.10071    1    diag
    3      0.653D-01      0.137D-01      -230.73861548    590.573624    0.20506   -0.39798    0.14260    2    diag
    4      0.246D-01      0.124D-02      -230.73911860    590.700165    0.17441   -0.35961    0.12158    3    diag
    5      0.248D-02      0.384D-03      -230.73917061    590.657964    0.17760   -0.36710    0.12179    4    diag
    6      0.593D-03      0.387D-04      -230.73917121    590.657999    0.17779   -0.36619    0.12236    5    diag
    7      0.881D-04      0.126D-04      -230.73917128    590.658048    0.17787   -0.36670    0.12256    6    diag
    8      0.247D-04      0.115D-05      -230.73917128    590.657953    0.17784   -0.36666    0.12250    7    diag
    9      0.321D-05      0.231D-06      -230.73917128    590.657946    0.17784   -0.36666    0.12251    0    orth

 Final occupancy:  21

 !RKS STATE 1.1 Energy               -230.739171279688
 Nuclear energy                       195.74983609
 One-electron energy                 -700.81690506
 Two-electron energy                  295.32897292
 SCF exchange energy                  -32.67008891     Factor= 0.4015
 Density functional                   -21.00107524     XC-SOGGA11-X=-21.00107524
 Virial quotient                       -1.01583440
 !RKS STATE 1.1 Dipole moment           0.17784099    -0.36665664     0.12250711
 Dipole moment /Debye                   0.45199709    -0.93188719     0.31136163

 Orbital energies:

         1.1          2.1          3.1          4.1          5.1          6.1          7.1          8.1          9.1         10.1
    -19.214333   -10.314423   -10.301011   -10.257117   -10.255407    -1.064150    -0.821541    -0.731444    -0.704549    -0.601400

        11.1         12.1         13.1         14.1         15.1         16.1         17.1         18.1         19.1         20.1
     -0.497611    -0.474729    -0.458734    -0.435460    -0.408759    -0.400960    -0.381353    -0.356442    -0.344449    -0.251001

        21.1         22.1         23.1
     -0.183575     0.344651     0.421908

 HOMO     21.1    -0.183575 =      -4.9953eV
 LUMO     22.1     0.344651 =       9.3784eV
 LUMO-HOMO         0.528225 =      14.3737eV


 **********************************************************************************************************************************
 DATASETS  * FILE   NREC   LENGTH (MB)   RECORD NAMES
              1      20       32.79       500      610      700      900      950      970     1000      129      960     1100   
                                          VAR    BASINP    GEOM    SYMINP    ZMAT    AOBASIS   BASIS     P2S    ABASIS      S 
                                         1400     1410     1200     1210     1080     1600     1650     1300     1700     1800   
                                           T        V       H0       H01     AOSYM     SMH    MOLCAS    ERIS     OPER     GRID   

              2       5        3.02       700     1000      520     1800     2100   
                                         GEOM     BASIS   MCVARS    GRID      RKS  

 PROGRAMS   *        TOTAL        KS       INT
 CPU TIMES  *         5.82      5.21      0.47
 REAL TIME  *         6.47 SEC
 DISK USED  *        36.55 MB      
 **********************************************************************************************************************************


 PROGRAM * Intrinsic Basis Bonding Analysis (IBBA)          Author: G. Knizia

 Molecular orbitals read from record     2100.2  Type=RKS/CANONICAL (state 1.1)
 Fock matrix read from record            2100.2  Type=RKS/TOTAL (state 1.1)
 Orbital energies read from record       2100.2  Type=RKS/CANONICAL (state 1.1)
 Density matrix read from record         2100.2  Type=RKS/CHARGE (state 1.1)

 Number of core orbitals:           5 (   5 )
 Number of closed-shell orbitals:  16 (  16 )

 Basis set MINAO-AUTO-PP generated.      Number of basis functions:   35 

 Polarized AO type:                A = (O Ot + (1-O)(1-Ot)) P12
 Orthogonalization method:         Symmetric (Loewdin)
 Localization functional:          L = sum[A,i] <i|n_A|i>^4 -> max

 Localization group 1:  21 orbitals, occupancy  2.000
 Iterative localization: IB/PM,    7 iter; Final gradient 0.13E-08

 Bond order analysis:       [THRPRINT= 0.020]

   CEN ATOM   CEN ATOM     WIBERG.BO      RENORM.BO
     1   O  -   2   C       1.016139       1.015334
     1   O  -   5   C       0.985857       0.978810
     1   O  -   4   H       0.027292       0.016035
     1   O  -  15   H       0.025751       0.015246
     1   O  -   7   C       0.024749       0.012992

     2   C  -   1   O       1.016139       1.015334
     2   C  -   3   H       0.958444       0.976760
     2   C  -  15   H       0.958195       0.952803
     2   C  -   4   H       0.957615       0.950991

     3   H  -   2   C       0.958444       0.976760

     4   H  -   2   C       0.957615       0.950991
     4   H  -   1   O       0.027292       0.016035

     5   C  -   8   C       1.004384       0.998146
     5   C  -   7   C       0.998965       0.975260
     5   C  -   1   O       0.985857       0.978810
     5   C  -   6   H       0.939490       0.936052

     6   H  -   5   C       0.939490       0.936052

     7   C  -   5   C       0.998965       0.975260
     7   C  -  14   H       0.967159       0.987890
     7   C  -  12   H       0.966641       0.990990
     7   C  -  13   H       0.965891       0.986860
     7   C  -   1   O       0.024749       0.012992

     8   C  -   5   C       1.004384       0.998146
     8   C  -   9   H       0.967560       0.991177
     8   C  -  11   H       0.964958       0.986832
     8   C  -  10   H       0.964831       0.988549

     9   H  -   8   C       0.967560       0.991177

    10   H  -   8   C       0.964831       0.988549

    11   H  -   8   C       0.964958       0.986832

    12   H  -   7   C       0.966641       0.990990

    13   H  -   7   C       0.965891       0.986860

    14   H  -   7   C       0.967159       0.987890

    15   H  -   2   C       0.958195       0.952803
    15   H  -   1   O       0.025751       0.015246


 Valency analysis:

   CEN ATOM   TOT.VALENCE
     1   O       2.138065
     2   C       3.909231
     3   H       0.981111
     4   H       0.988115
     5   C       3.953106
     6   H       0.988480
     7   C       3.938705
     8   C       3.936189
     9   H       0.983105
    10   H       0.981509
    11   H       0.982508
    12   H       0.982795
    13   H       0.983055
    14   H       0.984146
    15   H       0.987844

 Total charge composition:

   CEN ATOM         s          p       ELECTRONS ->P.CHARGE
     1   O       3.65095    4.57960      8.23054   -0.23054
     2   C       3.00811    3.24065      6.24876   -0.24876
     3   H       0.86256                 0.86256    0.13744
     4   H       0.89098                 0.89098    0.10902
     5   C       2.96587    3.02665      5.99252    0.00748
     6   H       0.89267                 0.89267    0.10733
     7   C       3.00122    3.39227      6.39349   -0.39349
     8   C       2.99950    3.38471      6.38421   -0.38421
     9   H       0.87002                 0.87002    0.12998
    10   H       0.86402                 0.86402    0.13598
    11   H       0.86774                 0.86774    0.13226
    12   H       0.86883                 0.86883    0.13117
    13   H       0.86983                 0.86983    0.13017
    14   H       0.87409                 0.87409    0.12591
    15   H       0.88975                 0.88975    0.11025

 Total charge composition, AO contributions:

   CEN ATOM SHL      SPHERICAL COMPONENTS
     1   O  1s       1.99727
     1   O  2s       1.65368
     1   O  2p       1.28428    1.40542    1.88989

     2   C  1s       1.99199
     2   C  2s       1.01612
     2   C  2p       0.90663    1.17914    1.15488

     3   H  1s       0.86256

     4   H  1s       0.89098

     5   C  1s       1.99250
     5   C  2s       0.97337
     5   C  2p       1.02825    0.89983    1.09857

     6   H  1s       0.89267

     7   C  1s       1.99140
     7   C  2s       1.00981
     7   C  2p       1.15583    1.12501    1.11143

     8   C  1s       1.99133
     8   C  2s       1.00817
     8   C  2p       1.05087    1.16349    1.17035

     9   H  1s       0.87002

    10   H  1s       0.86402

    11   H  1s       0.86774

    12   H  1s       0.86883

    13   H  1s       0.86983

    14   H  1s       0.87409

    15   H  1s       0.88975

 Summary of localized orbital composition:   [THRPRINT= 0.020]

   ORB  GRP  ORB.ENERGY      CENTERS/CHARGES
     1   1   -19.041472      O  1   2.000
     2   1   -10.212765      C  5   2.000
     3   1   -10.190273      C  2   2.000
     4   1   -10.140759      C  8   2.000
     5   1   -10.139829      C  7   2.000
     6   1    -0.728569      O  1   1.159   C  2   0.833
     7   1    -0.705788      O  1   1.165   C  5   0.817
     8   1    -0.595524      C  5   1.002   C  8   0.983
     9   1    -0.591595      C  7   0.996   C  5   0.996
    10   1    -0.587431      O  1   1.975   (other: 0.025)
    11   1    -0.542265      C  2   1.138   H  3   0.854
    12   1    -0.542222      C  2   1.124   H  4   0.875
    13   1    -0.541572      C  2   1.124   H 15   0.874
    14   1    -0.538344      C  5   1.114   H  6   0.872
    15   1    -0.525318      C  7   1.123   H 14   0.868
    16   1    -0.525137      C  8   1.126   H  9   0.864
    17   1    -0.524941      C  7   1.127   H 12   0.863
    18   1    -0.519520      C  8   1.133   H 10   0.858
    19   1    -0.519339      C  7   1.128   H 13   0.864
    20   1    -0.517800      C  8   1.129   H 11   0.862
    21   1    -0.227983      O  1   1.924   (other: 0.076)

 Localized orbitals saved to record      2100.2  (orbital set 2)


 **********************************************************************************************************************************
 DATASETS  * FILE   NREC   LENGTH (MB)   RECORD NAMES
              1      20       32.79       500      610      700      900      950      970     1000      129      960     1100   
                                          VAR    BASINP    GEOM    SYMINP    ZMAT    AOBASIS   BASIS     P2S    ABASIS      S 
                                         1400     1410     1200     1210     1080     1600     1650     1300     1700     1800   
                                           T        V       H0       H01     AOSYM     SMH    MOLCAS    ERIS     OPER     GRID   

              2       5        3.03       700     1000      520     1800     2100   
                                         GEOM     BASIS   MCVARS    GRID      RKS  

 PROGRAMS   *        TOTAL      IBBA        KS       INT
 CPU TIMES  *         5.86      0.04      5.21      0.47
 REAL TIME  *         6.59 SEC
 DISK USED  *        36.55 MB      
 **********************************************************************************************************************************
 Molecular orbitals read from record     2100.2  Type=RKS/LOCAL(IBO)  
 Occupation numbers read from record     2100.2  Type=RKS/LOCAL(IBO)  
 Orbital energies read from record       2100.2  Type=RKS/LOCAL(IBO)  
 Redundancy group numbers read from rec  2100.2  Type=RKS/LOCAL(IBO)  

 IBBA/STO-3G energy=      0.000000000000

        KS-SCF  
   -230.73917128
 **********************************************************************************************************************************
 Molpro calculation terminated
