
 Primary working directories    : /tmp/sb13343
 Secondary working directories  : /tmp/sb13343
 Wavefunction directory         : /panfs/panasas01/chem/sb13343/wfu/
 Main file repository           : /tmp/sb13343/

 SHA1      : b4a5b34a9e711420743f49e6833241d17c61fb3c
 NAME      : 2099.9.b4a5b34
 ARCHNAME  : linux/x86_64_openmp
 FC        : /cm/shared/languages/GCC-6.1/bin/gfortran
 BLASLIB   : -lblas
 id        : simonbennie

 Nodes     nprocs
 node46-011    1

 Using customized tuning parameters: mindgm=1; mindgv=20; mindgc=4; mindgr=1; noblas=0; minvec=7
 default implementation of scratch files=df  

 memory,500,m
 geomtyp=xyz
 nosym
 noorient
 geometry={
 O          0.25818        0.93788        0.04074
 C          1.63656        1.04230        0.32330
 H          1.89907        2.10041        0.23555
 H          2.26234        0.47024       -0.37847
 C         -0.29581       -0.36510        0.22961
 H          0.07373       -0.77023        1.18842
 C          0.09996       -1.32219       -0.89979
 C         -1.80707       -0.17660        0.31883
 H         -2.30941       -1.13436        0.49338
 H         -2.05917        0.50650        1.13581
 H         -2.19015        0.25071       -0.61475
 H         -0.34617       -2.31074       -0.74107
 H         -0.25158       -0.93408       -1.86253
 H          1.18531       -1.45552       -0.96063
 H          1.86878        0.70360        1.34661
 }
 basis={ default,svp }
 {uks,SOGGA,direct;wf,42,1,0}
 {ibba,bonds=1}

 Variables initialized (895), CPU time= 0.01 sec
 Commands  initialized (725), CPU time= 0.01 sec, 591 directives.
 Default parameters read. Elapsed time= 0.09 sec

 Checking input...
 Passed
1


                                         ***  PROGRAM SYSTEM MOLPRO  ***
                                       Copyright, TTI GmbH Stuttgart, 2015
                                    Version 2099.9 linked May 26 2017 16:03:21


 **********************************************************************************************************************************
 LABEL *                                                                                 
  64 bit serial version                                                                  DATE: 07-Jun-17          TIME: 22:08:36  
 **********************************************************************************************************************************

 SHA1:             b4a5b34a9e711420743f49e6833241d17c61fb3c
 **********************************************************************************************************************************
 SETTING GEOMTYP        =    XYZ

 Variable memory set to  500000000 words,  buffer space 

 ZSYMEL=NOSYM

 SETTING BASIS          =    SVP


 Recomputing integrals since basis changed


 Using spherical harmonics

 Library entry O      S def2-SVP             selected for orbital group  1
 Library entry O      P def2-SVP             selected for orbital group  1
 Library entry O      D def2-SVP             selected for orbital group  1
 Library entry C      S def2-SVP             selected for orbital group  2
 Library entry C      P def2-SVP             selected for orbital group  2
 Library entry C      D def2-SVP             selected for orbital group  2
 Library entry H      S def2-SVP             selected for orbital group  3
 Library entry H      P def2-SVP             selected for orbital group  3


 PROGRAM * SEWARD (Integral evaluation for generally contracted gaussian basis sets)     Author: Roland Lindh, 1990

 Geometry written to block  1 of record 700


 Point group  C1  



 ATOMIC COORDINATES

 NR  ATOM    CHARGE       X              Y              Z

   1  O       8.00    0.487889491    1.772336338    0.076987442
   2  C       6.00    3.092650186    1.969661540    0.610948456
   3  H       1.00    3.588722191    3.969199649    0.445124989
   4  H       1.00    4.275203001    0.888624813   -0.715204646
   5  C       6.00   -0.558999885   -0.689939008    0.433900015
   6  H       1.00    0.139329507   -1.455523753    2.245788321
   7  C       6.00    0.188897023   -2.498576985   -1.700356670
   8  C       6.00   -3.414867388   -0.333725634    0.602501380
   9  H       1.00   -4.364152409   -2.143629727    0.932353075
  10  H       1.00   -3.891267344    0.957146282    2.146369830
  11  H       1.00   -4.138783672    0.473773237   -1.161709135
  12  H       1.00   -0.654166493   -4.366665745   -1.400419339
  13  H       1.00   -0.475417298   -1.765155378   -3.519671599
  14  H       1.00    2.239911273   -2.750534169   -1.815327607
  15  H       1.00    3.531482387    1.329611301    2.544724097

 Bond lengths in Bohr (Angstrom)

  1- 2  2.666238902   1- 5  2.699289504   2- 3  2.066818209   2- 4  2.079844613   2-15  2.083680934
       ( 1.410912866)       ( 1.428402491)       ( 1.093713095)       ( 1.100606371)       ( 1.102636465)

  5- 6  2.087276497   5- 7  2.895785336   5- 8  2.882931422   7-12  2.071345966   7-13  2.071020903
       ( 1.104539155)       ( 1.532383608)       ( 1.525581609)       ( 1.096109081)       ( 1.095937065)

  7-14  2.069628032   8- 9  2.070192508   8-10  2.068051501   8-11  2.070880961
       ( 1.095199989)       ( 1.095498697)       ( 1.094365725)       ( 1.095863011)

 Bond angles

  1- 2- 3  106.85884507   1- 2- 4  112.91125973   1- 2-15  111.64621834   1- 5- 6  108.63888518

  1-5-7  111.84608248   1-5-8  106.21369660   2-1-5  114.82992588   3-2-4  108.37425913

  3- 2-15  108.72850466   4- 2-15  108.20064699   5- 7-12  110.57572754   5- 7-13  110.08520206

  5- 7-14  111.89623115   5- 8- 9  110.82645738   5- 8-10  110.42517473   5- 8-11  110.16013005

  6- 5- 7  108.92239636   6- 5- 8  109.02480146   7- 5- 8  112.09364518   9- 8-10  108.73162751

  9- 8-11  108.44218100  10- 8-11  108.18344616  12- 7-13  108.42317703  12- 7-14  107.55382926

 13- 7-14  108.19151953

 NUCLEAR CHARGE:                   42
 NUMBER OF PRIMITIVE AOS:         195
 NUMBER OF SYMMETRY AOS:          190
 NUMBER OF CONTRACTIONS:          120   ( 120A   )
 NUMBER OF CORE ORBITALS:           5   (   5A   )
 NUMBER OF VALENCE ORBITALS:       30   (  30A   )


 NUCLEAR REPULSION ENERGY  195.74983609


 Eigenvalues of metric

         1 0.241E-02 0.514E-02 0.104E-01 0.150E-01 0.214E-01 0.243E-01 0.289E-01 0.305E-01


 Contracted 2-electron integrals neglected if value below      1.0D-11
 AO integral compression algorithm  1   Integral accuracy      1.0D-11

     97.518 MB (compressed) written to integral file ( 44.4%)


 NUMBER OF SORTED TWO-ELECTRON INTEGRALS:   26357430.     BUFFER LENGTH:  32768
 NUMBER OF SEGMENTS:   2  SEGMENT LENGTH:   15997996      RECORD LENGTH: 524288

 Memory used in sort:      16.56 MW

 SORT1 READ    27501115. AND WROTE    22923365. INTEGRALS IN     67 RECORDS. CPU TIME:     0.33 SEC, REAL TIME:     0.62 SEC
 SORT2 READ    22923365. AND WROTE    26357430. INTEGRALS IN    372 RECORDS. CPU TIME:     0.55 SEC, REAL TIME:     0.71 SEC

 FILE SIZES:   FILE 1:   128.3 MBYTE,  FILE 4:   281.1 MBYTE,   TOTAL:    409.3 MBYTE

 OPERATOR DM      FOR CENTER  0  COORDINATES:    0.000000    0.000000    0.000000


 **********************************************************************************************************************************
 DATASETS  * FILE   NREC   LENGTH (MB)   RECORD NAMES
              1      19      116.03       500      610      700      900      950      970     1000      129      960     1100   
                                          VAR    BASINP    GEOM    SYMINP    ZMAT    AOBASIS   BASIS     P2S    ABASIS      S 
                                         1400     1410     1200     1210     1080     1600     1650     1300     1700   
                                           T        V       H0       H01     AOSYM     SMH    MOLCAS    ERIS     OPER   

 PROGRAMS   *        TOTAL       INT
 CPU TIMES  *         3.74      3.60
 REAL TIME  *         4.74 SEC
 DISK USED  *       409.85 MB      
 **********************************************************************************************************************************

 Density functional group SOGGA=XC-SOGGA
 Functional: XC-SOGGA(via MFM 1.6)                                             Gradient terms: 1
 Use grid at  1800.2

 Functional: XC-SOGGA                  Factor:  1.0000

 Generated new metagrid on record  1800.2 with target accuracy 1.0D-06 and 52852 points in CPU time    1.3
 Computed new grid on record 1800.1 in CPU time    1.5
   99539 words reserved for DFT integration

 PROGRAM * UKS-SCF (Unrestricted Kohn-Sham)     Authors: W. Meyer, H.-J. Werner, P.J. Knowles, 1993

 NUMBER OF ELECTRONS:      21+   21-    SPACE SYMMETRY=1    SPIN SYMMETRY: Singlet 
 CONVERGENCE THRESHOLDS:    1.00E-05 (Density)    1.00E-06 (Energy)
 MAX. NUMBER OF ITERATIONS:       60
 INTERPOLATION TYPE:            DIIS
 INTERPOLATION STEPS:              2 (START)      1 (STEP)
 LEVEL SHIFTS:                 -0.20 (ALPHA)  -0.20 (BETA) 



 Use fine grid record 1800.2 for energy threshold  1.0D-06
 Orbital guess generated from atomic densities. Full valence occupancy:   21

 Molecular orbital dump at record        2200.2

 Initial alpha occupation  21
 Initial beta  occupation  21

 ITERATION    DDIFF          GRAD             ENERGY        2-EL.EN.            DIPOLE MOMENTS         DIIS
    1      0.000D+00      0.000D+00      -231.75935733    630.584427    0.47831   -0.69692    0.26232    0
    2      0.122D-01      0.536D-02      -231.95168819    609.640593    0.16982   -0.30485    0.06737    1
    3      0.399D-02      0.259D-02      -231.99330141    615.436413    0.26454   -0.39911    0.15066    2
    4      0.106D-02      0.309D-03      -231.99417092    614.983814    0.23771   -0.35452    0.12908    3
    5      0.545D-03      0.192D-03      -231.99449362    615.012054    0.24074   -0.36173    0.13067    4
    6      0.473D-03      0.537D-04      -231.99456390    614.948378    0.23716   -0.35203    0.12830    5
    7      0.105D-03      0.179D-04      -231.99456831    614.949411    0.23628   -0.35372    0.12635    6
    8      0.346D-04      0.902D-05      -231.99456915    614.948096    0.23651   -0.35285    0.12605    7
    9      0.140D-04      0.174D-05      -231.99456922    614.946940    0.23638   -0.35275    0.12613    7
   10      0.421D-05      0.598D-06      -231.99456923    614.947995    0.23640   -0.35278    0.12600    7
   11      0.150D-05      0.304D-06      -231.99456923    614.947507    0.23640   -0.35276    0.12599    8

 Final alpha occupancy:  21
 Final beta  occupancy:  21

 !UKS STATE 1.1 Energy               -231.994569226417
 Nuclear energy                       195.74983609
 One-electron energy                 -702.77992909
 Two-electron energy                  307.47375365
 Density functional                   -32.43822988     XC-SOGGA=-32.43822988
 Virial quotient                       -1.00733077
 !UKS STATE 1.1 Dipole moment           0.23639836    -0.35275829     0.12598718
 Dipole moment /Debye                   0.60082535    -0.89656340     0.32020649

 Orbital energies for positive spin:

         1.1          2.1          3.1          4.1          5.1          6.1          7.1          8.1          9.1         10.1
    -18.671371    -9.875349    -9.863386    -9.818142    -9.815365    -0.921402    -0.695256    -0.611043    -0.591439    -0.503750

        11.1         12.1         13.1         14.1         15.1         16.1         17.1         18.1         19.1         20.1
     -0.439806    -0.406783    -0.397427    -0.367698    -0.341443    -0.333511    -0.324259    -0.300176    -0.291784    -0.252139

        21.1         22.1         23.1
     -0.196882     0.039805     0.070317

 Orbital energies for negative spin:

         1.1          2.1          3.1          4.1          5.1          6.1          7.1          8.1          9.1         10.1
    -18.671371    -9.875349    -9.863386    -9.818142    -9.815365    -0.921402    -0.695256    -0.611043    -0.591439    -0.503750

        11.1         12.1         13.1         14.1         15.1         16.1         17.1         18.1         19.1         20.1
     -0.439806    -0.406783    -0.397427    -0.367698    -0.341443    -0.333511    -0.324259    -0.300176    -0.291784    -0.252139

        21.1         22.1         23.1
     -0.196882     0.039805     0.070317

 HOMO     21.1    -0.196882 =      -5.3574eV
 LUMO     22.1     0.039805 =       1.0831eV
 LUMO-HOMO         0.236687 =       6.4406eV

 EXPECTATION VALUE OF S**2:            -0.00000000

 Natural orbitals saved to record    2200.2 (Orbital set 3)

 Orbital spaces for UNO-CAS (Min. occupation: 0.020  Max. occupation: 1.980):

 Closed:       21
 Active:        0


 **********************************************************************************************************************************
 DATASETS  * FILE   NREC   LENGTH (MB)   RECORD NAMES
              1      20      117.72       500      610      700      900      950      970     1000      129      960     1100   
                                          VAR    BASINP    GEOM    SYMINP    ZMAT    AOBASIS   BASIS     P2S    ABASIS      S 
                                         1400     1410     1200     1210     1080     1600     1650     1300     1700     1800   
                                           T        V       H0       H01     AOSYM     SMH    MOLCAS    ERIS     OPER     GRID   

              2       5        3.59       700     1000      520     1800     2200   
                                         GEOM     BASIS   MCVARS    GRID      UKS  

 PROGRAMS   *        TOTAL       UKS       INT
 CPU TIMES  *        26.28     22.53      3.60
 REAL TIME  *        28.19 SEC
 DISK USED  *       409.85 MB      
 **********************************************************************************************************************************


 PROGRAM * Intrinsic Basis Bonding Analysis (IBBA)          Author: G. Knizia

 Molecular orbitals read from record     2200.2  Type=UKS/ALPHA (state 1.1)
 Fock matrix read from record            2200.2  Type=UKS/TOTAL (state 1.1)
 Orbital energies read from record       2200.2  Type=UKS/ALPHA (state 1.1)
 Density matrix read from record         2200.2  Type=UKS/CHARGE (state 1.1)

 Number of core orbitals:           5 (   5 )
 Number of closed-shell orbitals:  16 (  16 )

 Basis set MINAO-AUTO-PP generated.      Number of basis functions:   35 

 Polarized AO type:                A = (O Ot + (1-O)(1-Ot)) P12
 Orthogonalization method:         Symmetric (Loewdin)
 Localization functional:          L = sum[A,i] <i|n_A|i>^4 -> max

 Localization group 1:  21 orbitals, occupancy  2.000
 Iterative localization: IB/PM,    7 iter; Final gradient 0.28E-08

 Bond order analysis:       [THRPRINT= 0.020]

   CEN ATOM   CEN ATOM     WIBERG.BO      RENORM.BO
     1   O  -   2   C       0.997954       1.018423
     1   O  -   5   C       0.952515       0.955412
     1   O  -   4   H       0.037386       0.022388
     1   O  -  15   H       0.035555       0.021466
     1   O  -   7   C       0.034288       0.017935
     1   O  -   6   H       0.027498       0.016653

     2   C  -   1   O       0.997954       1.018423
     2   C  -   3   H       0.952524       0.975797
     2   C  -  15   H       0.943493       0.931840
     2   C  -   4   H       0.943385       0.930672

     3   H  -   2   C       0.952524       0.975797

     4   H  -   2   C       0.943385       0.930672
     4   H  -   1   O       0.037386       0.022388

     5   C  -   8   C       1.014116       1.005199
     5   C  -   7   C       1.005505       0.977253
     5   C  -   1   O       0.952515       0.955412
     5   C  -   6   H       0.917919       0.910589

     6   H  -   5   C       0.917919       0.910589
     6   H  -   1   O       0.027498       0.016653

     7   C  -   5   C       1.005505       0.977253
     7   C  -  14   H       0.956785       0.981310
     7   C  -  12   H       0.954193       0.984227
     7   C  -  13   H       0.953967       0.976726
     7   C  -   1   O       0.034288       0.017935

     8   C  -   5   C       1.014116       1.005199
     8   C  -   9   H       0.957108       0.986095
     8   C  -  10   H       0.954546       0.981912
     8   C  -  11   H       0.953174       0.976855

     9   H  -   8   C       0.957108       0.986095

    10   H  -   8   C       0.954546       0.981912

    11   H  -   8   C       0.953174       0.976855

    12   H  -   7   C       0.954193       0.984227

    13   H  -   7   C       0.953967       0.976726

    14   H  -   7   C       0.956785       0.981310

    15   H  -   2   C       0.943493       0.931840
    15   H  -   1   O       0.035555       0.021466


 Valency analysis:

   CEN ATOM   TOT.VALENCE
     1   O       2.146500
     2   C       3.861621
     3   H       0.975153
     4   H       0.985989
     5   C       3.920308
     6   H       0.988016
     7   C       3.930098
     8   C       3.928640
     9   H       0.979661
    10   H       0.977202
    11   H       0.978623
    12   H       0.978744
    13   H       0.978872
    14   H       0.980403
    15   H       0.985909

 Total charge composition:

   CEN ATOM         s          p       ELECTRONS ->P.CHARGE
     1   O       3.59516    4.76614      8.36130   -0.36130
     2   C       3.01877    3.20682      6.22559   -0.22559
     3   H       0.84237                 0.84237    0.15763
     4   H       0.88163                 0.88163    0.11837
     5   C       2.95228    2.95856      5.91084    0.08916
     6   H       0.89053                 0.89053    0.10947
     7   C       3.02576    3.42043      6.44619   -0.44619
     8   C       3.02344    3.40777      6.43122   -0.43122
     9   H       0.85738                 0.85738    0.14262
    10   H       0.84901                 0.84901    0.15099
    11   H       0.85379                 0.85379    0.14621
    12   H       0.85420                 0.85420    0.14580
    13   H       0.85465                 0.85465    0.14535
    14   H       0.86001                 0.86001    0.13999
    15   H       0.88129                 0.88129    0.11871

 Total charge composition, AO contributions:

   CEN ATOM SHL      SPHERICAL COMPONENTS
     1   O  1s       1.99733
     1   O  2s       1.59783
     1   O  2p       1.37971    1.51260    1.87382

     2   C  1s       1.99220
     2   C  2s       1.02658
     2   C  2p       0.84691    1.19487    1.16504

     3   H  1s       0.84237

     4   H  1s       0.88163

     5   C  1s       1.99279
     5   C  2s       0.95948
     5   C  2p       1.01517    0.84588    1.09750

     6   H  1s       0.89053

     7   C  1s       1.99159
     7   C  2s       1.03416
     7   C  2p       1.16777    1.13294    1.11972

     8   C  1s       1.99152
     8   C  2s       1.03192
     8   C  2p       1.05489    1.17087    1.18201

     9   H  1s       0.85738

    10   H  1s       0.84901

    11   H  1s       0.85379

    12   H  1s       0.85420

    13   H  1s       0.85465

    14   H  1s       0.86001

    15   H  1s       0.88129

 Summary of localized orbital composition:   [THRPRINT= 0.020]

   ORB  GRP  ORB.ENERGY      CENTERS/CHARGES
     1   1   -18.537516      O  1   2.000
     2   1    -9.781039      C  5   2.000
     3   1    -9.757967      C  2   2.000
     4   1    -9.708017      C  7   2.000
     5   1    -9.704492      C  8   2.000
     6   1    -0.690096      O  1   1.241   C  2   0.750
     7   1    -0.670702      O  1   1.259   C  5   0.722
     8   1    -0.516581      C  5   0.994   C  8   0.991
     9   1    -0.514465      C  7   1.006   C  5   0.985
    10   1    -0.464289      O  1   1.958   (other: 0.042)
    11   1    -0.456254      C  2   1.139   H  4   0.859
    12   1    -0.456047      C  2   1.138   H 15   0.859
    13   1    -0.455231      C  2   1.158   H  3   0.834
    14   1    -0.451010      C  5   1.116   H  6   0.863   (other: 0.021)
    15   1    -0.440317      C  7   1.137   H 12   0.845
    16   1    -0.438210      C  7   1.136   H 14   0.851
    17   1    -0.437866      C  8   1.134   H  9   0.849
    18   1    -0.433836      C  7   1.142   H 13   0.846
    19   1    -0.431403      C  8   1.142   H 11   0.845
    20   1    -0.431127      C  8   1.147   H 10   0.840
    21   1    -0.241979      O  1   1.897   C  5   0.021   C  2   0.020   (other: 0.061)

 Localized orbitals saved to record      2200.2  (orbital set 4)


 **********************************************************************************************************************************
 DATASETS  * FILE   NREC   LENGTH (MB)   RECORD NAMES
              1      20      117.72       500      610      700      900      950      970     1000      129      960     1100   
                                          VAR    BASINP    GEOM    SYMINP    ZMAT    AOBASIS   BASIS     P2S    ABASIS      S 
                                         1400     1410     1200     1210     1080     1600     1650     1300     1700     1800   
                                           T        V       H0       H01     AOSYM     SMH    MOLCAS    ERIS     OPER     GRID   

              2       5        3.71       700     1000      520     1800     2200   
                                         GEOM     BASIS   MCVARS    GRID      UKS  

 PROGRAMS   *        TOTAL      IBBA       UKS       INT
 CPU TIMES  *        26.33      0.05     22.53      3.60
 REAL TIME  *        28.36 SEC
 DISK USED  *       409.85 MB      
 **********************************************************************************************************************************
 Molecular orbitals read from record     2200.2  Type=UKS/LOCAL(IBO)  
 Occupation numbers read from record     2200.2  Type=UKS/LOCAL(IBO)  
 Orbital energies read from record       2200.2  Type=UKS/LOCAL(IBO)  
 Redundancy group numbers read from rec  2200.2  Type=UKS/BETA (state 1.1)

 IBBA/SVP energy=      0.000000000000

        UKS-SCF 
   -231.99456923
 **********************************************************************************************************************************
 Molpro calculation terminated
