
 Primary working directories    : /tmp/sb13343
 Secondary working directories  : /tmp/sb13343
 Wavefunction directory         : /panfs/panasas01/chem/sb13343/wfu/
 Main file repository           : /tmp/sb13343/

 SHA1      : b4a5b34a9e711420743f49e6833241d17c61fb3c
 NAME      : 2099.9.b4a5b34
 ARCHNAME  : linux/x86_64_openmp
 FC        : /cm/shared/languages/GCC-6.1/bin/gfortran
 BLASLIB   : -lblas
 id        : simonbennie

 Nodes     nprocs
 node32-020    1

 Using customized tuning parameters: mindgm=1; mindgv=20; mindgc=4; mindgr=1; noblas=0; minvec=7
 default implementation of scratch files=df  

 memory,500,m
 geomtyp=xyz
 nosym
 noorient
 geometry={
 O          0.25818        0.93788        0.04074
 C          1.63656        1.04230        0.32330
 H          1.89907        2.10041        0.23555
 H          2.26234        0.47024       -0.37847
 C         -0.29581       -0.36510        0.22961
 H          0.07373       -0.77023        1.18842
 C          0.09996       -1.32219       -0.89979
 C         -1.80707       -0.17660        0.31883
 H         -2.30941       -1.13436        0.49338
 H         -2.05917        0.50650        1.13581
 H         -2.19015        0.25071       -0.61475
 H         -0.34617       -2.31074       -0.74107
 H         -0.25158       -0.93408       -1.86253
 H          1.18531       -1.45552       -0.96063
 H          1.86878        0.70360        1.34661
 }
 basis={ default,svp }
 {uks,M08-HX,direct;wf,42,1,0}
 {ibba,bonds=1}

 Variables initialized (895), CPU time= 0.01 sec
 Commands  initialized (725), CPU time= 0.02 sec, 591 directives.
 Default parameters read. Elapsed time= 0.09 sec

 Checking input...
 Passed
1


                                         ***  PROGRAM SYSTEM MOLPRO  ***
                                       Copyright, TTI GmbH Stuttgart, 2015
                                    Version 2099.9 linked May 26 2017 16:03:21


 **********************************************************************************************************************************
 LABEL *                                                                                 
  64 bit serial version                                                                  DATE: 07-Jun-17          TIME: 22:02:43  
 **********************************************************************************************************************************

 SHA1:             b4a5b34a9e711420743f49e6833241d17c61fb3c
 **********************************************************************************************************************************
 SETTING GEOMTYP        =    XYZ

 Variable memory set to  500000000 words,  buffer space 

 ZSYMEL=NOSYM

 SETTING BASIS          =    SVP


 Recomputing integrals since basis changed


 Using spherical harmonics

 Library entry O      S def2-SVP             selected for orbital group  1
 Library entry O      P def2-SVP             selected for orbital group  1
 Library entry O      D def2-SVP             selected for orbital group  1
 Library entry C      S def2-SVP             selected for orbital group  2
 Library entry C      P def2-SVP             selected for orbital group  2
 Library entry C      D def2-SVP             selected for orbital group  2
 Library entry H      S def2-SVP             selected for orbital group  3
 Library entry H      P def2-SVP             selected for orbital group  3


 PROGRAM * SEWARD (Integral evaluation for generally contracted gaussian basis sets)     Author: Roland Lindh, 1990

 Geometry written to block  1 of record 700


 Point group  C1  



 ATOMIC COORDINATES

 NR  ATOM    CHARGE       X              Y              Z

   1  O       8.00    0.487889491    1.772336338    0.076987442
   2  C       6.00    3.092650186    1.969661540    0.610948456
   3  H       1.00    3.588722191    3.969199649    0.445124989
   4  H       1.00    4.275203001    0.888624813   -0.715204646
   5  C       6.00   -0.558999885   -0.689939008    0.433900015
   6  H       1.00    0.139329507   -1.455523753    2.245788321
   7  C       6.00    0.188897023   -2.498576985   -1.700356670
   8  C       6.00   -3.414867388   -0.333725634    0.602501380
   9  H       1.00   -4.364152409   -2.143629727    0.932353075
  10  H       1.00   -3.891267344    0.957146282    2.146369830
  11  H       1.00   -4.138783672    0.473773237   -1.161709135
  12  H       1.00   -0.654166493   -4.366665745   -1.400419339
  13  H       1.00   -0.475417298   -1.765155378   -3.519671599
  14  H       1.00    2.239911273   -2.750534169   -1.815327607
  15  H       1.00    3.531482387    1.329611301    2.544724097

 Bond lengths in Bohr (Angstrom)

  1- 2  2.666238902   1- 5  2.699289504   2- 3  2.066818209   2- 4  2.079844613   2-15  2.083680934
       ( 1.410912866)       ( 1.428402491)       ( 1.093713095)       ( 1.100606371)       ( 1.102636465)

  5- 6  2.087276497   5- 7  2.895785336   5- 8  2.882931422   7-12  2.071345966   7-13  2.071020903
       ( 1.104539155)       ( 1.532383608)       ( 1.525581609)       ( 1.096109081)       ( 1.095937065)

  7-14  2.069628032   8- 9  2.070192508   8-10  2.068051501   8-11  2.070880961
       ( 1.095199989)       ( 1.095498697)       ( 1.094365725)       ( 1.095863011)

 Bond angles

  1- 2- 3  106.85884507   1- 2- 4  112.91125973   1- 2-15  111.64621834   1- 5- 6  108.63888518

  1-5-7  111.84608248   1-5-8  106.21369660   2-1-5  114.82992588   3-2-4  108.37425913

  3- 2-15  108.72850466   4- 2-15  108.20064699   5- 7-12  110.57572754   5- 7-13  110.08520206

  5- 7-14  111.89623115   5- 8- 9  110.82645738   5- 8-10  110.42517473   5- 8-11  110.16013005

  6- 5- 7  108.92239636   6- 5- 8  109.02480146   7- 5- 8  112.09364518   9- 8-10  108.73162751

  9- 8-11  108.44218100  10- 8-11  108.18344616  12- 7-13  108.42317703  12- 7-14  107.55382926

 13- 7-14  108.19151953

 NUCLEAR CHARGE:                   42
 NUMBER OF PRIMITIVE AOS:         195
 NUMBER OF SYMMETRY AOS:          190
 NUMBER OF CONTRACTIONS:          120   ( 120A   )
 NUMBER OF CORE ORBITALS:           5   (   5A   )
 NUMBER OF VALENCE ORBITALS:       30   (  30A   )


 NUCLEAR REPULSION ENERGY  195.74983609


 Eigenvalues of metric

         1 0.241E-02 0.514E-02 0.104E-01 0.150E-01 0.214E-01 0.243E-01 0.289E-01 0.305E-01


 Contracted 2-electron integrals neglected if value below      1.0D-11
 AO integral compression algorithm  1   Integral accuracy      1.0D-11

     97.518 MB (compressed) written to integral file ( 44.4%)


 NUMBER OF SORTED TWO-ELECTRON INTEGRALS:   26357430.     BUFFER LENGTH:  32768
 NUMBER OF SEGMENTS:   2  SEGMENT LENGTH:   15997996      RECORD LENGTH: 524288

 Memory used in sort:      16.56 MW

 SORT1 READ    27501115. AND WROTE    22923365. INTEGRALS IN     67 RECORDS. CPU TIME:     0.33 SEC, REAL TIME:     0.69 SEC
 SORT2 READ    22923365. AND WROTE    26357430. INTEGRALS IN    372 RECORDS. CPU TIME:     0.61 SEC, REAL TIME:     3.78 SEC

 FILE SIZES:   FILE 1:   128.3 MBYTE,  FILE 4:   281.1 MBYTE,   TOTAL:    409.3 MBYTE

 OPERATOR DM      FOR CENTER  0  COORDINATES:    0.000000    0.000000    0.000000


 **********************************************************************************************************************************
 DATASETS  * FILE   NREC   LENGTH (MB)   RECORD NAMES
              1      19      116.03       500      610      700      900      950      970     1000      129      960     1100   
                                          VAR    BASINP    GEOM    SYMINP    ZMAT    AOBASIS   BASIS     P2S    ABASIS      S 
                                         1400     1410     1200     1210     1080     1600     1650     1300     1700   
                                           T        V       H0       H01     AOSYM     SMH    MOLCAS    ERIS     OPER   

 PROGRAMS   *        TOTAL       INT
 CPU TIMES  *         3.94      3.79
 REAL TIME  *         8.11 SEC
 DISK USED  *       409.85 MB      
 **********************************************************************************************************************************

 Density functional group M08-HX=XC-M08-HX
 Functional: XC-M08-HX(via MFM 1.6)                                            Gradient terms: 1
 Use grid at  1800.2


 Exact exchange will be calculated, factor:  0.5223

 Functional: XC-M08-HX                 Factor:  1.0000

 Generated new metagrid on record  1800.2 with target accuracy 1.0D-06 and 52852 points in CPU time    1.4
 Computed new grid on record 1800.1 in CPU time    1.6
   99539 words reserved for DFT integration

 PROGRAM * UKS-SCF (Unrestricted Kohn-Sham)     Authors: W. Meyer, H.-J. Werner, P.J. Knowles, 1993

 NUMBER OF ELECTRONS:      21+   21-    SPACE SYMMETRY=1    SPIN SYMMETRY: Singlet 
 CONVERGENCE THRESHOLDS:    1.00E-05 (Density)    1.00E-06 (Energy)
 MAX. NUMBER OF ITERATIONS:       60
 INTERPOLATION TYPE:            DIIS
 INTERPOLATION STEPS:              2 (START)      1 (STEP)
 LEVEL SHIFTS:                 -0.20 (ALPHA)  -0.20 (BETA) 



 Use fine grid record 1800.2 for energy threshold  1.0D-06
 Orbital guess generated from atomic densities. Full valence occupancy:   21

 Molecular orbital dump at record        2200.2

 Initial alpha occupation  21
 Initial beta  occupation  21

 ITERATION    DDIFF          GRAD             ENERGY        2-EL.EN.            DIPOLE MOMENTS         DIIS
    1      0.000D+00      0.000D+00      -233.33435840    587.993539    0.43642   -0.70308    0.24429    0
    2      0.589D-02      0.306D-02      -233.40110309    579.628612    0.23087   -0.40670    0.10802    1
    3      0.158D-02      0.104D-02      -233.40745357    581.179816    0.27525   -0.44181    0.15116    2
    4      0.788D-03      0.279D-03      -233.40843099    580.945934    0.26417   -0.40940    0.14431    3
    5      0.528D-03      0.133D-03      -233.40870550    580.914426    0.26558   -0.40614    0.14455    4
    6      0.228D-03      0.319D-04      -233.40872834    580.894689    0.26643   -0.40276    0.14354    5
    7      0.542D-04      0.688D-05      -233.40872949    580.893627    0.26661   -0.40269    0.14278    6
    8      0.126D-04      0.229D-05      -233.40872959    580.892863    0.26677   -0.40246    0.14268    7
    9      0.523D-05      0.797D-06      -233.40872960    580.893081    0.26677   -0.40243    0.14263    7
   10      0.152D-05      0.211D-06      -233.40872960    580.893176    0.26678   -0.40243    0.14260    7

 Final alpha occupancy:  21
 Final beta  occupancy:  21

 !UKS STATE 1.1 Energy               -233.408729603221
 Nuclear energy                       195.74983609
 One-electron energy                 -702.65715489
 Two-electron energy                  290.44658785
 Density functional                   -16.94799866     XC-M08-HX=-16.94799866
 Virial quotient                       -1.01216276
 !UKS STATE 1.1 Dipole moment           0.26677811    -0.40242865     0.14259858
 Dipole moment /Debye                   0.67803792    -1.02280462     0.36242570

 Orbital energies for positive spin:

         1.1          2.1          3.1          4.1          5.1          6.1          7.1          8.1          9.1         10.1
    -19.616370   -10.592208   -10.581707   -10.533040   -10.529371    -1.129789    -0.874846    -0.778760    -0.755109    -0.654230

        11.1         12.1         13.1         14.1         15.1         16.1         17.1         18.1         19.1         20.1
     -0.567726    -0.535572    -0.530008    -0.492512    -0.460249    -0.452642    -0.441117    -0.414751    -0.406987    -0.372776

        21.1         22.1         23.1
     -0.322278     0.071788     0.100499

 Orbital energies for negative spin:

         1.1          2.1          3.1          4.1          5.1          6.1          7.1          8.1          9.1         10.1
    -19.616370   -10.592208   -10.581707   -10.533040   -10.529371    -1.129789    -0.874846    -0.778760    -0.755109    -0.654230

        11.1         12.1         13.1         14.1         15.1         16.1         17.1         18.1         19.1         20.1
     -0.567726    -0.535572    -0.530008    -0.492512    -0.460249    -0.452642    -0.441117    -0.414751    -0.406987    -0.372776

        21.1         22.1         23.1
     -0.322278     0.071788     0.100499

 HOMO     21.1    -0.322278 =      -8.7696eV
 LUMO     22.1     0.071788 =       1.9535eV
 LUMO-HOMO         0.394067 =      10.7231eV

 EXPECTATION VALUE OF S**2:            -0.00000000

 Natural orbitals saved to record    2200.2 (Orbital set 3)

 Orbital spaces for UNO-CAS (Min. occupation: 0.020  Max. occupation: 1.980):

 Closed:       21
 Active:        0


 **********************************************************************************************************************************
 DATASETS  * FILE   NREC   LENGTH (MB)   RECORD NAMES
              1      20      117.72       500      610      700      900      950      970     1000      129      960     1100   
                                          VAR    BASINP    GEOM    SYMINP    ZMAT    AOBASIS   BASIS     P2S    ABASIS      S 
                                         1400     1410     1200     1210     1080     1600     1650     1300     1700     1800   
                                           T        V       H0       H01     AOSYM     SMH    MOLCAS    ERIS     OPER     GRID   

              2       5        3.59       700     1000      520     1800     2200   
                                         GEOM     BASIS   MCVARS    GRID      UKS  

 PROGRAMS   *        TOTAL       UKS       INT
 CPU TIMES  *        63.73     59.79      3.79
 REAL TIME  *        70.09 SEC
 DISK USED  *       409.85 MB      
 **********************************************************************************************************************************


 PROGRAM * Intrinsic Basis Bonding Analysis (IBBA)          Author: G. Knizia

 Molecular orbitals read from record     2200.2  Type=UKS/ALPHA (state 1.1)
 Fock matrix read from record            2200.2  Type=UKS/TOTAL (state 1.1)
 Orbital energies read from record       2200.2  Type=UKS/ALPHA (state 1.1)
 Density matrix read from record         2200.2  Type=UKS/CHARGE (state 1.1)

 Number of core orbitals:           5 (   5 )
 Number of closed-shell orbitals:  16 (  16 )

 Basis set MINAO-AUTO-PP generated.      Number of basis functions:   35 

 Polarized AO type:                A = (O Ot + (1-O)(1-Ot)) P12
 Orthogonalization method:         Symmetric (Loewdin)
 Localization functional:          L = sum[A,i] <i|n_A|i>^4 -> max

 Localization group 1:  21 orbitals, occupancy  2.000
 Iterative localization: IB/PM,    7 iter; Final gradient 0.31E-08

 Bond order analysis:       [THRPRINT= 0.020]

   CEN ATOM   CEN ATOM     WIBERG.BO      RENORM.BO
     1   O  -   2   C       0.988738       1.017219
     1   O  -   5   C       0.947715       0.965842
     1   O  -   4   H       0.031738       0.018684
     1   O  -  15   H       0.030177       0.017956
     1   O  -   7   C       0.027718       0.014433
     1   O  -   6   H       0.024096       0.014331

     2   C  -   1   O       0.988738       1.017219
     2   C  -   3   H       0.958622       0.978412
     2   C  -   4   H       0.952415       0.941612
     2   C  -  15   H       0.952248       0.942811

     3   H  -   2   C       0.958622       0.978412

     4   H  -   2   C       0.952415       0.941612
     4   H  -   1   O       0.031738       0.018684

     5   C  -   8   C       1.011908       1.005230
     5   C  -   7   C       1.004674       0.981872
     5   C  -   1   O       0.947715       0.965842
     5   C  -   6   H       0.929666       0.921789

     6   H  -   5   C       0.929666       0.921789
     6   H  -   1   O       0.024096       0.014331

     7   C  -   5   C       1.004674       0.981872
     7   C  -  14   H       0.963874       0.985036
     7   C  -  12   H       0.961942       0.987799
     7   C  -  13   H       0.960295       0.980852
     7   C  -   1   O       0.027718       0.014433

     8   C  -   5   C       1.011908       1.005230
     8   C  -   9   H       0.964491       0.988278
     8   C  -  10   H       0.961051       0.985101
     8   C  -  11   H       0.959695       0.980902

     9   H  -   8   C       0.964491       0.988278

    10   H  -   8   C       0.961051       0.985101

    11   H  -   8   C       0.959695       0.980902

    12   H  -   7   C       0.961942       0.987799

    13   H  -   7   C       0.960295       0.980852

    14   H  -   7   C       0.963874       0.985036

    15   H  -   2   C       0.952248       0.942811
    15   H  -   1   O       0.030177       0.017956


 Valency analysis:

   CEN ATOM   TOT.VALENCE
     1   O       2.099169
     2   C       3.871030
     3   H       0.978094
     4   H       0.987775
     5   C       3.918940
     6   H       0.990161
     7   C       3.938644
     8   C       3.937379
     9   H       0.982986
    10   H       0.980045
    11   H       0.981192
    12   H       0.981709
    13   H       0.981355
    14   H       0.983220
    15   H       0.987428

 Total charge composition:

   CEN ATOM         s          p       ELECTRONS ->P.CHARGE
     1   O       3.58344    4.80895      8.39239   -0.39239
     2   C       3.01473    3.17230      6.18703   -0.18703
     3   H       0.85199                 0.85199    0.14801
     4   H       0.88943                 0.88943    0.11057
     5   C       2.95026    2.93360      5.88386    0.11614
     6   H       0.90081                 0.90081    0.09919
     7   C       3.02114    3.39482      6.41596   -0.41596
     8   C       3.01922    3.38159      6.40081   -0.40081
     9   H       0.86956                 0.86956    0.13044
    10   H       0.85874                 0.85874    0.14126
    11   H       0.86286                 0.86286    0.13714
    12   H       0.86475                 0.86475    0.13525
    13   H       0.86346                 0.86346    0.13654
    14   H       0.87046                 0.87046    0.12954
    15   H       0.88788                 0.88788    0.11212

 Total charge composition, AO contributions:

   CEN ATOM SHL      SPHERICAL COMPONENTS
     1   O  1s       1.99713
     1   O  2s       1.58631
     1   O  2p       1.38971    1.52730    1.89194

     2   C  1s       1.99146
     2   C  2s       1.02327
     2   C  2p       0.84045    1.18185    1.14999

     3   H  1s       0.85199

     4   H  1s       0.88943

     5   C  1s       1.99205
     5   C  2s       0.95821
     5   C  2p       1.01091    0.83661    1.08608

     6   H  1s       0.90081

     7   C  1s       1.99081
     7   C  2s       1.03033
     7   C  2p       1.15636    1.12558    1.11289

     8   C  1s       1.99074
     8   C  2s       1.02848
     8   C  2p       1.05056    1.16008    1.17095

     9   H  1s       0.86956

    10   H  1s       0.85874

    11   H  1s       0.86286

    12   H  1s       0.86475

    13   H  1s       0.86346

    14   H  1s       0.87046

    15   H  1s       0.88788

 Summary of localized orbital composition:   [THRPRINT= 0.020]

   ORB  GRP  ORB.ENERGY      CENTERS/CHARGES
     1   1   -19.469855      O  1   2.000
     2   1   -10.491033      C  5   2.000
     3   1   -10.468806      C  2   2.000
     4   1   -10.415055      C  7   2.000
     5   1   -10.410589      C  8   2.000
     6   1    -0.851757      O  1   1.244   C  2   0.748
     7   1    -0.833285      O  1   1.264   C  5   0.719
     8   1    -0.658691      C  5   0.996   C  8   0.991
     9   1    -0.656632      C  7   1.007   C  5   0.985
    10   1    -0.627502      O  1   1.964   (other: 0.036)
    11   1    -0.592685      C  2   1.128   H  4   0.871
    12   1    -0.592601      C  2   1.128   H 15   0.870
    13   1    -0.589861      C  2   1.149   H  3   0.845
    14   1    -0.587531      C  5   1.105   H  6   0.877
    15   1    -0.573889      C  7   1.128   H 12   0.857
    16   1    -0.571937      C  7   1.126   H 14   0.863
    17   1    -0.570547      C  8   1.124   H  9   0.863
    18   1    -0.567547      C  7   1.134   H 13   0.856
    19   1    -0.564249      C  8   1.134   H 11   0.856
    20   1    -0.563942      C  8   1.138   H 10   0.852
    21   1    -0.384012      O  1   1.916   (other: 0.084)

 Localized orbitals saved to record      2200.2  (orbital set 4)


 **********************************************************************************************************************************
 DATASETS  * FILE   NREC   LENGTH (MB)   RECORD NAMES
              1      20      117.72       500      610      700      900      950      970     1000      129      960     1100   
                                          VAR    BASINP    GEOM    SYMINP    ZMAT    AOBASIS   BASIS     P2S    ABASIS      S 
                                         1400     1410     1200     1210     1080     1600     1650     1300     1700     1800   
                                           T        V       H0       H01     AOSYM     SMH    MOLCAS    ERIS     OPER     GRID   

              2       5        3.71       700     1000      520     1800     2200   
                                         GEOM     BASIS   MCVARS    GRID      UKS  

 PROGRAMS   *        TOTAL      IBBA       UKS       INT
 CPU TIMES  *        63.78      0.04     59.79      3.79
 REAL TIME  *        70.26 SEC
 DISK USED  *       409.85 MB      
 **********************************************************************************************************************************
 Molecular orbitals read from record     2200.2  Type=UKS/LOCAL(IBO)  
 Occupation numbers read from record     2200.2  Type=UKS/LOCAL(IBO)  
 Orbital energies read from record       2200.2  Type=UKS/LOCAL(IBO)  
 Redundancy group numbers read from rec  2200.2  Type=UKS/BETA (state 1.1)

 IBBA/SVP energy=      0.000000000000

        UKS-SCF 
   -233.40872960
 **********************************************************************************************************************************
 Molpro calculation terminated
