
 Primary working directories    : /tmp/sb13343
 Secondary working directories  : /tmp/sb13343
 Wavefunction directory         : /panfs/panasas01/chem/sb13343/wfu/
 Main file repository           : /tmp/sb13343/

 SHA1      : b4a5b34a9e711420743f49e6833241d17c61fb3c
 NAME      : 2099.9.b4a5b34
 ARCHNAME  : linux/x86_64_openmp
 FC        : /cm/shared/languages/GCC-6.1/bin/gfortran
 BLASLIB   : -lblas
 id        : simonbennie

 Nodes     nprocs
 node36-006    1

 Using customized tuning parameters: mindgm=1; mindgv=20; mindgc=4; mindgr=1; noblas=0; minvec=7
 default implementation of scratch files=df  

 memory,500,m
 geomtyp=xyz
 nosym
 noorient
 geometry={
 C          0.00000        0.00000        0.00000
 H          0.00000        0.00000        1.10056
 C          1.46209        0.00000       -0.46855
 C         -0.73105       -1.26621       -0.46855
 C         -0.73105        1.26621       -0.46855
 H          1.52118        0.00000       -1.56505
 H         -0.76059       -1.31738       -1.56505
 H         -0.76059        1.31738       -1.56505
 H          1.99755        0.88622       -0.10723
 H          1.99755       -0.88622       -0.10723
 H         -0.23129       -2.17304       -0.10723
 H         -1.76626       -1.28682       -0.10723
 H         -1.76626        1.28682       -0.10723
 H         -0.23129        2.17304       -0.10723
 }
 basis={ default,svp }
 {uks,M11-L,direct;wf,34,1,0}
 {ibba,bonds=1}

 Variables initialized (895), CPU time= 0.00 sec
 Commands  initialized (725), CPU time= 0.02 sec, 591 directives.
 Default parameters read. Elapsed time= 4.73 sec

 Checking input...
 Passed
1


                                         ***  PROGRAM SYSTEM MOLPRO  ***
                                       Copyright, TTI GmbH Stuttgart, 2015
                                    Version 2099.9 linked May 26 2017 16:03:21


 **********************************************************************************************************************************
 LABEL *                                                                                 
  64 bit serial version                                                                  DATE: 07-Jun-17          TIME: 20:15:33  
 **********************************************************************************************************************************

 SHA1:             b4a5b34a9e711420743f49e6833241d17c61fb3c
 **********************************************************************************************************************************
 SETTING GEOMTYP        =    XYZ

 Variable memory set to  500000000 words,  buffer space 

 ZSYMEL=NOSYM

 SETTING BASIS          =    SVP


 Recomputing integrals since basis changed


 Using spherical harmonics

 Library entry C      S def2-SVP             selected for orbital group  1
 Library entry C      P def2-SVP             selected for orbital group  1
 Library entry C      D def2-SVP             selected for orbital group  1
 Library entry H      S def2-SVP             selected for orbital group  2
 Library entry H      P def2-SVP             selected for orbital group  2


 PROGRAM * SEWARD (Integral evaluation for generally contracted gaussian basis sets)     Author: Roland Lindh, 1990

 Geometry written to block  1 of record 700


 Point group  C1  



 ATOMIC COORDINATES

 NR  ATOM    CHARGE       X              Y              Z

   1  C       6.00    0.000000000    0.000000000    0.000000000
   2  H       1.00    0.000000000    0.000000000    2.079756984
   3  C       6.00    2.762949669    0.000000000   -0.885431176
   4  C       6.00   -1.381484283   -2.392790116   -0.885431176
   5  C       6.00   -1.381484283    2.392790116   -0.885431176
   6  H       1.00    2.874613586    0.000000000   -2.957515871
   7  H       1.00   -1.437306793   -2.489487402   -2.957515871
   8  H       1.00   -1.437306793    2.489487402   -2.957515871
   9  H       1.00    3.774822420    1.674713086   -0.202635332
  10  H       1.00    3.774822420   -1.674713086   -0.202635332
  11  H       1.00   -0.437074755   -4.106450458   -0.202635332
  12  H       1.00   -3.337747665   -2.431737372   -0.202635332
  13  H       1.00   -3.337747665    2.431737372   -0.202635332
  14  H       1.00   -0.437074755    4.106450458   -0.202635332

 Bond lengths in Bohr (Angstrom)

 1-2  2.079756984  1-3  2.901358172  1-4  2.901367218  1-5  2.901367218  3-6  2.075091279
     ( 1.100560000)     ( 1.535332625)     ( 1.535337412)     ( 1.535337412)     ( 1.098091015)

  3- 9  2.072380406   3-10  2.072380406   4- 7  2.075090722   4-11  2.072378172   4-12  2.072364222
       ( 1.096656483)       ( 1.096656483)       ( 1.098090721)       ( 1.096655301)       ( 1.096647919)

  5- 8  2.075090722   5-13  2.072364222   5-14  2.072378172
       ( 1.098090721)       ( 1.096647919)       ( 1.096655301)

 Bond angles

  1- 3- 6  110.85354902   1- 3- 9  111.37220114   1- 3-10  111.37220114   1- 4- 7  110.85320625

  1- 4-11  111.37204414   1- 4-12  111.37216555   1- 5- 8  110.85320625   1- 5-13  111.37216555

  1- 5-14  111.37204414   2- 1- 3  107.76888332   2- 1- 4  107.76882608   2- 1- 5  107.76882608

  3-1-4  111.11870751   3-1-5  111.11870751   4-1-5  111.11845005   6-3-9  107.62119374

  6- 3-10  107.62119374   7- 4-11  107.62125572   7- 4-12  107.62162102   8- 5-13  107.62162102

  8- 5-14  107.62125572   9- 3-10  107.82352924  11- 4-12  107.82360822  13- 5-14  107.82360822

 NUCLEAR CHARGE:                   34
 NUMBER OF PRIMITIVE AOS:         170
 NUMBER OF SYMMETRY AOS:          166
 NUMBER OF CONTRACTIONS:          106   ( 106A   )
 NUMBER OF CORE ORBITALS:           4   (   4A   )
 NUMBER OF VALENCE ORBITALS:       26   (  26A   )


 NUCLEAR REPULSION ENERGY  134.07051350


 Eigenvalues of metric

         1 0.225E-02 0.614E-02 0.614E-02 0.233E-01 0.256E-01 0.268E-01 0.268E-01 0.277E-01


 Contracted 2-electron integrals neglected if value below      1.0D-11
 AO integral compression algorithm  1   Integral accuracy      1.0D-11

     64.750 MB (compressed) written to integral file ( 46.7%)


 NUMBER OF SORTED TWO-ELECTRON INTEGRALS:   16082956.     BUFFER LENGTH:  32768
 NUMBER OF SEGMENTS:   2  SEGMENT LENGTH:   15997996      RECORD LENGTH: 524288

 Memory used in sort:      16.56 MW

 SORT1 READ    17384690. AND WROTE    14795173. INTEGRALS IN     44 RECORDS. CPU TIME:     0.21 SEC, REAL TIME:     0.42 SEC
 SORT2 READ    14795173. AND WROTE    16082956. INTEGRALS IN    247 RECORDS. CPU TIME:     0.41 SEC, REAL TIME:     3.41 SEC

 FILE SIZES:   FILE 1:    95.4 MBYTE,  FILE 4:   184.6 MBYTE,   TOTAL:    279.9 MBYTE

 OPERATOR DM      FOR CENTER  0  COORDINATES:    0.000000    0.000000    0.000000


 **********************************************************************************************************************************
 DATASETS  * FILE   NREC   LENGTH (MB)   RECORD NAMES
              1      19       87.57       500      610      700      900      950      970     1000      129      960     1100   
                                          VAR    BASINP    GEOM    SYMINP    ZMAT    AOBASIS   BASIS     P2S    ABASIS      S 
                                         1400     1410     1200     1210     1080     1600     1650     1300     1700   
                                           T        V       H0       H01     AOSYM     SMH    MOLCAS    ERIS     OPER   

 PROGRAMS   *        TOTAL       INT
 CPU TIMES  *         2.73      2.60
 REAL TIME  *        11.33 SEC
 DISK USED  *       280.45 MB      
 **********************************************************************************************************************************

 Density functional group M11-L=XC-M11-L
 Functional: XC-M11-L(via MFM 1.6)                                             Gradient terms: 1
 Use grid at  1800.2

 Functional: XC-M11-L                  Factor:  1.0000

 Generated new metagrid on record  1800.2 with target accuracy 1.0D-06 and 45620 points in CPU time    1.1
 Computed new grid on record 1800.1 in CPU time    1.2
   88342 words reserved for DFT integration

 PROGRAM * UKS-SCF (Unrestricted Kohn-Sham)     Authors: W. Meyer, H.-J. Werner, P.J. Knowles, 1993

 NUMBER OF ELECTRONS:      17+   17-    SPACE SYMMETRY=1    SPIN SYMMETRY: Singlet 
 CONVERGENCE THRESHOLDS:    1.00E-05 (Density)    1.00E-06 (Energy)
 MAX. NUMBER OF ITERATIONS:       60
 INTERPOLATION TYPE:            DIIS
 INTERPOLATION STEPS:              2 (START)      1 (STEP)
 LEVEL SHIFTS:                 -0.20 (ALPHA)  -0.20 (BETA) 



 Use fine grid record 1800.2 for energy threshold  1.0D-06
 Orbital guess generated from atomic densities. Full valence occupancy:   17

 Molecular orbital dump at record        2200.2

 Initial alpha occupation  17
 Initial beta  occupation  17

 ITERATION    DDIFF          GRAD             ENERGY        2-EL.EN.            DIPOLE MOMENTS         DIIS
    1      0.000D+00      0.000D+00      -158.02897596    432.345420   -0.00027   -0.00000   -0.02159    0
    2      0.116D-01      0.586D-02      -158.24700101    414.437254   -0.00410   -0.00000   -0.01854    1
    3      0.357D-02      0.221D-02      -158.27247093    418.568584   -0.00248   -0.00000    0.03589    2
    4      0.868D-03      0.250D-03      -158.27314393    418.314774   -0.00296   -0.00000    0.03016    3
    5      0.568D-03      0.111D-03      -158.27333089    418.263160   -0.00327   -0.00000    0.03224    4
    6      0.357D-03      0.425D-04      -158.27336473    418.214384   -0.00352   -0.00000    0.03641    5
    7      0.542D-04      0.893D-05      -158.27336573    418.220142   -0.00360   -0.00000    0.03401    6
    8      0.161D-04      0.254D-05      -158.27336582    418.219722   -0.00361   -0.00000    0.03518    6
    9      0.554D-05      0.698D-06      -158.27336583    418.219311   -0.00362   -0.00000    0.03497    6
   10      0.131D-05      0.226D-06      -158.27336583    418.219809   -0.00362   -0.00000    0.03500    7

 Final alpha occupancy:  17
 Final beta  occupancy:  17

 !UKS STATE 1.1 Energy               -158.273365833723
 Nuclear energy                       134.07051350
 One-electron energy                 -476.07072571
 Two-electron energy                  209.10990443
 Density functional                   -25.38305805     XC-M11-L=-25.38305805
 Virial quotient                       -1.00849067
 !UKS STATE 1.1 Dipole moment          -0.00361794    -0.00000000     0.03500439
 Dipole moment /Debye                  -0.00919529    -0.00000000     0.08896645

 Orbital energies for positive spin:

         1.1          2.1          3.1          4.1          5.1          6.1          7.1          8.1          9.1         10.1
    -10.370812   -10.352735   -10.352730   -10.352728    -0.775434    -0.651400    -0.651395    -0.527995    -0.429275    -0.400489

        11.1         12.1         13.1         14.1         15.1         16.1         17.1         18.1         19.1
     -0.400390    -0.353019    -0.352914    -0.334114    -0.308279    -0.308149    -0.295109     0.016460     0.058895

 Orbital energies for negative spin:

         1.1          2.1          3.1          4.1          5.1          6.1          7.1          8.1          9.1         10.1
    -10.370812   -10.352735   -10.352730   -10.352728    -0.775434    -0.651400    -0.651395    -0.527995    -0.429275    -0.400489

        11.1         12.1         13.1         14.1         15.1         16.1         17.1         18.1         19.1
     -0.400390    -0.353019    -0.352914    -0.334114    -0.308279    -0.308149    -0.295109     0.016460     0.058895

 HOMO     17.1    -0.295109 =      -8.0303eV
 LUMO     18.1     0.016460 =       0.4479eV
 LUMO-HOMO         0.311569 =       8.4782eV

 EXPECTATION VALUE OF S**2:            -0.00000000

 Natural orbitals saved to record    2200.2 (Orbital set 3)

 Orbital spaces for UNO-CAS (Min. occupation: 0.020  Max. occupation: 1.980):

 Closed:       17
 Active:        0


 **********************************************************************************************************************************
 DATASETS  * FILE   NREC   LENGTH (MB)   RECORD NAMES
              1      20       89.03       500      610      700      900      950      970     1000      129      960     1100   
                                          VAR    BASINP    GEOM    SYMINP    ZMAT    AOBASIS   BASIS     P2S    ABASIS      S 
                                         1400     1410     1200     1210     1080     1600     1650     1300     1700     1800   
                                           T        V       H0       H01     AOSYM     SMH    MOLCAS    ERIS     OPER     GRID   

              2       5        3.45       700     1000      520     1800     2200   
                                         GEOM     BASIS   MCVARS    GRID      UKS  

 PROGRAMS   *        TOTAL       UKS       INT
 CPU TIMES  *        45.87     43.14      2.60
 REAL TIME  *        55.32 SEC
 DISK USED  *       280.45 MB      
 **********************************************************************************************************************************


 PROGRAM * Intrinsic Basis Bonding Analysis (IBBA)          Author: G. Knizia

 Molecular orbitals read from record     2200.2  Type=UKS/ALPHA (state 1.1)
 Fock matrix read from record            2200.2  Type=UKS/TOTAL (state 1.1)
 Orbital energies read from record       2200.2  Type=UKS/ALPHA (state 1.1)
 Density matrix read from record         2200.2  Type=UKS/CHARGE (state 1.1)

 Number of core orbitals:           4 (   4 )
 Number of closed-shell orbitals:  13 (  13 )

 Basis set MINAO-AUTO-PP generated.      Number of basis functions:   30 

 Polarized AO type:                A = (O Ot + (1-O)(1-Ot)) P12
 Orthogonalization method:         Symmetric (Loewdin)
 Localization functional:          L = sum[A,i] <i|n_A|i>^4 -> max

 Localization group 1:  17 orbitals, occupancy  2.000
 Iterative localization: IB/PM,    7 iter; Final gradient 0.47E-08

 Bond order analysis:       [THRPRINT= 0.020]

   CEN ATOM   CEN ATOM     WIBERG.BO      RENORM.BO
     1   C  -   3   C       1.018337       1.011343
     1   C  -   4   C       1.018251       1.011308
     1   C  -   5   C       1.018251       1.011308
     1   C  -   2   H       0.928549       0.947581

     2   H  -   1   C       0.928549       0.947581

     3   C  -   1   C       1.018337       1.011343
     3   C  -   9   H       0.964297       0.982082
     3   C  -  10   H       0.964297       0.982082
     3   C  -   6   H       0.962104       0.975938

     4   C  -   1   C       1.018251       1.011308
     4   C  -  11   H       0.964342       0.982067
     4   C  -  12   H       0.964252       0.982165
     4   C  -   7   H       0.962088       0.975949

     5   C  -   1   C       1.018251       1.011308
     5   C  -  14   H       0.964342       0.982067
     5   C  -  13   H       0.964252       0.982165
     5   C  -   8   H       0.962088       0.975949

     6   H  -   3   C       0.962104       0.975938

     7   H  -   4   C       0.962088       0.975949

     8   H  -   5   C       0.962088       0.975949

     9   H  -   3   C       0.964297       0.982082

    10   H  -   3   C       0.964297       0.982082

    11   H  -   4   C       0.964342       0.982067

    12   H  -   4   C       0.964252       0.982165

    13   H  -   5   C       0.964252       0.982165

    14   H  -   5   C       0.964342       0.982067


 Valency analysis:

   CEN ATOM   TOT.VALENCE
     1   C       3.986937
     2   H       0.987194
     3   C       3.947229
     4   C       3.947204
     5   C       3.947204
     6   H       0.984285
     7   H       0.984258
     8   H       0.984258
     9   H       0.983063
    10   H       0.983063
    11   H       0.983137
    12   H       0.982981
    13   H       0.982981
    14   H       0.983137

 Total charge composition:

   CEN ATOM         s          p       ELECTRONS ->P.CHARGE
     1   C       2.98188    3.07654      6.05842   -0.05842
     2   H       0.88684                 0.88684    0.11316
     3   C       3.05876    3.34533      6.40409   -0.40409
     4   C       3.05866    3.34527      6.40393   -0.40393
     5   C       3.05866    3.34527      6.40393   -0.40393
     6   H       0.87464                 0.87464    0.12536
     7   H       0.87453                 0.87453    0.12547
     8   H       0.87453                 0.87453    0.12547
     9   H       0.86986                 0.86986    0.13014
    10   H       0.86986                 0.86986    0.13014
    11   H       0.87014                 0.87014    0.12986
    12   H       0.86954                 0.86954    0.13046
    13   H       0.86954                 0.86954    0.13046
    14   H       0.87014                 0.87014    0.12986

 Total charge composition, AO contributions:

   CEN ATOM SHL      SPHERICAL COMPONENTS
     1   C  1s       1.98947
     1   C  2s       0.99241
     1   C  2p       0.99227    0.99225    1.09203

     2   H  1s       0.88684

     3   C  1s       1.98886
     3   C  2s       1.06990
     3   C  2p       1.06051    1.14824    1.13657

     4   C  1s       1.98886
     4   C  2s       1.06980
     4   C  2p       1.12665    1.08205    1.13657

     5   C  1s       1.98886
     5   C  2s       1.06980
     5   C  2p       1.12665    1.08205    1.13657

     6   H  1s       0.87464

     7   H  1s       0.87453

     8   H  1s       0.87453

     9   H  1s       0.86986

    10   H  1s       0.86986

    11   H  1s       0.87014

    12   H  1s       0.86954

    13   H  1s       0.86954

    14   H  1s       0.87014

 Summary of localized orbital composition:   [THRPRINT= 0.020]

   ORB  GRP  ORB.ENERGY      CENTERS/CHARGES
     1   1   -10.262246      C  1   2.000
     2   1   -10.231497      C  5   2.000
     3   1   -10.231497      C  4   2.000
     4   1   -10.231490      C  3   2.000
     5   1    -0.540139      C  3   1.011   C  1   0.973
     6   1    -0.540135      C  4   1.011   C  1   0.973
     7   1    -0.540135      C  5   1.011   C  1   0.973
     8   1    -0.464747      C  5   1.128   H 13   0.862
     9   1    -0.464747      C  4   1.128   H 12   0.862
    10   1    -0.464566      C  3   1.127   H  9   0.863
    11   1    -0.464566      C  3   1.127   H 10   0.863
    12   1    -0.464400      C  4   1.127   H 11   0.863
    13   1    -0.464400      C  5   1.127   H 14   0.863
    14   1    -0.464331      C  5   1.124   H  8   0.867
    15   1    -0.464331      C  4   1.124   H  7   0.867
    16   1    -0.464171      C  3   1.124   H  6   0.867
    17   1    -0.459505      C  1   1.093   H  2   0.873   (other: 0.034)

 Localized orbitals saved to record      2200.2  (orbital set 4)


 **********************************************************************************************************************************
 DATASETS  * FILE   NREC   LENGTH (MB)   RECORD NAMES
              1      20       89.03       500      610      700      900      950      970     1000      129      960     1100   
                                          VAR    BASINP    GEOM    SYMINP    ZMAT    AOBASIS   BASIS     P2S    ABASIS      S 
                                         1400     1410     1200     1210     1080     1600     1650     1300     1700     1800   
                                           T        V       H0       H01     AOSYM     SMH    MOLCAS    ERIS     OPER     GRID   

              2       5        3.54       700     1000      520     1800     2200   
                                         GEOM     BASIS   MCVARS    GRID      UKS  

 PROGRAMS   *        TOTAL      IBBA       UKS       INT
 CPU TIMES  *        45.91      0.04     43.14      2.60
 REAL TIME  *        55.46 SEC
 DISK USED  *       280.45 MB      
 **********************************************************************************************************************************
 Molecular orbitals read from record     2200.2  Type=UKS/LOCAL(IBO)  
 Occupation numbers read from record     2200.2  Type=UKS/LOCAL(IBO)  
 Orbital energies read from record       2200.2  Type=UKS/LOCAL(IBO)  
 Redundancy group numbers read from rec  2200.2  Type=UKS/BETA (state 1.1)

 IBBA/SVP energy=      0.000000000000

        UKS-SCF 
   -158.27336583
 **********************************************************************************************************************************
 Molpro calculation terminated
