
 Primary working directories    : /tmp/sb13343
 Secondary working directories  : /tmp/sb13343
 Wavefunction directory         : /panfs/panasas01/chem/sb13343/wfu/
 Main file repository           : /tmp/sb13343/

 SHA1      : b4a5b34a9e711420743f49e6833241d17c61fb3c
 NAME      : 2099.9.b4a5b34
 ARCHNAME  : linux/x86_64_openmp
 FC        : /cm/shared/languages/GCC-6.1/bin/gfortran
 BLASLIB   : -lblas
 id        : simonbennie

 Nodes     nprocs
 node32-013    1

 Using customized tuning parameters: mindgm=1; mindgv=20; mindgc=4; mindgr=1; noblas=0; minvec=7
 default implementation of scratch files=df  

 memory,500,m
 geomtyp=xyz
 nosym
 noorient
 geometry={
 O          0.25818        0.93788        0.04074
 C          1.63656        1.04230        0.32330
 H          1.89907        2.10041        0.23555
 H          2.26234        0.47024       -0.37847
 C         -0.29581       -0.36510        0.22961
 H          0.07373       -0.77023        1.18842
 C          0.09996       -1.32219       -0.89979
 C         -1.80707       -0.17660        0.31883
 H         -2.30941       -1.13436        0.49338
 H         -2.05917        0.50650        1.13581
 H         -2.19015        0.25071       -0.61475
 H         -0.34617       -2.31074       -0.74107
 H         -0.25158       -0.93408       -1.86253
 H          1.18531       -1.45552       -0.96063
 H          1.86878        0.70360        1.34661
 }
 basis={ default,sto-3g }
 {uks,BH-LYP,direct;wf,42,1,0}
 {ibba,bonds=1}

 Variables initialized (895), CPU time= 0.00 sec
 Commands  initialized (725), CPU time= 0.01 sec, 591 directives.
 Default parameters read. Elapsed time= 0.10 sec

 Checking input...
 Passed
1


                                         ***  PROGRAM SYSTEM MOLPRO  ***
                                       Copyright, TTI GmbH Stuttgart, 2015
                                    Version 2099.9 linked May 26 2017 16:03:21


 **********************************************************************************************************************************
 LABEL *                                                                                 
  64 bit serial version                                                                  DATE: 07-Jun-17          TIME: 21:38:40  
 **********************************************************************************************************************************

 SHA1:             b4a5b34a9e711420743f49e6833241d17c61fb3c
 **********************************************************************************************************************************
 SETTING GEOMTYP        =    XYZ

 Variable memory set to  500000000 words,  buffer space 

 ZSYMEL=NOSYM

 SETTING BASIS          =    STO-3G


 Recomputing integrals since basis changed


 Using spherical harmonics

 Library entry O      S STO-3G               selected for orbital group  1
 Library entry O      P STO-3G               selected for orbital group  1
 Library entry C      S STO-3G               selected for orbital group  2
 Library entry C      P STO-3G               selected for orbital group  2
 Library entry H      S STO-3G               selected for orbital group  3


 PROGRAM * SEWARD (Integral evaluation for generally contracted gaussian basis sets)     Author: Roland Lindh, 1990

 Geometry written to block  1 of record 700


 Point group  C1  



 ATOMIC COORDINATES

 NR  ATOM    CHARGE       X              Y              Z

   1  O       8.00    0.487889491    1.772336338    0.076987442
   2  C       6.00    3.092650186    1.969661540    0.610948456
   3  H       1.00    3.588722191    3.969199649    0.445124989
   4  H       1.00    4.275203001    0.888624813   -0.715204646
   5  C       6.00   -0.558999885   -0.689939008    0.433900015
   6  H       1.00    0.139329507   -1.455523753    2.245788321
   7  C       6.00    0.188897023   -2.498576985   -1.700356670
   8  C       6.00   -3.414867388   -0.333725634    0.602501380
   9  H       1.00   -4.364152409   -2.143629727    0.932353075
  10  H       1.00   -3.891267344    0.957146282    2.146369830
  11  H       1.00   -4.138783672    0.473773237   -1.161709135
  12  H       1.00   -0.654166493   -4.366665745   -1.400419339
  13  H       1.00   -0.475417298   -1.765155378   -3.519671599
  14  H       1.00    2.239911273   -2.750534169   -1.815327607
  15  H       1.00    3.531482387    1.329611301    2.544724097

 Bond lengths in Bohr (Angstrom)

  1- 2  2.666238902   1- 5  2.699289504   2- 3  2.066818209   2- 4  2.079844613   2-15  2.083680934
       ( 1.410912866)       ( 1.428402491)       ( 1.093713095)       ( 1.100606371)       ( 1.102636465)

  5- 6  2.087276497   5- 7  2.895785336   5- 8  2.882931422   7-12  2.071345966   7-13  2.071020903
       ( 1.104539155)       ( 1.532383608)       ( 1.525581609)       ( 1.096109081)       ( 1.095937065)

  7-14  2.069628032   8- 9  2.070192508   8-10  2.068051501   8-11  2.070880961
       ( 1.095199989)       ( 1.095498697)       ( 1.094365725)       ( 1.095863011)

 Bond angles

  1- 2- 3  106.85884507   1- 2- 4  112.91125973   1- 2-15  111.64621834   1- 5- 6  108.63888518

  1-5-7  111.84608248   1-5-8  106.21369660   2-1-5  114.82992588   3-2-4  108.37425913

  3- 2-15  108.72850466   4- 2-15  108.20064699   5- 7-12  110.57572754   5- 7-13  110.08520206

  5- 7-14  111.89623115   5- 8- 9  110.82645738   5- 8-10  110.42517473   5- 8-11  110.16013005

  6- 5- 7  108.92239636   6- 5- 8  109.02480146   7- 5- 8  112.09364518   9- 8-10  108.73162751

  9- 8-11  108.44218100  10- 8-11  108.18344616  12- 7-13  108.42317703  12- 7-14  107.55382926

 13- 7-14  108.19151953

 NUCLEAR CHARGE:                   42
 NUMBER OF PRIMITIVE AOS:         105
 NUMBER OF SYMMETRY AOS:          105
 NUMBER OF CONTRACTIONS:           35   (  35A   )
 NUMBER OF CORE ORBITALS:           5   (   5A   )
 NUMBER OF VALENCE ORBITALS:       30   (  30A   )


 NUCLEAR REPULSION ENERGY  195.74983609


 Eigenvalues of metric

         1 0.208E+00 0.227E+00 0.234E+00 0.281E+00 0.352E+00 0.360E+00 0.363E+00 0.368E+00


 Contracted 2-electron integrals neglected if value below      1.0D-11
 AO integral compression algorithm  1   Integral accuracy      1.0D-11

     1.573 MB (compressed) written to integral file ( 89.1%)


 NUMBER OF SORTED TWO-ELECTRON INTEGRALS:     198765.     BUFFER LENGTH:  32768
 NUMBER OF SEGMENTS:   1  SEGMENT LENGTH:     198765      RECORD LENGTH: 524288

 Memory used in sort:       0.76 MW

 SORT1 READ      224802. AND WROTE      193897. INTEGRALS IN      1 RECORDS. CPU TIME:     0.01 SEC, REAL TIME:     0.01 SEC
 SORT2 READ      193897. AND WROTE      198765. INTEGRALS IN      6 RECORDS. CPU TIME:     0.02 SEC, REAL TIME:     0.02 SEC

 FILE SIZES:   FILE 1:    31.8 MBYTE,  FILE 4:     4.2 MBYTE,   TOTAL:     36.0 MBYTE

 OPERATOR DM      FOR CENTER  0  COORDINATES:    0.000000    0.000000    0.000000


 **********************************************************************************************************************************
 DATASETS  * FILE   NREC   LENGTH (MB)   RECORD NAMES
              1      19       31.10       500      610      700      900      950      970     1000      129      960     1100   
                                          VAR    BASINP    GEOM    SYMINP    ZMAT    AOBASIS   BASIS     P2S    ABASIS      S 
                                         1400     1410     1200     1210     1080     1600     1650     1300     1700   
                                           T        V       H0       H01     AOSYM     SMH    MOLCAS    ERIS     OPER   

 PROGRAMS   *        TOTAL       INT
 CPU TIMES  *         0.59      0.43
 REAL TIME  *         0.93 SEC
 DISK USED  *        36.55 MB      
 **********************************************************************************************************************************

 Density functional group BH-LYP=B88+LYP
 Functional: B88(Automatically generated (new) B88)                            Gradient terms: 1
 Functional: LYP(Automatically generated (new) LYP)                            Gradient terms: 1
 Use grid at  1800.2


 Exact exchange will be calculated, factor:  0.5000

 Functional: B88                       Factor:  0.5000
 Functional: LYP                       Factor:  1.0000

 Generated new metagrid on record  1800.2 with target accuracy 1.0D-06 and 52852 points in CPU time    1.3
 Computed new grid on record 1800.1 in CPU time    1.4
   32369 words reserved for DFT integration

 PROGRAM * UKS-SCF (Unrestricted Kohn-Sham)     Authors: W. Meyer, H.-J. Werner, P.J. Knowles, 1993

 NUMBER OF ELECTRONS:      21+   21-    SPACE SYMMETRY=1    SPIN SYMMETRY: Singlet 
 CONVERGENCE THRESHOLDS:    1.00E-05 (Density)    1.00E-06 (Energy)
 MAX. NUMBER OF ITERATIONS:       60
 INTERPOLATION TYPE:            DIIS
 INTERPOLATION STEPS:              2 (START)      1 (STEP)
 LEVEL SHIFTS:                 -0.20 (ALPHA)  -0.20 (BETA) 



 Use fine grid record 1800.2 for energy threshold  1.0D-06
 Orbital guess generated from atomic densities. Full valence occupancy:   21

 Molecular orbital dump at record        2200.2

 Initial alpha occupation  21
 Initial beta  occupation  21

 ITERATION    DDIFF          GRAD             ENERGY        2-EL.EN.            DIPOLE MOMENTS         DIIS
    1      0.000D+00      0.000D+00      -230.39452289    596.653848    0.60346   -1.02366    0.32739    0
    2      0.391D-01      0.154D-01      -230.60933038    584.947672    0.17547   -0.38450    0.09874    1
    3      0.367D-02      0.160D-02      -230.61187282    584.350180    0.18176   -0.37686    0.11686    2
    4      0.160D-02      0.499D-03      -230.61221171    584.285901    0.18769   -0.38177    0.12595    3
    5      0.615D-03      0.148D-03      -230.61224786    584.279054    0.19057   -0.38456    0.12828    4
    6      0.204D-03      0.394D-04      -230.61225125    584.279658    0.19040   -0.38380    0.12750    5
    7      0.551D-04      0.105D-04      -230.61225146    584.278962    0.19045   -0.38397    0.12749    5
    8      0.783D-05      0.195D-05      -230.61225147    584.279282    0.19043   -0.38392    0.12749    6
    9      0.247D-05      0.566D-06      -230.61225147    584.279163    0.19043   -0.38392    0.12750    6

 Final alpha occupancy:  21
 Final beta  occupancy:  21

 !UKS STATE 1.1 Energy               -230.612251470092
 Nuclear energy                       195.74983609
 One-electron energy                 -700.84516736
 Two-electron energy                  292.13958170
 Density functional                   -17.65650190     B88=-32.58218986 LYP= -1.36540697
 Virial quotient                       -1.01539289
 !UKS STATE 1.1 Dipole moment           0.19042780    -0.38392482     0.12749724
 Dipole moment /Debye                   0.48398749    -0.97577565     0.32404443

 Orbital energies for positive spin:

         1.1          2.1          3.1          4.1          5.1          6.1          7.1          8.1          9.1         10.1
    -19.406803   -10.465389   -10.451803   -10.406694   -10.405543    -1.096609    -0.847991    -0.756638    -0.729008    -0.624172

        11.1         12.1         13.1         14.1         15.1         16.1         17.1         18.1         19.1         20.1
     -0.516369    -0.494111    -0.479133    -0.454882    -0.427474    -0.419678    -0.398903    -0.374403    -0.361384    -0.271738

        21.1         22.1         23.1
     -0.210711     0.371424     0.445784

 Orbital energies for negative spin:

         1.1          2.1          3.1          4.1          5.1          6.1          7.1          8.1          9.1         10.1
    -19.406803   -10.465389   -10.451803   -10.406694   -10.405543    -1.096609    -0.847991    -0.756638    -0.729008    -0.624172

        11.1         12.1         13.1         14.1         15.1         16.1         17.1         18.1         19.1         20.1
     -0.516369    -0.494111    -0.479133    -0.454882    -0.427474    -0.419678    -0.398903    -0.374403    -0.361384    -0.271738

        21.1         22.1         23.1
     -0.210711     0.371424     0.445784

 HOMO     21.1    -0.210711 =      -5.7337eV
 LUMO     22.1     0.371424 =      10.1070eV
 LUMO-HOMO         0.582135 =      15.8407eV

 EXPECTATION VALUE OF S**2:            -0.00000000

 Natural orbitals saved to record    2200.2 (Orbital set 3)

 Orbital spaces for UNO-CAS (Min. occupation: 0.020  Max. occupation: 1.980):

 Closed:       21
 Active:        0


 **********************************************************************************************************************************
 DATASETS  * FILE   NREC   LENGTH (MB)   RECORD NAMES
              1      20       32.79       500      610      700      900      950      970     1000      129      960     1100   
                                          VAR    BASINP    GEOM    SYMINP    ZMAT    AOBASIS   BASIS     P2S    ABASIS      S 
                                         1400     1410     1200     1210     1080     1600     1650     1300     1700     1800   
                                           T        V       H0       H01     AOSYM     SMH    MOLCAS    ERIS     OPER     GRID   

              2       5        3.05       700     1000      520     1800     2200   
                                         GEOM     BASIS   MCVARS    GRID      UKS  

 PROGRAMS   *        TOTAL       UKS       INT
 CPU TIMES  *         5.44      4.85      0.43
 REAL TIME  *         6.13 SEC
 DISK USED  *        36.55 MB      
 **********************************************************************************************************************************


 PROGRAM * Intrinsic Basis Bonding Analysis (IBBA)          Author: G. Knizia

 Molecular orbitals read from record     2200.2  Type=UKS/ALPHA (state 1.1)
 Fock matrix read from record            2200.2  Type=UKS/TOTAL (state 1.1)
 Orbital energies read from record       2200.2  Type=UKS/ALPHA (state 1.1)
 Density matrix read from record         2200.2  Type=UKS/CHARGE (state 1.1)

 Number of core orbitals:           5 (   5 )
 Number of closed-shell orbitals:  16 (  16 )

 Basis set MINAO-AUTO-PP generated.      Number of basis functions:   35 

 Polarized AO type:                A = (O Ot + (1-O)(1-Ot)) P12
 Orthogonalization method:         Symmetric (Loewdin)
 Localization functional:          L = sum[A,i] <i|n_A|i>^4 -> max

 Localization group 1:  21 orbitals, occupancy  2.000
 Iterative localization: IB/PM,    7 iter; Final gradient 0.12E-08

 Bond order analysis:       [THRPRINT= 0.020]

   CEN ATOM   CEN ATOM     WIBERG.BO      RENORM.BO
     1   O  -   2   C       1.012020       1.013961
     1   O  -   5   C       0.983057       0.979515
     1   O  -   4   H       0.025420       0.014916
     1   O  -  15   H       0.024044       0.014221
     1   O  -   7   C       0.023036       0.012072

     2   C  -   1   O       1.012020       1.013961
     2   C  -  15   H       0.959727       0.956143
     2   C  -   4   H       0.959254       0.954591
     2   C  -   3   H       0.958827       0.977770

     3   H  -   2   C       0.958827       0.977770

     4   H  -   2   C       0.959254       0.954591
     4   H  -   1   O       0.025420       0.014916

     5   C  -   8   C       1.003560       0.998230
     5   C  -   7   C       0.999130       0.977500
     5   C  -   1   O       0.983057       0.979515
     5   C  -   6   H       0.941739       0.939474

     6   H  -   5   C       0.941739       0.939474

     7   C  -   5   C       0.999130       0.977500
     7   C  -  14   H       0.967499       0.988458
     7   C  -  12   H       0.967076       0.991525
     7   C  -  13   H       0.966084       0.987460
     7   C  -   1   O       0.023036       0.012072

     8   C  -   5   C       1.003560       0.998230
     8   C  -   9   H       0.968007       0.991507
     8   C  -  11   H       0.965190       0.987437
     8   C  -  10   H       0.965041       0.989083

     9   H  -   8   C       0.968007       0.991507

    10   H  -   8   C       0.965041       0.989083

    11   H  -   8   C       0.965190       0.987437

    12   H  -   7   C       0.967076       0.991525

    13   H  -   7   C       0.966084       0.987460

    14   H  -   7   C       0.967499       0.988458

    15   H  -   2   C       0.959727       0.956143
    15   H  -   1   O       0.024044       0.014221


 Valency analysis:

   CEN ATOM   TOT.VALENCE
     1   O       2.122825
     2   C       3.908041
     3   H       0.980964
     4   H       0.987908
     5   C       3.951536
     6   H       0.988431
     7   C       3.937496
     8   C       3.934964
     9   H       0.983239
    10   H       0.981483
    11   H       0.982470
    12   H       0.982853
    13   H       0.982990
    14   H       0.984178
    15   H       0.987668

 Total charge composition:

   CEN ATOM         s          p       ELECTRONS ->P.CHARGE
     1   O       3.64585    4.59760      8.24345   -0.24345
     2   C       3.00270    3.24219      6.24489   -0.24489
     3   H       0.86203                 0.86203    0.13797
     4   H       0.89004                 0.89004    0.10996
     5   C       2.96091    3.02637      5.98728    0.01272
     6   H       0.89244                 0.89244    0.10756
     7   C       2.99657    3.39610      6.39267   -0.39267
     8   C       2.99490    3.38844      6.38334   -0.38334
     9   H       0.87054                 0.87054    0.12946
    10   H       0.86392                 0.86392    0.13608
    11   H       0.86760                 0.86760    0.13240
    12   H       0.86905                 0.86905    0.13095
    13   H       0.86958                 0.86958    0.13042
    14   H       0.87421                 0.87421    0.12579
    15   H       0.88895                 0.88895    0.11105

 Total charge composition, AO contributions:

   CEN ATOM SHL      SPHERICAL COMPONENTS
     1   O  1s       1.99727
     1   O  2s       1.64858
     1   O  2p       1.28821    1.41342    1.89597

     2   C  1s       1.99205
     2   C  2s       1.01066
     2   C  2p       0.90604    1.18100    1.15515

     3   H  1s       0.86203

     4   H  1s       0.89004

     5   C  1s       1.99255
     5   C  2s       0.96836
     5   C  2p       1.02972    0.89798    1.09867

     6   H  1s       0.89244

     7   C  1s       1.99147
     7   C  2s       1.00510
     7   C  2p       1.15735    1.12618    1.11257

     8   C  1s       1.99139
     8   C  2s       1.00351
     8   C  2p       1.05121    1.16497    1.17226

     9   H  1s       0.87054

    10   H  1s       0.86392

    11   H  1s       0.86760

    12   H  1s       0.86905

    13   H  1s       0.86958

    14   H  1s       0.87421

    15   H  1s       0.88895

 Summary of localized orbital composition:   [THRPRINT= 0.020]

   ORB  GRP  ORB.ENERGY      CENTERS/CHARGES
     1   1   -19.230575      O  1   2.000
     2   1   -10.362641      C  5   2.000
     3   1   -10.339982      C  2   2.000
     4   1   -10.289118      C  8   2.000
     5   1   -10.288743      C  7   2.000
     6   1    -0.751990      O  1   1.161   C  2   0.830
     7   1    -0.729800      O  1   1.169   C  5   0.813
     8   1    -0.616325      C  5   1.003   C  8   0.982
     9   1    -0.614237      O  1   1.976   (other: 0.024)
    10   1    -0.612832      C  7   0.996   C  5   0.996
    11   1    -0.563751      C  2   1.124   H  4   0.875
    12   1    -0.563043      C  2   1.124   H 15   0.874
    13   1    -0.562998      C  2   1.138   H  3   0.854
    14   1    -0.559556      C  5   1.114   H  6   0.873
    15   1    -0.546201      C  7   1.123   H 14   0.868
    16   1    -0.545779      C  7   1.127   H 12   0.863
    17   1    -0.545603      C  8   1.126   H  9   0.865
    18   1    -0.540103      C  7   1.128   H 13   0.864
    19   1    -0.539851      C  8   1.134   H 10   0.858
    20   1    -0.538196      C  8   1.130   H 11   0.862
    21   1    -0.258117      O  1   1.930   (other: 0.070)

 Localized orbitals saved to record      2200.2  (orbital set 4)


 **********************************************************************************************************************************
 DATASETS  * FILE   NREC   LENGTH (MB)   RECORD NAMES
              1      20       32.79       500      610      700      900      950      970     1000      129      960     1100   
                                          VAR    BASINP    GEOM    SYMINP    ZMAT    AOBASIS   BASIS     P2S    ABASIS      S 
                                         1400     1410     1200     1210     1080     1600     1650     1300     1700     1800   
                                           T        V       H0       H01     AOSYM     SMH    MOLCAS    ERIS     OPER     GRID   

              2       5        3.06       700     1000      520     1800     2200   
                                         GEOM     BASIS   MCVARS    GRID      UKS  

 PROGRAMS   *        TOTAL      IBBA       UKS       INT
 CPU TIMES  *         5.47      0.03      4.85      0.43
 REAL TIME  *         6.27 SEC
 DISK USED  *        36.55 MB      
 **********************************************************************************************************************************
 Molecular orbitals read from record     2200.2  Type=UKS/LOCAL(IBO)  
 Occupation numbers read from record     2200.2  Type=UKS/LOCAL(IBO)  
 Orbital energies read from record       2200.2  Type=UKS/LOCAL(IBO)  
 Redundancy group numbers read from rec  2200.2  Type=UKS/BETA (state 1.1)

 IBBA/STO-3G energy=      0.000000000000

        UKS-SCF 
   -230.61225147
 **********************************************************************************************************************************
 Molpro calculation terminated
