
 Primary working directories    : /tmp/sb13343
 Secondary working directories  : /tmp/sb13343
 Wavefunction directory         : /panfs/panasas01/chem/sb13343/wfu/
 Main file repository           : /tmp/sb13343/

 SHA1      : b4a5b34a9e711420743f49e6833241d17c61fb3c
 NAME      : 2099.9.b4a5b34
 ARCHNAME  : linux/x86_64_openmp
 FC        : /cm/shared/languages/GCC-6.1/bin/gfortran
 BLASLIB   : -lblas
 id        : simonbennie

 Nodes     nprocs
 node32-020    1

 Using customized tuning parameters: mindgm=1; mindgv=20; mindgc=4; mindgr=1; noblas=0; minvec=7
 default implementation of scratch files=df  

 memory,500,m
 geomtyp=xyz
 nosym
 noorient
 geometry={
 O          0.25818        0.93788        0.04074
 C          1.63656        1.04230        0.32330
 H          1.89907        2.10041        0.23555
 H          2.26234        0.47024       -0.37847
 C         -0.29581       -0.36510        0.22961
 H          0.07373       -0.77023        1.18842
 C          0.09996       -1.32219       -0.89979
 C         -1.80707       -0.17660        0.31883
 H         -2.30941       -1.13436        0.49338
 H         -2.05917        0.50650        1.13581
 H         -2.19015        0.25071       -0.61475
 H         -0.34617       -2.31074       -0.74107
 H         -0.25158       -0.93408       -1.86253
 H          1.18531       -1.45552       -0.96063
 H          1.86878        0.70360        1.34661
 }
 basis={ default,sto-3g }
 {ks,LSDAC,direct;wf,42,1,0}
 {ibba,bonds=1}

 Variables initialized (895), CPU time= 0.01 sec
 Commands  initialized (725), CPU time= 0.01 sec, 591 directives.
 Default parameters read. Elapsed time= 0.09 sec

 Checking input...
 Passed
1


                                         ***  PROGRAM SYSTEM MOLPRO  ***
                                       Copyright, TTI GmbH Stuttgart, 2015
                                    Version 2099.9 linked May 26 2017 16:03:21


 **********************************************************************************************************************************
 LABEL *                                                                                 
  64 bit serial version                                                                  DATE: 07-Jun-17          TIME: 21:40:16  
 **********************************************************************************************************************************

 SHA1:             b4a5b34a9e711420743f49e6833241d17c61fb3c
 **********************************************************************************************************************************
 SETTING GEOMTYP        =    XYZ

 Variable memory set to  500000000 words,  buffer space 

 ZSYMEL=NOSYM

 SETTING BASIS          =    STO-3G


 Recomputing integrals since basis changed


 Using spherical harmonics

 Library entry O      S STO-3G               selected for orbital group  1
 Library entry O      P STO-3G               selected for orbital group  1
 Library entry C      S STO-3G               selected for orbital group  2
 Library entry C      P STO-3G               selected for orbital group  2
 Library entry H      S STO-3G               selected for orbital group  3


 PROGRAM * SEWARD (Integral evaluation for generally contracted gaussian basis sets)     Author: Roland Lindh, 1990

 Geometry written to block  1 of record 700


 Point group  C1  



 ATOMIC COORDINATES

 NR  ATOM    CHARGE       X              Y              Z

   1  O       8.00    0.487889491    1.772336338    0.076987442
   2  C       6.00    3.092650186    1.969661540    0.610948456
   3  H       1.00    3.588722191    3.969199649    0.445124989
   4  H       1.00    4.275203001    0.888624813   -0.715204646
   5  C       6.00   -0.558999885   -0.689939008    0.433900015
   6  H       1.00    0.139329507   -1.455523753    2.245788321
   7  C       6.00    0.188897023   -2.498576985   -1.700356670
   8  C       6.00   -3.414867388   -0.333725634    0.602501380
   9  H       1.00   -4.364152409   -2.143629727    0.932353075
  10  H       1.00   -3.891267344    0.957146282    2.146369830
  11  H       1.00   -4.138783672    0.473773237   -1.161709135
  12  H       1.00   -0.654166493   -4.366665745   -1.400419339
  13  H       1.00   -0.475417298   -1.765155378   -3.519671599
  14  H       1.00    2.239911273   -2.750534169   -1.815327607
  15  H       1.00    3.531482387    1.329611301    2.544724097

 Bond lengths in Bohr (Angstrom)

  1- 2  2.666238902   1- 5  2.699289504   2- 3  2.066818209   2- 4  2.079844613   2-15  2.083680934
       ( 1.410912866)       ( 1.428402491)       ( 1.093713095)       ( 1.100606371)       ( 1.102636465)

  5- 6  2.087276497   5- 7  2.895785336   5- 8  2.882931422   7-12  2.071345966   7-13  2.071020903
       ( 1.104539155)       ( 1.532383608)       ( 1.525581609)       ( 1.096109081)       ( 1.095937065)

  7-14  2.069628032   8- 9  2.070192508   8-10  2.068051501   8-11  2.070880961
       ( 1.095199989)       ( 1.095498697)       ( 1.094365725)       ( 1.095863011)

 Bond angles

  1- 2- 3  106.85884507   1- 2- 4  112.91125973   1- 2-15  111.64621834   1- 5- 6  108.63888518

  1-5-7  111.84608248   1-5-8  106.21369660   2-1-5  114.82992588   3-2-4  108.37425913

  3- 2-15  108.72850466   4- 2-15  108.20064699   5- 7-12  110.57572754   5- 7-13  110.08520206

  5- 7-14  111.89623115   5- 8- 9  110.82645738   5- 8-10  110.42517473   5- 8-11  110.16013005

  6- 5- 7  108.92239636   6- 5- 8  109.02480146   7- 5- 8  112.09364518   9- 8-10  108.73162751

  9- 8-11  108.44218100  10- 8-11  108.18344616  12- 7-13  108.42317703  12- 7-14  107.55382926

 13- 7-14  108.19151953

 NUCLEAR CHARGE:                   42
 NUMBER OF PRIMITIVE AOS:         105
 NUMBER OF SYMMETRY AOS:          105
 NUMBER OF CONTRACTIONS:           35   (  35A   )
 NUMBER OF CORE ORBITALS:           5   (   5A   )
 NUMBER OF VALENCE ORBITALS:       30   (  30A   )


 NUCLEAR REPULSION ENERGY  195.74983609


 Eigenvalues of metric

         1 0.208E+00 0.227E+00 0.234E+00 0.281E+00 0.352E+00 0.360E+00 0.363E+00 0.368E+00


 Contracted 2-electron integrals neglected if value below      1.0D-11
 AO integral compression algorithm  1   Integral accuracy      1.0D-11

     1.573 MB (compressed) written to integral file ( 89.1%)


 NUMBER OF SORTED TWO-ELECTRON INTEGRALS:     198765.     BUFFER LENGTH:  32768
 NUMBER OF SEGMENTS:   1  SEGMENT LENGTH:     198765      RECORD LENGTH: 524288

 Memory used in sort:       0.76 MW

 SORT1 READ      224802. AND WROTE      193897. INTEGRALS IN      1 RECORDS. CPU TIME:     0.01 SEC, REAL TIME:     0.01 SEC
 SORT2 READ      193897. AND WROTE      198765. INTEGRALS IN      6 RECORDS. CPU TIME:     0.02 SEC, REAL TIME:     0.02 SEC

 FILE SIZES:   FILE 1:    31.8 MBYTE,  FILE 4:     4.2 MBYTE,   TOTAL:     36.0 MBYTE

 OPERATOR DM      FOR CENTER  0  COORDINATES:    0.000000    0.000000    0.000000


 **********************************************************************************************************************************
 DATASETS  * FILE   NREC   LENGTH (MB)   RECORD NAMES
              1      19       31.10       500      610      700      900      950      970     1000      129      960     1100   
                                          VAR    BASINP    GEOM    SYMINP    ZMAT    AOBASIS   BASIS     P2S    ABASIS      S 
                                         1400     1410     1200     1210     1080     1600     1650     1300     1700   
                                           T        V       H0       H01     AOSYM     SMH    MOLCAS    ERIS     OPER   

 PROGRAMS   *        TOTAL       INT
 CPU TIMES  *         0.76      0.61
 REAL TIME  *         1.29 SEC
 DISK USED  *        36.55 MB      
 **********************************************************************************************************************************

 Density functional group LSDAC=PW92C
 Functional: PW92C(Automatically generated (new) PW92C)                        Gradient terms: 0
 Use grid at  1800.2

 Functional: PW92C                     Factor:  1.0000

 Generated new metagrid on record  1800.2 with target accuracy 1.0D-06 and 52852 points in CPU time    1.4
 Computed new grid on record 1800.1 in CPU time    1.6
   19034 words reserved for DFT integration

 PROGRAM * RKS-SCF (Restricted closed shell Kohn-Sham)     Authors: W. Meyer, H.-J. Werner, P.J. Knowles, 1993

 NUMBER OF ELECTRONS:      21+   21-    SPACE SYMMETRY=1    SPIN SYMMETRY: Singlet 
 CONVERGENCE THRESHOLDS:    1.00E-05 (Density)    1.00E-06 (Energy)
 MAX. NUMBER OF ITERATIONS:       60
 INTERPOLATION TYPE:            DIIS
 INTERPOLATION STEPS:              2 (START)      1 (STEP)
 LEVEL SHIFTS:                  0.00 (CLOSED)  0.00 (OPEN) 



 Use fine grid record 1800.2 for energy threshold  1.0D-06
 Orbital guess generated from atomic densities. Full valence occupancy:   21

 Molecular orbital dump at record        2100.2

 Initial occupancy:  21

 ITERATION    DDIFF          GRAD             ENERGY        2-EL.EN.            DIPOLE MOMENTS         DIIS   ORB.
    1      0.000D+00      0.000D+00      -199.39904290    614.836282    0.05813    0.05128    0.01475    0    start
    2      0.000D+00      0.147D-01      -199.36154839    601.779171   -0.39659   -0.01677   -0.09084    1    diag
    3      0.512D-01      0.184D-01      -199.47444436    608.762087   -0.10270    0.05243    0.00372    2    diag
    4      0.284D-01      0.116D-02      -199.47473624    609.027119   -0.09328    0.00104   -0.00182    3    diag
    5      0.299D-02      0.783D-03      -199.47493180    608.828825   -0.11453    0.03873   -0.01311    4    diag
    6      0.130D-02      0.156D-03      -199.47493931    608.848949   -0.10825    0.03082   -0.00771    5    diag
    7      0.284D-03      0.498D-04      -199.47494003    608.847333   -0.10866    0.03067   -0.00764    6    diag
    8      0.741D-04      0.698D-05      -199.47494005    608.846757   -0.10882    0.03102   -0.00801    7    diag
    9      0.139D-04      0.855D-06      -199.47494005    608.846651   -0.10881    0.03102   -0.00797    8    diag
   10      0.171D-05      0.348D-06      -199.47494005    608.846662   -0.10882    0.03102   -0.00797    0    orth

 Final occupancy:  21

 !RKS STATE 1.1 Energy               -199.474940046103
 Nuclear energy                       195.74983609
 One-electron energy                 -697.00646499
 Two-electron energy                  304.42333115
 Density functional                    -2.64164229     PW92C=-2.64164229
 Virial quotient                       -0.89515238
 !RKS STATE 1.1 Dipole moment          -0.10882172     0.03101531    -0.00797063
 Dipole moment /Debye                  -0.27657910     0.07882788    -0.02025798

 Orbital energies:

         1.1          2.1          3.1          4.1          5.1          6.1          7.1          8.1          9.1         10.1
    -15.858820    -7.754670    -7.751552    -7.742817    -7.733523    -0.354708    -0.190827    -0.120158    -0.082708    -0.007204

        11.1         12.1         13.1         14.1         15.1         16.1         17.1         18.1         19.1         20.1
      0.051314     0.067492     0.090952     0.111103     0.135382     0.142588     0.172116     0.190687     0.209009     0.398676

        21.1         22.1         23.1
      0.465095     0.742504     0.791758

 HOMO     21.1     0.465095 =      12.6559eV
 LUMO     22.1     0.742504 =      20.2046eV
 LUMO-HOMO         0.277409 =       7.5487eV


 **********************************************************************************************************************************
 DATASETS  * FILE   NREC   LENGTH (MB)   RECORD NAMES
              1      20       32.79       500      610      700      900      950      970     1000      129      960     1100   
                                          VAR    BASINP    GEOM    SYMINP    ZMAT    AOBASIS   BASIS     P2S    ABASIS      S 
                                         1400     1410     1200     1210     1080     1600     1650     1300     1700     1800   
                                           T        V       H0       H01     AOSYM     SMH    MOLCAS    ERIS     OPER     GRID   

              2       5        3.02       700     1000      520     1800     2100   
                                         GEOM     BASIS   MCVARS    GRID      RKS  

 PROGRAMS   *        TOTAL        KS       INT
 CPU TIMES  *         4.23      3.47      0.61
 REAL TIME  *         4.88 SEC
 DISK USED  *        36.55 MB      
 **********************************************************************************************************************************


 PROGRAM * Intrinsic Basis Bonding Analysis (IBBA)          Author: G. Knizia

 Molecular orbitals read from record     2100.2  Type=RKS/CANONICAL (state 1.1)
 Fock matrix read from record            2100.2  Type=RKS/TOTAL (state 1.1)
 Orbital energies read from record       2100.2  Type=RKS/CANONICAL (state 1.1)
 Density matrix read from record         2100.2  Type=RKS/CHARGE (state 1.1)

 Number of core orbitals:           5 (   5 )
 Number of closed-shell orbitals:  16 (  16 )

 Basis set MINAO-AUTO-PP generated.      Number of basis functions:   35 

 Polarized AO type:                A = (O Ot + (1-O)(1-Ot)) P12
 Orthogonalization method:         Symmetric (Loewdin)
 Localization functional:          L = sum[A,i] <i|n_A|i>^4 -> max

 Localization group 1:  21 orbitals, occupancy  2.000
 Iterative localization: IB/PM,    7 iter; Final gradient 0.51E-08

 Bond order analysis:       [THRPRINT= 0.020]

   CEN ATOM   CEN ATOM     WIBERG.BO      RENORM.BO
     1   O  -   2   C       1.101265       1.050237
     1   O  -   5   C       1.047947       1.003622
     1   O  -   4   H       0.056331       0.031772
     1   O  -  15   H       0.052854       0.029988
     1   O  -   7   C       0.044754       0.024031
     1   O  -   6   H       0.040925       0.023384
     1   O  -   8   C       0.020583       0.012054

     2   C  -   1   O       1.101265       1.050237
     2   C  -   3   H       0.954433       0.952027
     2   C  -  15   H       0.934318       0.898113
     2   C  -   4   H       0.932531       0.894579

     3   H  -   2   C       0.954433       0.952027

     4   H  -   2   C       0.932531       0.894579
     4   H  -   1   O       0.056331       0.031772

     5   C  -   1   O       1.047947       1.003622
     5   C  -   8   C       0.989180       0.984356
     5   C  -   7   C       0.976744       0.947387
     5   C  -   6   H       0.914899       0.888147

     6   H  -   5   C       0.914899       0.888147
     6   H  -   1   O       0.040925       0.023384

     7   C  -   5   C       0.976744       0.947387
     7   C  -  13   H       0.968847       0.981429
     7   C  -  12   H       0.968309       0.984189
     7   C  -  14   H       0.966364       0.979530
     7   C  -   1   O       0.044754       0.024031

     8   C  -   5   C       0.989180       0.984356
     8   C  -   9   H       0.969655       0.985603
     8   C  -  10   H       0.969549       0.983925
     8   C  -  11   H       0.968354       0.981798
     8   C  -   1   O       0.020583       0.012054

     9   H  -   8   C       0.969655       0.985603

    10   H  -   8   C       0.969549       0.983925

    11   H  -   8   C       0.968354       0.981798

    12   H  -   7   C       0.968309       0.984189

    13   H  -   7   C       0.968847       0.981429

    14   H  -   7   C       0.966364       0.979530

    15   H  -   2   C       0.934318       0.898113
    15   H  -   1   O       0.052854       0.029988


 Valency analysis:

   CEN ATOM   TOT.VALENCE
     1   O       2.420734
     2   C       3.947968
     3   H       0.996999
     4   H       0.999511
     5   C       3.969242
     6   H       0.999345
     7   C       3.950098
     8   C       3.951400
     9   H       0.995718
    10   H       0.995757
    11   H       0.996167
    12   H       0.995878
    13   H       0.996638
    14   H       0.996461
    15   H       0.999406

 Total charge composition:

   CEN ATOM         s          p       ELECTRONS ->P.CHARGE
     1   O       3.55562    4.35081      7.90643    0.09357
     2   C       2.90872    3.25335      6.16207   -0.16207
     3   H       0.94522                 0.94522    0.05478
     4   H       0.97790                 0.97790    0.02210
     5   C       2.88818    3.12171      6.00990   -0.00990
     6   H       0.97441                 0.97441    0.02559
     7   C       2.88650    3.33097      6.21747   -0.21747
     8   C       2.88623    3.31891      6.20514   -0.20514
     9   H       0.93456                 0.93456    0.06544
    10   H       0.93487                 0.93487    0.06513
    11   H       0.93809                 0.93809    0.06191
    12   H       0.93580                 0.93580    0.06420
    13   H       0.94202                 0.94202    0.05798
    14   H       0.94051                 0.94051    0.05949
    15   H       0.97563                 0.97563    0.02437

 Total charge composition, AO contributions:

   CEN ATOM SHL      SPHERICAL COMPONENTS
     1   O  1s       1.99890
     1   O  2s       1.55671
     1   O  2p       1.21559    1.33837    1.79686

     2   C  1s       1.99823
     2   C  2s       0.91049
     2   C  2p       0.97630    1.14003    1.13702

     3   H  1s       0.94522

     4   H  1s       0.97790

     5   C  1s       1.99834
     5   C  2s       0.88985
     5   C  2p       1.05335    0.97075    1.09761

     6   H  1s       0.97441

     7   C  1s       1.99813
     7   C  2s       0.88836
     7   C  2p       1.11962    1.10921    1.10213

     8   C  1s       1.99810
     8   C  2s       0.88813
     8   C  2p       1.07453    1.12303    1.12135

     9   H  1s       0.93456

    10   H  1s       0.93487

    11   H  1s       0.93809

    12   H  1s       0.93580

    13   H  1s       0.94202

    14   H  1s       0.94051

    15   H  1s       0.97563

 Summary of localized orbital composition:   [THRPRINT= 0.020]

   ORB  GRP  ORB.ENERGY      CENTERS/CHARGES
     1   1   -15.760426      O  1   2.000
     2   1    -7.675787      C  5   2.000
     3   1    -7.671628      C  2   2.000
     4   1    -7.659729      C  8   2.000
     5   1    -7.650862      C  7   2.000
     6   1    -0.106600      O  1   1.064   C  2   0.924
     7   1    -0.089205      O  1   1.062   C  5   0.912   (other: 0.026)
     8   1    -0.000671      C  8   0.996   C  5   0.984
     9   1     0.008133      C  7   1.007   C  5   0.980
    10   1     0.031458      C  2   1.064   H  3   0.927
    11   1     0.036635      C  8   1.059   H 11   0.930
    12   1     0.037000      C  8   1.063   H 10   0.926
    13   1     0.037460      C  8   1.063   H  9   0.926
    14   1     0.039385      C  2   1.053   H  4   0.943
    15   1     0.039949      C  5   1.041   H  6   0.939
    16   1     0.040284      C  2   1.054   H 15   0.943
    17   1     0.040448      C  7   1.058   H 14   0.930
    18   1     0.040648      C  7   1.055   H 13   0.933
    19   1     0.042968      C  7   1.061   H 12   0.927
    20   1     0.227604      O  1   1.942   (other: 0.058)
    21   1     0.430366      O  1   1.825   C  2   0.043   C  5   0.038   H  4   0.028   H 15   0.024   C  7   0.022   (other: 0.021)

 Localized orbitals saved to record      2100.2  (orbital set 2)


 **********************************************************************************************************************************
 DATASETS  * FILE   NREC   LENGTH (MB)   RECORD NAMES
              1      20       32.79       500      610      700      900      950      970     1000      129      960     1100   
                                          VAR    BASINP    GEOM    SYMINP    ZMAT    AOBASIS   BASIS     P2S    ABASIS      S 
                                         1400     1410     1200     1210     1080     1600     1650     1300     1700     1800   
                                           T        V       H0       H01     AOSYM     SMH    MOLCAS    ERIS     OPER     GRID   

              2       5        3.03       700     1000      520     1800     2100   
                                         GEOM     BASIS   MCVARS    GRID      RKS  

 PROGRAMS   *        TOTAL      IBBA        KS       INT
 CPU TIMES  *         4.27      0.03      3.47      0.61
 REAL TIME  *         5.03 SEC
 DISK USED  *        36.55 MB      
 **********************************************************************************************************************************
 Molecular orbitals read from record     2100.2  Type=RKS/LOCAL(IBO)  
 Occupation numbers read from record     2100.2  Type=RKS/LOCAL(IBO)  
 Orbital energies read from record       2100.2  Type=RKS/LOCAL(IBO)  
 Redundancy group numbers read from rec  2100.2  Type=RKS/LOCAL(IBO)  

 IBBA/STO-3G energy=      0.000000000000

        KS-SCF  
   -199.47494005
 **********************************************************************************************************************************
 Molpro calculation terminated
