
 Primary working directories    : /tmp/sb13343
 Secondary working directories  : /tmp/sb13343
 Wavefunction directory         : /panfs/panasas01/chem/sb13343/wfu/
 Main file repository           : /tmp/sb13343/

 SHA1      : b4a5b34a9e711420743f49e6833241d17c61fb3c
 NAME      : 2099.9.b4a5b34
 ARCHNAME  : linux/x86_64_openmp
 FC        : /cm/shared/languages/GCC-6.1/bin/gfortran
 BLASLIB   : -lblas
 id        : simonbennie

 Nodes     nprocs
 node32-013    1

 Using customized tuning parameters: mindgm=1; mindgv=20; mindgc=4; mindgr=1; noblas=0; minvec=7
 default implementation of scratch files=df  

 memory,500,m
 geomtyp=xyz
 nosym
 noorient
 geometry={
 O          0.25818        0.93788        0.04074
 C          1.63656        1.04230        0.32330
 H          1.89907        2.10041        0.23555
 H          2.26234        0.47024       -0.37847
 C         -0.29581       -0.36510        0.22961
 H          0.07373       -0.77023        1.18842
 C          0.09996       -1.32219       -0.89979
 C         -1.80707       -0.17660        0.31883
 H         -2.30941       -1.13436        0.49338
 H         -2.05917        0.50650        1.13581
 H         -2.19015        0.25071       -0.61475
 H         -0.34617       -2.31074       -0.74107
 H         -0.25158       -0.93408       -1.86253
 H          1.18531       -1.45552       -0.96063
 H          1.86878        0.70360        1.34661
 }
 basis={ default,svp }
 {ks,M05,direct;wf,42,1,0}
 {ibba,bonds=1}

 Variables initialized (895), CPU time= 0.01 sec
 Commands  initialized (725), CPU time= 0.01 sec, 591 directives.
 Default parameters read. Elapsed time= 0.08 sec

 Checking input...
 Passed
1


                                         ***  PROGRAM SYSTEM MOLPRO  ***
                                       Copyright, TTI GmbH Stuttgart, 2015
                                    Version 2099.9 linked May 26 2017 16:03:21


 **********************************************************************************************************************************
 LABEL *                                                                                 
  64 bit serial version                                                                  DATE: 07-Jun-17          TIME: 22:05:56  
 **********************************************************************************************************************************

 SHA1:             b4a5b34a9e711420743f49e6833241d17c61fb3c
 **********************************************************************************************************************************
 SETTING GEOMTYP        =    XYZ

 Variable memory set to  500000000 words,  buffer space 

 ZSYMEL=NOSYM

 SETTING BASIS          =    SVP


 Recomputing integrals since basis changed


 Using spherical harmonics

 Library entry O      S def2-SVP             selected for orbital group  1
 Library entry O      P def2-SVP             selected for orbital group  1
 Library entry O      D def2-SVP             selected for orbital group  1
 Library entry C      S def2-SVP             selected for orbital group  2
 Library entry C      P def2-SVP             selected for orbital group  2
 Library entry C      D def2-SVP             selected for orbital group  2
 Library entry H      S def2-SVP             selected for orbital group  3
 Library entry H      P def2-SVP             selected for orbital group  3


 PROGRAM * SEWARD (Integral evaluation for generally contracted gaussian basis sets)     Author: Roland Lindh, 1990

 Geometry written to block  1 of record 700


 Point group  C1  



 ATOMIC COORDINATES

 NR  ATOM    CHARGE       X              Y              Z

   1  O       8.00    0.487889491    1.772336338    0.076987442
   2  C       6.00    3.092650186    1.969661540    0.610948456
   3  H       1.00    3.588722191    3.969199649    0.445124989
   4  H       1.00    4.275203001    0.888624813   -0.715204646
   5  C       6.00   -0.558999885   -0.689939008    0.433900015
   6  H       1.00    0.139329507   -1.455523753    2.245788321
   7  C       6.00    0.188897023   -2.498576985   -1.700356670
   8  C       6.00   -3.414867388   -0.333725634    0.602501380
   9  H       1.00   -4.364152409   -2.143629727    0.932353075
  10  H       1.00   -3.891267344    0.957146282    2.146369830
  11  H       1.00   -4.138783672    0.473773237   -1.161709135
  12  H       1.00   -0.654166493   -4.366665745   -1.400419339
  13  H       1.00   -0.475417298   -1.765155378   -3.519671599
  14  H       1.00    2.239911273   -2.750534169   -1.815327607
  15  H       1.00    3.531482387    1.329611301    2.544724097

 Bond lengths in Bohr (Angstrom)

  1- 2  2.666238902   1- 5  2.699289504   2- 3  2.066818209   2- 4  2.079844613   2-15  2.083680934
       ( 1.410912866)       ( 1.428402491)       ( 1.093713095)       ( 1.100606371)       ( 1.102636465)

  5- 6  2.087276497   5- 7  2.895785336   5- 8  2.882931422   7-12  2.071345966   7-13  2.071020903
       ( 1.104539155)       ( 1.532383608)       ( 1.525581609)       ( 1.096109081)       ( 1.095937065)

  7-14  2.069628032   8- 9  2.070192508   8-10  2.068051501   8-11  2.070880961
       ( 1.095199989)       ( 1.095498697)       ( 1.094365725)       ( 1.095863011)

 Bond angles

  1- 2- 3  106.85884507   1- 2- 4  112.91125973   1- 2-15  111.64621834   1- 5- 6  108.63888518

  1-5-7  111.84608248   1-5-8  106.21369660   2-1-5  114.82992588   3-2-4  108.37425913

  3- 2-15  108.72850466   4- 2-15  108.20064699   5- 7-12  110.57572754   5- 7-13  110.08520206

  5- 7-14  111.89623115   5- 8- 9  110.82645738   5- 8-10  110.42517473   5- 8-11  110.16013005

  6- 5- 7  108.92239636   6- 5- 8  109.02480146   7- 5- 8  112.09364518   9- 8-10  108.73162751

  9- 8-11  108.44218100  10- 8-11  108.18344616  12- 7-13  108.42317703  12- 7-14  107.55382926

 13- 7-14  108.19151953

 NUCLEAR CHARGE:                   42
 NUMBER OF PRIMITIVE AOS:         195
 NUMBER OF SYMMETRY AOS:          190
 NUMBER OF CONTRACTIONS:          120   ( 120A   )
 NUMBER OF CORE ORBITALS:           5   (   5A   )
 NUMBER OF VALENCE ORBITALS:       30   (  30A   )


 NUCLEAR REPULSION ENERGY  195.74983609


 Eigenvalues of metric

         1 0.241E-02 0.514E-02 0.104E-01 0.150E-01 0.214E-01 0.243E-01 0.289E-01 0.305E-01


 Contracted 2-electron integrals neglected if value below      1.0D-11
 AO integral compression algorithm  1   Integral accuracy      1.0D-11

     97.518 MB (compressed) written to integral file ( 44.4%)


 NUMBER OF SORTED TWO-ELECTRON INTEGRALS:   26357430.     BUFFER LENGTH:  32768
 NUMBER OF SEGMENTS:   2  SEGMENT LENGTH:   15997996      RECORD LENGTH: 524288

 Memory used in sort:      16.56 MW

 SORT1 READ    27501115. AND WROTE    22923365. INTEGRALS IN     67 RECORDS. CPU TIME:     0.33 SEC, REAL TIME:     0.61 SEC
 SORT2 READ    22923365. AND WROTE    26357430. INTEGRALS IN    372 RECORDS. CPU TIME:     0.60 SEC, REAL TIME:     0.74 SEC

 FILE SIZES:   FILE 1:   128.3 MBYTE,  FILE 4:   281.1 MBYTE,   TOTAL:    409.3 MBYTE

 OPERATOR DM      FOR CENTER  0  COORDINATES:    0.000000    0.000000    0.000000


 **********************************************************************************************************************************
 DATASETS  * FILE   NREC   LENGTH (MB)   RECORD NAMES
              1      19      116.03       500      610      700      900      950      970     1000      129      960     1100   
                                          VAR    BASINP    GEOM    SYMINP    ZMAT    AOBASIS   BASIS     P2S    ABASIS      S 
                                         1400     1410     1200     1210     1080     1600     1650     1300     1700   
                                           T        V       H0       H01     AOSYM     SMH    MOLCAS    ERIS     OPER   

 PROGRAMS   *        TOTAL       INT
 CPU TIMES  *         3.86      3.71
 REAL TIME  *         4.87 SEC
 DISK USED  *       409.85 MB      
 **********************************************************************************************************************************

 Density functional group M05=XC-M05
 Functional: XC-M05(via MFM 1.6)                                               Gradient terms: 1
 Use grid at  1800.2


 Exact exchange will be calculated, factor:  0.2800

 Functional: XC-M05                    Factor:  1.0000

 Generated new metagrid on record  1800.2 with target accuracy 1.0D-06 and 52852 points in CPU time    1.3
 Computed new grid on record 1800.1 in CPU time    1.4
   99539 words reserved for DFT integration

 PROGRAM * RKS-SCF (Restricted closed shell Kohn-Sham)     Authors: W. Meyer, H.-J. Werner, P.J. Knowles, 1993

 NUMBER OF ELECTRONS:      21+   21-    SPACE SYMMETRY=1    SPIN SYMMETRY: Singlet 
 CONVERGENCE THRESHOLDS:    1.00E-05 (Density)    1.00E-06 (Energy)
 MAX. NUMBER OF ITERATIONS:       60
 INTERPOLATION TYPE:            DIIS
 INTERPOLATION STEPS:              2 (START)      1 (STEP)
 LEVEL SHIFTS:                  0.00 (CLOSED)  0.00 (OPEN) 



 Use fine grid record 1800.2 for energy threshold  1.0D-06
 Orbital guess generated from atomic densities. Full valence occupancy:   21

 Molecular orbital dump at record        2100.2

 Initial occupancy:  21

 ITERATION    DDIFF          GRAD             ENERGY        2-EL.EN.            DIPOLE MOMENTS         DIIS   ORB.
    1      0.000D+00      0.000D+00      -233.15813455    609.107408    0.47549   -0.76589    0.26677    0    start
    2      0.000D+00      0.788D-02      -233.12835120    583.820147   -0.06640    0.10728   -0.11004    1    diag
    3      0.176D-01      0.916D-02      -233.30499799    597.650181    0.29435   -0.45291    0.17796    2    diag
    4      0.100D-01      0.989D-03      -233.30633889    597.175813    0.24525   -0.36614    0.12636    3    diag
    5      0.980D-03      0.422D-03      -233.30661739    597.270046    0.25576   -0.39706    0.12939    4    diag
    6      0.357D-03      0.810D-04      -233.30662716    597.319891    0.25692   -0.39355    0.13353    5    diag
    7      0.901D-04      0.361D-04      -233.30662965    597.311212    0.25698   -0.39450    0.13352    6    diag
    8      0.318D-04      0.634D-05      -233.30662973    597.311954    0.25693   -0.39425    0.13266    7    diag
    9      0.586D-05      0.106D-05      -233.30662973    597.311692    0.25690   -0.39435    0.13305    0    orth

 Final occupancy:  21

 !RKS STATE 1.1 Energy               -233.306629731504
 Nuclear energy                       195.74983609
 One-electron energy                 -702.96649319
 Two-electron energy                  298.65584596
 SCF exchange energy                  -32.47933851     Factor= 0.2800
 Density functional                   -24.74581859     XC-M05=-24.74581859
 Virial quotient                       -1.00998895
 !RKS STATE 1.1 Dipole moment           0.25690154    -0.39434603     0.13304504
 Dipole moment /Debye                   0.65293582    -1.00226198     0.33814462

 Orbital energies:

         1.1          2.1          3.1          4.1          5.1          6.1          7.1          8.1          9.1         10.1
    -19.168798   -10.268689   -10.258265   -10.208172   -10.204691    -1.040248    -0.793737    -0.703944    -0.681524    -0.585500

        11.1         12.1         13.1         14.1         15.1         16.1         17.1         18.1         19.1         20.1
     -0.505056    -0.473842    -0.466055    -0.432833    -0.405014    -0.396743    -0.386299    -0.361772    -0.353578    -0.316545

        21.1         22.1         23.1
     -0.263609     0.060305     0.088912

 HOMO     21.1    -0.263609 =      -7.1732eV
 LUMO     22.1     0.060305 =       1.6410eV
 LUMO-HOMO         0.323913 =       8.8141eV


 **********************************************************************************************************************************
 DATASETS  * FILE   NREC   LENGTH (MB)   RECORD NAMES
              1      20      117.72       500      610      700      900      950      970     1000      129      960     1100   
                                          VAR    BASINP    GEOM    SYMINP    ZMAT    AOBASIS   BASIS     P2S    ABASIS      S 
                                         1400     1410     1200     1210     1080     1600     1650     1300     1700     1800   
                                           T        V       H0       H01     AOSYM     SMH    MOLCAS    ERIS     OPER     GRID   

              2       5        3.30       700     1000      520     1800     2100   
                                         GEOM     BASIS   MCVARS    GRID      RKS  

 PROGRAMS   *        TOTAL        KS       INT
 CPU TIMES  *        32.98     29.11      3.71
 REAL TIME  *        34.33 SEC
 DISK USED  *       409.85 MB      
 **********************************************************************************************************************************


 PROGRAM * Intrinsic Basis Bonding Analysis (IBBA)          Author: G. Knizia

 Molecular orbitals read from record     2100.2  Type=RKS/CANONICAL (state 1.1)
 Fock matrix read from record            2100.2  Type=RKS/TOTAL (state 1.1)
 Orbital energies read from record       2100.2  Type=RKS/CANONICAL (state 1.1)
 Density matrix read from record         2100.2  Type=RKS/CHARGE (state 1.1)

 Number of core orbitals:           5 (   5 )
 Number of closed-shell orbitals:  16 (  16 )

 Basis set MINAO-AUTO-PP generated.      Number of basis functions:   35 

 Polarized AO type:                A = (O Ot + (1-O)(1-Ot)) P12
 Orthogonalization method:         Symmetric (Loewdin)
 Localization functional:          L = sum[A,i] <i|n_A|i>^4 -> max

 Localization group 1:  21 orbitals, occupancy  2.000
 Iterative localization: IB/PM,    7 iter; Final gradient 0.33E-08

 Bond order analysis:       [THRPRINT= 0.020]

   CEN ATOM   CEN ATOM     WIBERG.BO      RENORM.BO
     1   O  -   2   C       0.986528       1.019052
     1   O  -   5   C       0.942427       0.963061
     1   O  -   4   H       0.034294       0.020277
     1   O  -  15   H       0.032995       0.019650
     1   O  -   7   C       0.029691       0.015428
     1   O  -   6   H       0.025928       0.015500

     2   C  -   1   O       0.986528       1.019052
     2   C  -   3   H       0.958093       0.977248
     2   C  -  15   H       0.949523       0.936856
     2   C  -   4   H       0.949441       0.936515

     3   H  -   2   C       0.958093       0.977248

     4   H  -   2   C       0.949441       0.936515
     4   H  -   1   O       0.034294       0.020277

     5   C  -   8   C       1.012896       1.005725
     5   C  -   7   C       1.005235       0.980741
     5   C  -   1   O       0.942427       0.963061
     5   C  -   6   H       0.926123       0.917180

     6   H  -   5   C       0.926123       0.917180
     6   H  -   1   O       0.025928       0.015500

     7   C  -   5   C       1.005235       0.980741
     7   C  -  14   H       0.963317       0.984339
     7   C  -  12   H       0.961242       0.986741
     7   C  -  13   H       0.959825       0.979361
     7   C  -   1   O       0.029691       0.015428

     8   C  -   5   C       1.012896       1.005725
     8   C  -   9   H       0.963734       0.987771
     8   C  -  10   H       0.960962       0.984496
     8   C  -  11   H       0.959427       0.979532

     9   H  -   8   C       0.963734       0.987771

    10   H  -   8   C       0.960962       0.984496

    11   H  -   8   C       0.959427       0.979532

    12   H  -   7   C       0.961242       0.986741

    13   H  -   7   C       0.959825       0.979361

    14   H  -   7   C       0.963317       0.984339

    15   H  -   2   C       0.949523       0.936856
    15   H  -   1   O       0.032995       0.019650


 Valency analysis:

   CEN ATOM   TOT.VALENCE
     1   O       2.104021
     2   C       3.864065
     3   H       0.978448
     4   H       0.987583
     5   C       3.912765
     6   H       0.989944
     7   C       3.940219
     8   C       3.939252
     9   H       0.982720
    10   H       0.980075
    11   H       0.981363
    12   H       0.981757
    13   H       0.981441
    14   H       0.982801
    15   H       0.987892

 Total charge composition:

   CEN ATOM         s          p       ELECTRONS ->P.CHARGE
     1   O       3.60156    4.80729      8.40885   -0.40885
     2   C       3.02063    3.15600      6.17663   -0.17663
     3   H       0.85319                 0.85319    0.14681
     4   H       0.88857                 0.88857    0.11143
     5   C       2.95609    2.91890      5.87499    0.12501
     6   H       0.89972                 0.89972    0.10028
     7   C       3.03147    3.38597      6.41745   -0.41745
     8   C       3.02934    3.37287      6.40221   -0.40221
     9   H       0.86855                 0.86855    0.13145
    10   H       0.85885                 0.85885    0.14115
    11   H       0.86348                 0.86348    0.13652
    12   H       0.86493                 0.86493    0.13507
    13   H       0.86377                 0.86377    0.13623
    14   H       0.86885                 0.86885    0.13115
    15   H       0.88996                 0.88996    0.11004

 Total charge composition, AO contributions:

   CEN ATOM SHL      SPHERICAL COMPONENTS
     1   O  1s       1.99714
     1   O  2s       1.60442
     1   O  2p       1.39471    1.52867    1.88391

     2   C  1s       1.99153
     2   C  2s       1.02910
     2   C  2p       0.82799    1.17967    1.14835

     3   H  1s       0.85319

     4   H  1s       0.88857

     5   C  1s       1.99212
     5   C  2s       0.96397
     5   C  2p       1.00700    0.82645    1.08544

     6   H  1s       0.89972

     7   C  1s       1.99088
     7   C  2s       1.04060
     7   C  2p       1.15551    1.12080    1.10967

     8   C  1s       1.99080
     8   C  2s       1.03853
     8   C  2p       1.04760    1.15715    1.16812

     9   H  1s       0.86855

    10   H  1s       0.85885

    11   H  1s       0.86348

    12   H  1s       0.86493

    13   H  1s       0.86377

    14   H  1s       0.86885

    15   H  1s       0.88996

 Summary of localized orbital composition:   [THRPRINT= 0.020]

   ORB  GRP  ORB.ENERGY      CENTERS/CHARGES
     1   1   -19.022636      O  1   2.000
     2   1   -10.169971      C  5   2.000
     3   1   -10.147948      C  2   2.000
     4   1   -10.092563      C  7   2.000
     5   1   -10.088311      C  8   2.000
     6   1    -0.773022      O  1   1.258   C  2   0.734
     7   1    -0.756346      O  1   1.277   C  5   0.704
     8   1    -0.593255      C  5   0.995   C  8   0.992
     9   1    -0.591913      C  7   1.007   C  5   0.985
    10   1    -0.563649      O  1   1.961   (other: 0.039)
    11   1    -0.530499      C  2   1.130   H  4   0.868
    12   1    -0.529333      C  2   1.128   H 15   0.870
    13   1    -0.527675      C  2   1.147   H  3   0.846
    14   1    -0.525270      C  5   1.106   H  6   0.875
    15   1    -0.512690      C  7   1.128   H 12   0.857
    16   1    -0.510967      C  7   1.127   H 14   0.862
    17   1    -0.509867      C  8   1.124   H  9   0.862
    18   1    -0.506637      C  7   1.133   H 13   0.857
    19   1    -0.503162      C  8   1.133   H 11   0.856
    20   1    -0.502872      C  8   1.137   H 10   0.852
    21   1    -0.316328      O  1   1.908   (other: 0.092)

 Localized orbitals saved to record      2100.2  (orbital set 2)


 **********************************************************************************************************************************
 DATASETS  * FILE   NREC   LENGTH (MB)   RECORD NAMES
              1      20      117.72       500      610      700      900      950      970     1000      129      960     1100   
                                          VAR    BASINP    GEOM    SYMINP    ZMAT    AOBASIS   BASIS     P2S    ABASIS      S 
                                         1400     1410     1200     1210     1080     1600     1650     1300     1700     1800   
                                           T        V       H0       H01     AOSYM     SMH    MOLCAS    ERIS     OPER     GRID   

              2       5        3.42       700     1000      520     1800     2100   
                                         GEOM     BASIS   MCVARS    GRID      RKS  

 PROGRAMS   *        TOTAL      IBBA        KS       INT
 CPU TIMES  *        33.03      0.04     29.11      3.71
 REAL TIME  *        34.47 SEC
 DISK USED  *       409.85 MB      
 **********************************************************************************************************************************
 Molecular orbitals read from record     2100.2  Type=RKS/LOCAL(IBO)  
 Occupation numbers read from record     2100.2  Type=RKS/LOCAL(IBO)  
 Orbital energies read from record       2100.2  Type=RKS/LOCAL(IBO)  
 Redundancy group numbers read from rec  2100.2  Type=RKS/LOCAL(IBO)  

 IBBA/SVP energy=      0.000000000000

        KS-SCF  
   -233.30662973
 **********************************************************************************************************************************
 Molpro calculation terminated
