
 Primary working directories    : /tmp/sb13343
 Secondary working directories  : /tmp/sb13343
 Wavefunction directory         : /panfs/panasas01/chem/sb13343/wfu/
 Main file repository           : /tmp/sb13343/

 SHA1      : b4a5b34a9e711420743f49e6833241d17c61fb3c
 NAME      : 2099.9.b4a5b34
 ARCHNAME  : linux/x86_64_openmp
 FC        : /cm/shared/languages/GCC-6.1/bin/gfortran
 BLASLIB   : -lblas
 id        : simonbennie

 Nodes     nprocs
 node34-036    1

 Using customized tuning parameters: mindgm=1; mindgv=20; mindgc=4; mindgr=1; noblas=0; minvec=7
 default implementation of scratch files=df  

 memory,500,m
 geomtyp=xyz
 nosym
 noorient
 geometry={
 C          0.00000        0.00000        0.00000
 H          0.00000        0.00000        1.10056
 C          1.46209        0.00000       -0.46855
 C         -0.73105       -1.26621       -0.46855
 C         -0.73105        1.26621       -0.46855
 H          1.52118        0.00000       -1.56505
 H         -0.76059       -1.31738       -1.56505
 H         -0.76059        1.31738       -1.56505
 H          1.99755        0.88622       -0.10723
 H          1.99755       -0.88622       -0.10723
 H         -0.23129       -2.17304       -0.10723
 H         -1.76626       -1.28682       -0.10723
 H         -1.76626        1.28682       -0.10723
 H         -0.23129        2.17304       -0.10723
 }
 basis={ default,sto-3g }
 {ks,PBE0,direct;wf,34,1,0}
 {ibba,bonds=1}

 Variables initialized (895), CPU time= 0.00 sec
 Commands  initialized (725), CPU time= 0.01 sec, 591 directives.
 Default parameters read. Elapsed time= 4.00 sec

 Checking input...
 Passed
1


                                         ***  PROGRAM SYSTEM MOLPRO  ***
                                       Copyright, TTI GmbH Stuttgart, 2015
                                    Version 2099.9 linked May 26 2017 16:03:21


 **********************************************************************************************************************************
 LABEL *                                                                                 
  64 bit serial version                                                                  DATE: 07-Jun-17          TIME: 18:46:23  
 **********************************************************************************************************************************

 SHA1:             b4a5b34a9e711420743f49e6833241d17c61fb3c
 **********************************************************************************************************************************
 SETTING GEOMTYP        =    XYZ

 Variable memory set to  500000000 words,  buffer space 

 ZSYMEL=NOSYM

 SETTING BASIS          =    STO-3G


 Recomputing integrals since basis changed


 Using spherical harmonics

 Library entry C      S STO-3G               selected for orbital group  1
 Library entry C      P STO-3G               selected for orbital group  1
 Library entry H      S STO-3G               selected for orbital group  2


 PROGRAM * SEWARD (Integral evaluation for generally contracted gaussian basis sets)     Author: Roland Lindh, 1990

 Geometry written to block  1 of record 700


 Point group  C1  



 ATOMIC COORDINATES

 NR  ATOM    CHARGE       X              Y              Z

   1  C       6.00    0.000000000    0.000000000    0.000000000
   2  H       1.00    0.000000000    0.000000000    2.079756984
   3  C       6.00    2.762949669    0.000000000   -0.885431176
   4  C       6.00   -1.381484283   -2.392790116   -0.885431176
   5  C       6.00   -1.381484283    2.392790116   -0.885431176
   6  H       1.00    2.874613586    0.000000000   -2.957515871
   7  H       1.00   -1.437306793   -2.489487402   -2.957515871
   8  H       1.00   -1.437306793    2.489487402   -2.957515871
   9  H       1.00    3.774822420    1.674713086   -0.202635332
  10  H       1.00    3.774822420   -1.674713086   -0.202635332
  11  H       1.00   -0.437074755   -4.106450458   -0.202635332
  12  H       1.00   -3.337747665   -2.431737372   -0.202635332
  13  H       1.00   -3.337747665    2.431737372   -0.202635332
  14  H       1.00   -0.437074755    4.106450458   -0.202635332

 Bond lengths in Bohr (Angstrom)

 1-2  2.079756984  1-3  2.901358172  1-4  2.901367218  1-5  2.901367218  3-6  2.075091279
     ( 1.100560000)     ( 1.535332625)     ( 1.535337412)     ( 1.535337412)     ( 1.098091015)

  3- 9  2.072380406   3-10  2.072380406   4- 7  2.075090722   4-11  2.072378172   4-12  2.072364222
       ( 1.096656483)       ( 1.096656483)       ( 1.098090721)       ( 1.096655301)       ( 1.096647919)

  5- 8  2.075090722   5-13  2.072364222   5-14  2.072378172
       ( 1.098090721)       ( 1.096647919)       ( 1.096655301)

 Bond angles

  1- 3- 6  110.85354902   1- 3- 9  111.37220114   1- 3-10  111.37220114   1- 4- 7  110.85320625

  1- 4-11  111.37204414   1- 4-12  111.37216555   1- 5- 8  110.85320625   1- 5-13  111.37216555

  1- 5-14  111.37204414   2- 1- 3  107.76888332   2- 1- 4  107.76882608   2- 1- 5  107.76882608

  3-1-4  111.11870751   3-1-5  111.11870751   4-1-5  111.11845005   6-3-9  107.62119374

  6- 3-10  107.62119374   7- 4-11  107.62125572   7- 4-12  107.62162102   8- 5-13  107.62162102

  8- 5-14  107.62125572   9- 3-10  107.82352924  11- 4-12  107.82360822  13- 5-14  107.82360822

 NUCLEAR CHARGE:                   34
 NUMBER OF PRIMITIVE AOS:          90
 NUMBER OF SYMMETRY AOS:           90
 NUMBER OF CONTRACTIONS:           30   (  30A   )
 NUMBER OF CORE ORBITALS:           4   (   4A   )
 NUMBER OF VALENCE ORBITALS:       26   (  26A   )


 NUCLEAR REPULSION ENERGY  134.07051350


 Eigenvalues of metric

         1 0.203E+00 0.229E+00 0.229E+00 0.287E+00 0.356E+00 0.362E+00 0.364E+00 0.364E+00


 Contracted 2-electron integrals neglected if value below      1.0D-11
 AO integral compression algorithm  1   Integral accuracy      1.0D-11

     1.049 MB (compressed) written to integral file ( 95.2%)


 NUMBER OF SORTED TWO-ELECTRON INTEGRALS:     108345.     BUFFER LENGTH:  32768
 NUMBER OF SEGMENTS:   1  SEGMENT LENGTH:     108345      RECORD LENGTH: 524288

 Memory used in sort:       0.67 MW

 SORT1 READ      123158. AND WROTE      102148. INTEGRALS IN      1 RECORDS. CPU TIME:     0.00 SEC, REAL TIME:     0.01 SEC
 SORT2 READ      102148. AND WROTE      108345. INTEGRALS IN      4 RECORDS. CPU TIME:     0.01 SEC, REAL TIME:     0.01 SEC

 FILE SIZES:   FILE 1:    31.3 MBYTE,  FILE 4:     4.2 MBYTE,   TOTAL:     35.5 MBYTE

 OPERATOR DM      FOR CENTER  0  COORDINATES:    0.000000    0.000000    0.000000


 **********************************************************************************************************************************
 DATASETS  * FILE   NREC   LENGTH (MB)   RECORD NAMES
              1      19       30.69       500      610      700      900      950      970     1000      129      960     1100   
                                          VAR    BASINP    GEOM    SYMINP    ZMAT    AOBASIS   BASIS     P2S    ABASIS      S 
                                         1400     1410     1200     1210     1080     1600     1650     1300     1700   
                                           T        V       H0       H01     AOSYM     SMH    MOLCAS    ERIS     OPER   

 PROGRAMS   *        TOTAL       INT
 CPU TIMES  *         0.48      0.34
 REAL TIME  *         4.96 SEC
 DISK USED  *        35.98 MB      
 **********************************************************************************************************************************

 Density functional group PBE0=PBEX+PBEC
 Functional: PBEX(Automatically generated (new) PBEX)                          Gradient terms: 1
 Functional: PBEC(Automatically generated (new) PBEC)                          Gradient terms: 1
 Use grid at  1800.2


 Exact exchange will be calculated, factor:  0.2500

 Functional: PBEX                      Factor:  0.7500
 Functional: PBEC                      Factor:  1.0000

 Generated new metagrid on record  1800.2 with target accuracy 1.0D-06 and 45620 points in CPU time    1.0
 Computed new grid on record 1800.1 in CPU time    1.2
   28286 words reserved for DFT integration

 PROGRAM * RKS-SCF (Restricted closed shell Kohn-Sham)     Authors: W. Meyer, H.-J. Werner, P.J. Knowles, 1993

 NUMBER OF ELECTRONS:      17+   17-    SPACE SYMMETRY=1    SPIN SYMMETRY: Singlet 
 CONVERGENCE THRESHOLDS:    1.00E-05 (Density)    1.00E-06 (Energy)
 MAX. NUMBER OF ITERATIONS:       60
 INTERPOLATION TYPE:            DIIS
 INTERPOLATION STEPS:              2 (START)      1 (STEP)
 LEVEL SHIFTS:                  0.00 (CLOSED)  0.00 (OPEN) 



 Use fine grid record 1800.2 for energy threshold  1.0D-06
 Orbital guess generated from atomic densities. Full valence occupancy:   17

 Molecular orbital dump at record        2100.2

 Initial occupancy:  17

 ITERATION    DDIFF          GRAD             ENERGY        2-EL.EN.            DIPOLE MOMENTS         DIIS   ORB.
    1      0.000D+00      0.000D+00      -156.16749986    419.206313   -0.00002   -0.00000   -0.02499    0    start
    2      0.000D+00      0.285D-01      -156.27060982    400.007296   -0.00005   -0.00000   -0.02334    1    diag
    3      0.849D-01      0.213D-01      -156.39948537    407.968618   -0.00003   -0.00000    0.02091    2    diag
    4      0.367D-01      0.143D-03      -156.39949290    407.969026   -0.00003   -0.00000    0.00797    3    diag
    5      0.369D-03      0.389D-04      -156.39949327    407.969405   -0.00003   -0.00000    0.01061    4    diag
    6      0.966D-04      0.193D-04      -156.39949336    407.969560   -0.00003   -0.00000    0.01057    5    diag
    7      0.326D-04      0.165D-05      -156.39949337    407.969586   -0.00003   -0.00000    0.01043    6    diag
    8      0.354D-05      0.123D-06      -156.39949337    407.969599   -0.00003   -0.00000    0.01044    0    orth

 Final occupancy:  17

 !RKS STATE 1.1 Energy               -156.399493365265
 Nuclear energy                       134.07051350
 One-electron energy                 -475.24833010
 Two-electron energy                  203.98479972
 SCF exchange energy                  -24.35767990     Factor= 0.2500
 Density functional                   -19.20647649     PBEX=-24.12432848 PBEC= -1.11323013
 Virial quotient                       -1.01569500
 !RKS STATE 1.1 Dipole moment          -0.00003349    -0.00000000     0.01043877
 Dipole moment /Debye                  -0.00008512    -0.00000000     0.02653096

 Orbital energies:

         1.1          2.1          3.1          4.1          5.1          6.1          7.1          8.1          9.1         10.1
    -10.058219   -10.035186   -10.035186   -10.035049    -0.783473    -0.663217    -0.663217    -0.540512    -0.438231    -0.405057

        11.1         12.1         13.1         14.1         15.1         16.1         17.1         18.1         19.1
     -0.405052    -0.356540    -0.356540    -0.337120    -0.294101    -0.294101    -0.289147     0.382879     0.399433

 HOMO     17.1    -0.289147 =      -7.8681eV
 LUMO     18.1     0.382879 =      10.4187eV
 LUMO-HOMO         0.672026 =      18.2867eV


 **********************************************************************************************************************************
 DATASETS  * FILE   NREC   LENGTH (MB)   RECORD NAMES
              1      20       32.15       500      610      700      900      950      970     1000      129      960     1100   
                                          VAR    BASINP    GEOM    SYMINP    ZMAT    AOBASIS   BASIS     P2S    ABASIS      S 
                                         1400     1410     1200     1210     1080     1600     1650     1300     1700     1800   
                                           T        V       H0       H01     AOSYM     SMH    MOLCAS    ERIS     OPER     GRID   

              2       5        3.00       700     1000      520     1800     2100   
                                         GEOM     BASIS   MCVARS    GRID      RKS  

 PROGRAMS   *        TOTAL        KS       INT
 CPU TIMES  *         3.41      2.92      0.34
 REAL TIME  *         8.35 SEC
 DISK USED  *        35.98 MB      
 **********************************************************************************************************************************


 PROGRAM * Intrinsic Basis Bonding Analysis (IBBA)          Author: G. Knizia

 Molecular orbitals read from record     2100.2  Type=RKS/CANONICAL (state 1.1)
 Fock matrix read from record            2100.2  Type=RKS/TOTAL (state 1.1)
 Orbital energies read from record       2100.2  Type=RKS/CANONICAL (state 1.1)
 Density matrix read from record         2100.2  Type=RKS/CHARGE (state 1.1)

 Number of core orbitals:           4 (   4 )
 Number of closed-shell orbitals:  13 (  13 )

 Basis set MINAO-AUTO-PP generated.      Number of basis functions:   30 

 Polarized AO type:                A = (O Ot + (1-O)(1-Ot)) P12
 Orthogonalization method:         Symmetric (Loewdin)
 Localization functional:          L = sum[A,i] <i|n_A|i>^4 -> max

 Localization group 1:  17 orbitals, occupancy  2.000
 Iterative localization: IB/PM,    7 iter; Final gradient 0.47E-08

 Bond order analysis:       [THRPRINT= 0.020]

   CEN ATOM   CEN ATOM     WIBERG.BO      RENORM.BO
     1   C  -   3   C       1.008835       1.006156
     1   C  -   4   C       1.008833       1.006154
     1   C  -   5   C       1.008833       1.006154
     1   C  -   2   H       0.941281       0.963012

     2   H  -   1   C       0.941281       0.963012

     3   C  -   1   C       1.008835       1.006156
     3   C  -   6   H       0.966258       0.985216
     3   C  -  10   H       0.966052       0.987107
     3   C  -   9   H       0.966052       0.987107

     4   C  -   1   C       1.008833       1.006154
     4   C  -   7   H       0.966257       0.985216
     4   C  -  11   H       0.966054       0.987108
     4   C  -  12   H       0.966050       0.987108

     5   C  -   1   C       1.008833       1.006154
     5   C  -   8   H       0.966257       0.985216
     5   C  -  14   H       0.966054       0.987108
     5   C  -  13   H       0.966050       0.987108

     6   H  -   3   C       0.966258       0.985216

     7   H  -   4   C       0.966257       0.985216

     8   H  -   5   C       0.966257       0.985216

     9   H  -   3   C       0.966052       0.987107

    10   H  -   3   C       0.966052       0.987107

    11   H  -   4   C       0.966054       0.987108

    12   H  -   4   C       0.966050       0.987108

    13   H  -   5   C       0.966050       0.987108

    14   H  -   5   C       0.966054       0.987108


 Valency analysis:

   CEN ATOM   TOT.VALENCE
     1   C       3.976639
     2   H       0.983470
     3   C       3.935751
     4   C       3.935750
     5   C       3.935750
     6   H       0.983626
     7   H       0.983625
     8   H       0.983625
     9   H       0.982709
    10   H       0.982709
    11   H       0.982711
    12   H       0.982707
    13   H       0.982707
    14   H       0.982711

 Total charge composition:

   CEN ATOM         s          p       ELECTRONS ->P.CHARGE
     1   C       2.95387    3.16838      6.12226   -0.12226
     2   H       0.87143                 0.87143    0.12857
     3   C       2.99927    3.39378      6.39305   -0.39305
     4   C       2.99927    3.39378      6.39306   -0.39306
     5   C       2.99927    3.39378      6.39306   -0.39306
     6   H       0.87204                 0.87204    0.12796
     7   H       0.87204                 0.87204    0.12796
     8   H       0.87204                 0.87204    0.12796
     9   H       0.86851                 0.86851    0.13149
    10   H       0.86851                 0.86851    0.13149
    11   H       0.86851                 0.86851    0.13149
    12   H       0.86850                 0.86850    0.13150
    13   H       0.86850                 0.86850    0.13150
    14   H       0.86851                 0.86851    0.13149

 Total charge composition, AO contributions:

   CEN ATOM SHL      SPHERICAL COMPONENTS
     1   C  1s       1.99230
     1   C  2s       0.96158
     1   C  2p       1.02023    1.02023    1.12792

     2   H  1s       0.87143

     3   C  1s       1.99182
     3   C  2s       1.00745
     3   C  2p       1.06746    1.16870    1.15762

     4   C  1s       1.99182
     4   C  2s       1.00745
     4   C  2p       1.14340    1.09277    1.15762

     5   C  1s       1.99182
     5   C  2s       1.00745
     5   C  2p       1.14340    1.09277    1.15762

     6   H  1s       0.87204

     7   H  1s       0.87204

     8   H  1s       0.87204

     9   H  1s       0.86851

    10   H  1s       0.86851

    11   H  1s       0.86851

    12   H  1s       0.86850

    13   H  1s       0.86850

    14   H  1s       0.86851

 Summary of localized orbital composition:   [THRPRINT= 0.020]

   ORB  GRP  ORB.ENERGY      CENTERS/CHARGES
     1   1    -9.953850      C  1   2.000
     2   1    -9.922742      C  3   2.000
     3   1    -9.922741      C  5   2.000
     4   1    -9.922741      C  4   2.000
     5   1    -0.521288      C  3   0.995   C  1   0.990
     6   1    -0.521283      C  4   0.995   C  1   0.990
     7   1    -0.521283      C  5   0.995   C  1   0.990
     8   1    -0.471677      C  4   1.130   H 11   0.862
     9   1    -0.471677      C  5   1.130   H 14   0.862
    10   1    -0.471677      C  3   1.130   H  9   0.862
    11   1    -0.471677      C  3   1.130   H 10   0.862
    12   1    -0.471676      C  5   1.130   H 13   0.862
    13   1    -0.471676      C  4   1.130   H 12   0.862
    14   1    -0.469319      C  3   1.127   H  6   0.866
    15   1    -0.469317      C  5   1.127   H  8   0.866
    16   1    -0.469317      C  4   1.127   H  7   0.866
    17   1    -0.466008      C  1   1.119   H  2   0.859   (other: 0.022)

 Localized orbitals saved to record      2100.2  (orbital set 2)


 **********************************************************************************************************************************
 DATASETS  * FILE   NREC   LENGTH (MB)   RECORD NAMES
              1      20       32.15       500      610      700      900      950      970     1000      129      960     1100   
                                          VAR    BASINP    GEOM    SYMINP    ZMAT    AOBASIS   BASIS     P2S    ABASIS      S 
                                         1400     1410     1200     1210     1080     1600     1650     1300     1700     1800   
                                           T        V       H0       H01     AOSYM     SMH    MOLCAS    ERIS     OPER     GRID   

              2       5        3.01       700     1000      520     1800     2100   
                                         GEOM     BASIS   MCVARS    GRID      RKS  

 PROGRAMS   *        TOTAL      IBBA        KS       INT
 CPU TIMES  *         3.43      0.02      2.92      0.34
 REAL TIME  *         8.45 SEC
 DISK USED  *        35.98 MB      
 **********************************************************************************************************************************
 Molecular orbitals read from record     2100.2  Type=RKS/LOCAL(IBO)  
 Occupation numbers read from record     2100.2  Type=RKS/LOCAL(IBO)  
 Orbital energies read from record       2100.2  Type=RKS/LOCAL(IBO)  
 Redundancy group numbers read from rec  2100.2  Type=RKS/LOCAL(IBO)  

 IBBA/STO-3G energy=      0.000000000000

        KS-SCF  
   -156.39949337
 **********************************************************************************************************************************
 Molpro calculation terminated
