
 Primary working directories    : /tmp/sb13343
 Secondary working directories  : /tmp/sb13343
 Wavefunction directory         : /panfs/panasas01/chem/sb13343/wfu/
 Main file repository           : /tmp/sb13343/

 SHA1      : b4a5b34a9e711420743f49e6833241d17c61fb3c
 NAME      : 2099.9.b4a5b34
 ARCHNAME  : linux/x86_64_openmp
 FC        : /cm/shared/languages/GCC-6.1/bin/gfortran
 BLASLIB   : -lblas
 id        : simonbennie

 Nodes     nprocs
 node33-032    1

 Using customized tuning parameters: mindgm=1; mindgv=20; mindgc=4; mindgr=1; noblas=0; minvec=7
 default implementation of scratch files=df  

 memory,500,m
 geomtyp=xyz
 nosym
 noorient
 geometry={
 C          0.00000        0.00000        0.00000
 H          0.00000        0.00000        1.10056
 C          1.46209        0.00000       -0.46855
 C         -0.73105       -1.26621       -0.46855
 C         -0.73105        1.26621       -0.46855
 H          1.52118        0.00000       -1.56505
 H         -0.76059       -1.31738       -1.56505
 H         -0.76059        1.31738       -1.56505
 H          1.99755        0.88622       -0.10723
 H          1.99755       -0.88622       -0.10723
 H         -0.23129       -2.17304       -0.10723
 H         -1.76626       -1.28682       -0.10723
 H         -1.76626        1.28682       -0.10723
 H         -0.23129        2.17304       -0.10723
 }
 basis={ default,sto-3g }
 {ks,B3LYP3,direct;wf,34,1,0}
 {ibba,bonds=1}

 Variables initialized (895), CPU time= 0.01 sec
 Commands  initialized (725), CPU time= 0.01 sec, 591 directives.
 Default parameters read. Elapsed time= 4.14 sec

 Checking input...
 Passed
1


                                         ***  PROGRAM SYSTEM MOLPRO  ***
                                       Copyright, TTI GmbH Stuttgart, 2015
                                    Version 2099.9 linked May 26 2017 16:03:21


 **********************************************************************************************************************************
 LABEL *                                                                                 
  64 bit serial version                                                                  DATE: 07-Jun-17          TIME: 18:38:53  
 **********************************************************************************************************************************

 SHA1:             b4a5b34a9e711420743f49e6833241d17c61fb3c
 **********************************************************************************************************************************
 SETTING GEOMTYP        =    XYZ

 Variable memory set to  500000000 words,  buffer space 

 ZSYMEL=NOSYM

 SETTING BASIS          =    STO-3G


 Recomputing integrals since basis changed


 Using spherical harmonics

 Library entry C      S STO-3G               selected for orbital group  1
 Library entry C      P STO-3G               selected for orbital group  1
 Library entry H      S STO-3G               selected for orbital group  2


 PROGRAM * SEWARD (Integral evaluation for generally contracted gaussian basis sets)     Author: Roland Lindh, 1990

 Geometry written to block  1 of record 700


 Point group  C1  



 ATOMIC COORDINATES

 NR  ATOM    CHARGE       X              Y              Z

   1  C       6.00    0.000000000    0.000000000    0.000000000
   2  H       1.00    0.000000000    0.000000000    2.079756984
   3  C       6.00    2.762949669    0.000000000   -0.885431176
   4  C       6.00   -1.381484283   -2.392790116   -0.885431176
   5  C       6.00   -1.381484283    2.392790116   -0.885431176
   6  H       1.00    2.874613586    0.000000000   -2.957515871
   7  H       1.00   -1.437306793   -2.489487402   -2.957515871
   8  H       1.00   -1.437306793    2.489487402   -2.957515871
   9  H       1.00    3.774822420    1.674713086   -0.202635332
  10  H       1.00    3.774822420   -1.674713086   -0.202635332
  11  H       1.00   -0.437074755   -4.106450458   -0.202635332
  12  H       1.00   -3.337747665   -2.431737372   -0.202635332
  13  H       1.00   -3.337747665    2.431737372   -0.202635332
  14  H       1.00   -0.437074755    4.106450458   -0.202635332

 Bond lengths in Bohr (Angstrom)

 1-2  2.079756984  1-3  2.901358172  1-4  2.901367218  1-5  2.901367218  3-6  2.075091279
     ( 1.100560000)     ( 1.535332625)     ( 1.535337412)     ( 1.535337412)     ( 1.098091015)

  3- 9  2.072380406   3-10  2.072380406   4- 7  2.075090722   4-11  2.072378172   4-12  2.072364222
       ( 1.096656483)       ( 1.096656483)       ( 1.098090721)       ( 1.096655301)       ( 1.096647919)

  5- 8  2.075090722   5-13  2.072364222   5-14  2.072378172
       ( 1.098090721)       ( 1.096647919)       ( 1.096655301)

 Bond angles

  1- 3- 6  110.85354902   1- 3- 9  111.37220114   1- 3-10  111.37220114   1- 4- 7  110.85320625

  1- 4-11  111.37204414   1- 4-12  111.37216555   1- 5- 8  110.85320625   1- 5-13  111.37216555

  1- 5-14  111.37204414   2- 1- 3  107.76888332   2- 1- 4  107.76882608   2- 1- 5  107.76882608

  3-1-4  111.11870751   3-1-5  111.11870751   4-1-5  111.11845005   6-3-9  107.62119374

  6- 3-10  107.62119374   7- 4-11  107.62125572   7- 4-12  107.62162102   8- 5-13  107.62162102

  8- 5-14  107.62125572   9- 3-10  107.82352924  11- 4-12  107.82360822  13- 5-14  107.82360822

 NUCLEAR CHARGE:                   34
 NUMBER OF PRIMITIVE AOS:          90
 NUMBER OF SYMMETRY AOS:           90
 NUMBER OF CONTRACTIONS:           30   (  30A   )
 NUMBER OF CORE ORBITALS:           4   (   4A   )
 NUMBER OF VALENCE ORBITALS:       26   (  26A   )


 NUCLEAR REPULSION ENERGY  134.07051350


 Eigenvalues of metric

         1 0.203E+00 0.229E+00 0.229E+00 0.287E+00 0.356E+00 0.362E+00 0.364E+00 0.364E+00


 Contracted 2-electron integrals neglected if value below      1.0D-11
 AO integral compression algorithm  1   Integral accuracy      1.0D-11

     1.049 MB (compressed) written to integral file ( 95.2%)


 NUMBER OF SORTED TWO-ELECTRON INTEGRALS:     108345.     BUFFER LENGTH:  32768
 NUMBER OF SEGMENTS:   1  SEGMENT LENGTH:     108345      RECORD LENGTH: 524288

 Memory used in sort:       0.67 MW

 SORT1 READ      123158. AND WROTE      102148. INTEGRALS IN      1 RECORDS. CPU TIME:     0.01 SEC, REAL TIME:     0.01 SEC
 SORT2 READ      102148. AND WROTE      108345. INTEGRALS IN      4 RECORDS. CPU TIME:     0.01 SEC, REAL TIME:     0.20 SEC

 FILE SIZES:   FILE 1:    31.3 MBYTE,  FILE 4:     4.2 MBYTE,   TOTAL:     35.5 MBYTE

 OPERATOR DM      FOR CENTER  0  COORDINATES:    0.000000    0.000000    0.000000


 **********************************************************************************************************************************
 DATASETS  * FILE   NREC   LENGTH (MB)   RECORD NAMES
              1      19       30.69       500      610      700      900      950      970     1000      129      960     1100   
                                          VAR    BASINP    GEOM    SYMINP    ZMAT    AOBASIS   BASIS     P2S    ABASIS      S 
                                         1400     1410     1200     1210     1080     1600     1650     1300     1700   
                                           T        V       H0       H01     AOSYM     SMH    MOLCAS    ERIS     OPER   

 PROGRAMS   *        TOTAL       INT
 CPU TIMES  *         0.48      0.34
 REAL TIME  *         5.27 SEC
 DISK USED  *        35.98 MB      
 **********************************************************************************************************************************

 Density functional group B3LYP3=B88+DIRAC+LYP+VWN3
 Functional: B88(Automatically generated (new) B88)                            Gradient terms: 1
 Functional: DIRAC(Automatically generated (new) DIRAC)                        Gradient terms: 0
 Functional: LYP(Automatically generated (new) LYP)                            Gradient terms: 1
 Functional: VWN3(Automatically generated (new) VWN3)                          Gradient terms: 0
 Use grid at  1800.2


 Exact exchange will be calculated, factor:  0.2000

 Functional: B88                       Factor:  0.7200
 Functional: DIRAC                     Factor:  0.0800
 Functional: LYP                       Factor:  0.8100
 Functional: VWN3                      Factor:  0.1900

 Generated new metagrid on record  1800.2 with target accuracy 1.0D-06 and 45620 points in CPU time    1.1
 Computed new grid on record 1800.1 in CPU time    1.2
   28286 words reserved for DFT integration

 PROGRAM * RKS-SCF (Restricted closed shell Kohn-Sham)     Authors: W. Meyer, H.-J. Werner, P.J. Knowles, 1993

 NUMBER OF ELECTRONS:      17+   17-    SPACE SYMMETRY=1    SPIN SYMMETRY: Singlet 
 CONVERGENCE THRESHOLDS:    1.00E-05 (Density)    1.00E-06 (Energy)
 MAX. NUMBER OF ITERATIONS:       60
 INTERPOLATION TYPE:            DIIS
 INTERPOLATION STEPS:              2 (START)      1 (STEP)
 LEVEL SHIFTS:                  0.00 (CLOSED)  0.00 (OPEN) 



 Use fine grid record 1800.2 for energy threshold  1.0D-06
 Orbital guess generated from atomic densities. Full valence occupancy:   17

 Molecular orbital dump at record        2100.2

 Initial occupancy:  17

 ITERATION    DDIFF          GRAD             ENERGY        2-EL.EN.            DIPOLE MOMENTS         DIIS   ORB.
    1      0.000D+00      0.000D+00      -156.34321902    421.646107   -0.00004   -0.00000   -0.02564    0    start
    2      0.000D+00      0.287D-01      -156.43287755    401.621822   -0.00006   -0.00000   -0.02530    1    diag
    3      0.886D-01      0.227D-01      -156.58118997    410.196076   -0.00005   -0.00000    0.02344    2    diag
    4      0.396D-01      0.172D-03      -156.58120042    410.186886   -0.00005   -0.00000    0.00808    3    diag
    5      0.458D-03      0.618D-04      -156.58120133    410.186382   -0.00005   -0.00000    0.01103    4    diag
    6      0.143D-03      0.265D-04      -156.58120151    410.186404   -0.00005   -0.00000    0.01125    5    diag
    7      0.449D-04      0.174D-05      -156.58120151    410.186424   -0.00005   -0.00000    0.01106    6    diag
    8      0.409D-05      0.122D-06      -156.58120151    410.186443   -0.00005   -0.00000    0.01108    0    orth

 Final occupancy:  17

 !RKS STATE 1.1 Energy               -156.581201513331
 Nuclear energy                       134.07051350
 One-electron energy                 -475.14449908
 Two-electron energy                  205.09322144
 SCF exchange energy                  -24.35127965     Factor= 0.2000
 Density functional                   -20.60043737     B88=-24.26234292 DIRAC=-21.83064773 LYP= -1.06587612 VWN3= -2.74599469
 Virial quotient                       -1.01730133
 !RKS STATE 1.1 Dipole moment          -0.00004875    -0.00000000     0.01107631
 Dipole moment /Debye                  -0.00012391    -0.00000000     0.02815133

 Orbital energies:

         1.1          2.1          3.1          4.1          5.1          6.1          7.1          8.1          9.1         10.1
    -10.019231    -9.997396    -9.997394    -9.997251    -0.761968    -0.645391    -0.645390    -0.526063    -0.426322    -0.393953

        11.1         12.1         13.1         14.1         15.1         16.1         17.1         18.1         19.1
     -0.393948    -0.347311    -0.347310    -0.328449    -0.285944    -0.285943    -0.282094     0.364212     0.380327

 HOMO     17.1    -0.282094 =      -7.6762eV
 LUMO     18.1     0.364212 =       9.9107eV
 LUMO-HOMO         0.646306 =      17.5869eV


 **********************************************************************************************************************************
 DATASETS  * FILE   NREC   LENGTH (MB)   RECORD NAMES
              1      20       32.15       500      610      700      900      950      970     1000      129      960     1100   
                                          VAR    BASINP    GEOM    SYMINP    ZMAT    AOBASIS   BASIS     P2S    ABASIS      S 
                                         1400     1410     1200     1210     1080     1600     1650     1300     1700     1800   
                                           T        V       H0       H01     AOSYM     SMH    MOLCAS    ERIS     OPER     GRID   

              2       5        3.00       700     1000      520     1800     2100   
                                         GEOM     BASIS   MCVARS    GRID      RKS  

 PROGRAMS   *        TOTAL        KS       INT
 CPU TIMES  *         3.73      3.25      0.34
 REAL TIME  *         8.70 SEC
 DISK USED  *        35.98 MB      
 **********************************************************************************************************************************


 PROGRAM * Intrinsic Basis Bonding Analysis (IBBA)          Author: G. Knizia

 Molecular orbitals read from record     2100.2  Type=RKS/CANONICAL (state 1.1)
 Fock matrix read from record            2100.2  Type=RKS/TOTAL (state 1.1)
 Orbital energies read from record       2100.2  Type=RKS/CANONICAL (state 1.1)
 Density matrix read from record         2100.2  Type=RKS/CHARGE (state 1.1)

 Number of core orbitals:           4 (   4 )
 Number of closed-shell orbitals:  13 (  13 )

 Basis set MINAO-AUTO-PP generated.      Number of basis functions:   30 

 Polarized AO type:                A = (O Ot + (1-O)(1-Ot)) P12
 Orthogonalization method:         Symmetric (Loewdin)
 Localization functional:          L = sum[A,i] <i|n_A|i>^4 -> max

 Localization group 1:  17 orbitals, occupancy  2.000
 Iterative localization: IB/PM,    7 iter; Final gradient 0.43E-08

 Bond order analysis:       [THRPRINT= 0.020]

   CEN ATOM   CEN ATOM     WIBERG.BO      RENORM.BO
     1   C  -   3   C       1.008723       1.006320
     1   C  -   4   C       1.008722       1.006318
     1   C  -   5   C       1.008722       1.006318
     1   C  -   2   H       0.942416       0.963451

     2   H  -   1   C       0.942416       0.963451

     3   C  -   1   C       1.008723       1.006320
     3   C  -   6   H       0.967143       0.985282
     3   C  -   9   H       0.966947       0.987148
     3   C  -  10   H       0.966947       0.987148

     4   C  -   1   C       1.008722       1.006318
     4   C  -   7   H       0.967141       0.985282
     4   C  -  11   H       0.966950       0.987148
     4   C  -  12   H       0.966945       0.987148

     5   C  -   1   C       1.008722       1.006318
     5   C  -   8   H       0.967141       0.985282
     5   C  -  14   H       0.966950       0.987148
     5   C  -  13   H       0.966945       0.987148

     6   H  -   3   C       0.967143       0.985282

     7   H  -   4   C       0.967141       0.985282

     8   H  -   5   C       0.967141       0.985282

     9   H  -   3   C       0.966947       0.987148

    10   H  -   3   C       0.966947       0.987148

    11   H  -   4   C       0.966950       0.987148

    12   H  -   4   C       0.966945       0.987148

    13   H  -   5   C       0.966945       0.987148

    14   H  -   5   C       0.966950       0.987148


 Valency analysis:

   CEN ATOM   TOT.VALENCE
     1   C       3.977427
     2   H       0.984299
     3   C       3.938159
     4   C       3.938157
     5   C       3.938157
     6   H       0.984449
     7   H       0.984448
     8   H       0.984448
     9   H       0.983561
    10   H       0.983561
    11   H       0.983563
    12   H       0.983559
    13   H       0.983559
    14   H       0.983563

 Total charge composition:

   CEN ATOM         s          p       ELECTRONS ->P.CHARGE
     1   C       2.95268    3.16558      6.11826   -0.11826
     2   H       0.87470                 0.87470    0.12530
     3   C       2.99655    3.38693      6.38348   -0.38348
     4   C       2.99655    3.38693      6.38348   -0.38348
     5   C       2.99655    3.38693      6.38348   -0.38348
     6   H       0.87530                 0.87530    0.12470
     7   H       0.87529                 0.87529    0.12471
     8   H       0.87529                 0.87529    0.12471
     9   H       0.87179                 0.87179    0.12821
    10   H       0.87179                 0.87179    0.12821
    11   H       0.87179                 0.87179    0.12821
    12   H       0.87178                 0.87178    0.12822
    13   H       0.87178                 0.87178    0.12822
    14   H       0.87179                 0.87179    0.12821

 Total charge composition, AO contributions:

   CEN ATOM SHL      SPHERICAL COMPONENTS
     1   C  1s       1.99240
     1   C  2s       0.96028
     1   C  2p       1.02004    1.02004    1.12550

     2   H  1s       0.87470

     3   C  1s       1.99193
     3   C  2s       1.00462
     3   C  2p       1.06652    1.16567    1.15474

     4   C  1s       1.99193
     4   C  2s       1.00462
     4   C  2p       1.14089    1.09130    1.15474

     5   C  1s       1.99193
     5   C  2s       1.00462
     5   C  2p       1.14089    1.09130    1.15474

     6   H  1s       0.87530

     7   H  1s       0.87529

     8   H  1s       0.87529

     9   H  1s       0.87179

    10   H  1s       0.87179

    11   H  1s       0.87179

    12   H  1s       0.87178

    13   H  1s       0.87178

    14   H  1s       0.87179

 Summary of localized orbital composition:   [THRPRINT= 0.020]

   ORB  GRP  ORB.ENERGY      CENTERS/CHARGES
     1   1    -9.915480      C  1   2.000
     2   1    -9.885811      C  3   2.000
     3   1    -9.885808      C  5   2.000
     4   1    -9.885808      C  4   2.000
     5   1    -0.506617      C  3   0.995   C  1   0.990
     6   1    -0.506613      C  4   0.995   C  1   0.990
     7   1    -0.506613      C  5   0.995   C  1   0.990
     8   1    -0.460092      C  4   1.127   H 11   0.865
     9   1    -0.460092      C  5   1.127   H 14   0.865
    10   1    -0.460091      C  3   1.127   H  9   0.865
    11   1    -0.460091      C  3   1.127   H 10   0.865
    12   1    -0.460090      C  5   1.127   H 13   0.865
    13   1    -0.460090      C  4   1.127   H 12   0.865
    14   1    -0.457842      C  3   1.124   H  6   0.869
    15   1    -0.457839      C  5   1.124   H  8   0.869
    16   1    -0.457839      C  4   1.124   H  7   0.869
    17   1    -0.454539      C  1   1.116   H  2   0.862   (other: 0.022)

 Localized orbitals saved to record      2100.2  (orbital set 2)


 **********************************************************************************************************************************
 DATASETS  * FILE   NREC   LENGTH (MB)   RECORD NAMES
              1      20       32.15       500      610      700      900      950      970     1000      129      960     1100   
                                          VAR    BASINP    GEOM    SYMINP    ZMAT    AOBASIS   BASIS     P2S    ABASIS      S 
                                         1400     1410     1200     1210     1080     1600     1650     1300     1700     1800   
                                           T        V       H0       H01     AOSYM     SMH    MOLCAS    ERIS     OPER     GRID   

              2       5        3.01       700     1000      520     1800     2100   
                                         GEOM     BASIS   MCVARS    GRID      RKS  

 PROGRAMS   *        TOTAL      IBBA        KS       INT
 CPU TIMES  *         3.76      0.03      3.25      0.34
 REAL TIME  *         8.82 SEC
 DISK USED  *        35.98 MB      
 **********************************************************************************************************************************
 Molecular orbitals read from record     2100.2  Type=RKS/LOCAL(IBO)  
 Occupation numbers read from record     2100.2  Type=RKS/LOCAL(IBO)  
 Orbital energies read from record       2100.2  Type=RKS/LOCAL(IBO)  
 Redundancy group numbers read from rec  2100.2  Type=RKS/LOCAL(IBO)  

 IBBA/STO-3G energy=      0.000000000000

        KS-SCF  
   -156.58120151
 **********************************************************************************************************************************
 Molpro calculation terminated
