
 Primary working directories    : /tmp/sb13343
 Secondary working directories  : /tmp/sb13343
 Wavefunction directory         : /panfs/panasas01/chem/sb13343/wfu/
 Main file repository           : /tmp/sb13343/

 SHA1      : b4a5b34a9e711420743f49e6833241d17c61fb3c
 NAME      : 2099.9.b4a5b34
 ARCHNAME  : linux/x86_64_openmp
 FC        : /cm/shared/languages/GCC-6.1/bin/gfortran
 BLASLIB   : -lblas
 id        : simonbennie

 Nodes     nprocs
 node33-032    1

 Using customized tuning parameters: mindgm=1; mindgv=20; mindgc=4; mindgr=1; noblas=0; minvec=7
 default implementation of scratch files=df  

 memory,500,m
 geomtyp=xyz
 nosym
 noorient
 geometry={
 C          0.00000        0.00000        0.00000
 H          0.00000        0.00000        1.10056
 C          1.46209        0.00000       -0.46855
 C         -0.73105       -1.26621       -0.46855
 C         -0.73105        1.26621       -0.46855
 H          1.52118        0.00000       -1.56505
 H         -0.76059       -1.31738       -1.56505
 H         -0.76059        1.31738       -1.56505
 H          1.99755        0.88622       -0.10723
 H          1.99755       -0.88622       -0.10723
 H         -0.23129       -2.17304       -0.10723
 H         -1.76626       -1.28682       -0.10723
 H         -1.76626        1.28682       -0.10723
 H         -0.23129        2.17304       -0.10723
 }
 basis={ default,sto-3g }
 {ks,BH-LYP,direct;wf,34,1,0}
 {ibba,bonds=1}

 Variables initialized (895), CPU time= 0.01 sec
 Commands  initialized (725), CPU time= 0.01 sec, 591 directives.
 Default parameters read. Elapsed time= 3.49 sec

 Checking input...
 Passed
1


                                         ***  PROGRAM SYSTEM MOLPRO  ***
                                       Copyright, TTI GmbH Stuttgart, 2015
                                    Version 2099.9 linked May 26 2017 16:03:21


 **********************************************************************************************************************************
 LABEL *                                                                                 
  64 bit serial version                                                                  DATE: 07-Jun-17          TIME: 18:39:56  
 **********************************************************************************************************************************

 SHA1:             b4a5b34a9e711420743f49e6833241d17c61fb3c
 **********************************************************************************************************************************
 SETTING GEOMTYP        =    XYZ

 Variable memory set to  500000000 words,  buffer space 

 ZSYMEL=NOSYM

 SETTING BASIS          =    STO-3G


 Recomputing integrals since basis changed


 Using spherical harmonics

 Library entry C      S STO-3G               selected for orbital group  1
 Library entry C      P STO-3G               selected for orbital group  1
 Library entry H      S STO-3G               selected for orbital group  2


 PROGRAM * SEWARD (Integral evaluation for generally contracted gaussian basis sets)     Author: Roland Lindh, 1990

 Geometry written to block  1 of record 700


 Point group  C1  



 ATOMIC COORDINATES

 NR  ATOM    CHARGE       X              Y              Z

   1  C       6.00    0.000000000    0.000000000    0.000000000
   2  H       1.00    0.000000000    0.000000000    2.079756984
   3  C       6.00    2.762949669    0.000000000   -0.885431176
   4  C       6.00   -1.381484283   -2.392790116   -0.885431176
   5  C       6.00   -1.381484283    2.392790116   -0.885431176
   6  H       1.00    2.874613586    0.000000000   -2.957515871
   7  H       1.00   -1.437306793   -2.489487402   -2.957515871
   8  H       1.00   -1.437306793    2.489487402   -2.957515871
   9  H       1.00    3.774822420    1.674713086   -0.202635332
  10  H       1.00    3.774822420   -1.674713086   -0.202635332
  11  H       1.00   -0.437074755   -4.106450458   -0.202635332
  12  H       1.00   -3.337747665   -2.431737372   -0.202635332
  13  H       1.00   -3.337747665    2.431737372   -0.202635332
  14  H       1.00   -0.437074755    4.106450458   -0.202635332

 Bond lengths in Bohr (Angstrom)

 1-2  2.079756984  1-3  2.901358172  1-4  2.901367218  1-5  2.901367218  3-6  2.075091279
     ( 1.100560000)     ( 1.535332625)     ( 1.535337412)     ( 1.535337412)     ( 1.098091015)

  3- 9  2.072380406   3-10  2.072380406   4- 7  2.075090722   4-11  2.072378172   4-12  2.072364222
       ( 1.096656483)       ( 1.096656483)       ( 1.098090721)       ( 1.096655301)       ( 1.096647919)

  5- 8  2.075090722   5-13  2.072364222   5-14  2.072378172
       ( 1.098090721)       ( 1.096647919)       ( 1.096655301)

 Bond angles

  1- 3- 6  110.85354902   1- 3- 9  111.37220114   1- 3-10  111.37220114   1- 4- 7  110.85320625

  1- 4-11  111.37204414   1- 4-12  111.37216555   1- 5- 8  110.85320625   1- 5-13  111.37216555

  1- 5-14  111.37204414   2- 1- 3  107.76888332   2- 1- 4  107.76882608   2- 1- 5  107.76882608

  3-1-4  111.11870751   3-1-5  111.11870751   4-1-5  111.11845005   6-3-9  107.62119374

  6- 3-10  107.62119374   7- 4-11  107.62125572   7- 4-12  107.62162102   8- 5-13  107.62162102

  8- 5-14  107.62125572   9- 3-10  107.82352924  11- 4-12  107.82360822  13- 5-14  107.82360822

 NUCLEAR CHARGE:                   34
 NUMBER OF PRIMITIVE AOS:          90
 NUMBER OF SYMMETRY AOS:           90
 NUMBER OF CONTRACTIONS:           30   (  30A   )
 NUMBER OF CORE ORBITALS:           4   (   4A   )
 NUMBER OF VALENCE ORBITALS:       26   (  26A   )


 NUCLEAR REPULSION ENERGY  134.07051350


 Eigenvalues of metric

         1 0.203E+00 0.229E+00 0.229E+00 0.287E+00 0.356E+00 0.362E+00 0.364E+00 0.364E+00


 Contracted 2-electron integrals neglected if value below      1.0D-11
 AO integral compression algorithm  1   Integral accuracy      1.0D-11

     1.049 MB (compressed) written to integral file ( 95.2%)


 NUMBER OF SORTED TWO-ELECTRON INTEGRALS:     108345.     BUFFER LENGTH:  32768
 NUMBER OF SEGMENTS:   1  SEGMENT LENGTH:     108345      RECORD LENGTH: 524288

 Memory used in sort:       0.67 MW

 SORT1 READ      123158. AND WROTE      102148. INTEGRALS IN      1 RECORDS. CPU TIME:     0.00 SEC, REAL TIME:     0.00 SEC
 SORT2 READ      102148. AND WROTE      108345. INTEGRALS IN      4 RECORDS. CPU TIME:     0.01 SEC, REAL TIME:     0.01 SEC

 FILE SIZES:   FILE 1:    31.3 MBYTE,  FILE 4:     4.2 MBYTE,   TOTAL:     35.5 MBYTE

 OPERATOR DM      FOR CENTER  0  COORDINATES:    0.000000    0.000000    0.000000


 **********************************************************************************************************************************
 DATASETS  * FILE   NREC   LENGTH (MB)   RECORD NAMES
              1      19       30.69       500      610      700      900      950      970     1000      129      960     1100   
                                          VAR    BASINP    GEOM    SYMINP    ZMAT    AOBASIS   BASIS     P2S    ABASIS      S 
                                         1400     1410     1200     1210     1080     1600     1650     1300     1700   
                                           T        V       H0       H01     AOSYM     SMH    MOLCAS    ERIS     OPER   

 PROGRAMS   *        TOTAL       INT
 CPU TIMES  *         0.50      0.36
 REAL TIME  *         4.32 SEC
 DISK USED  *        35.98 MB      
 **********************************************************************************************************************************

 Density functional group BH-LYP=B88+LYP
 Functional: B88(Automatically generated (new) B88)                            Gradient terms: 1
 Functional: LYP(Automatically generated (new) LYP)                            Gradient terms: 1
 Use grid at  1800.2


 Exact exchange will be calculated, factor:  0.5000

 Functional: B88                       Factor:  0.5000
 Functional: LYP                       Factor:  1.0000

 Generated new metagrid on record  1800.2 with target accuracy 1.0D-06 and 45620 points in CPU time    1.1
 Computed new grid on record 1800.1 in CPU time    1.2
   28286 words reserved for DFT integration

 PROGRAM * RKS-SCF (Restricted closed shell Kohn-Sham)     Authors: W. Meyer, H.-J. Werner, P.J. Knowles, 1993

 NUMBER OF ELECTRONS:      17+   17-    SPACE SYMMETRY=1    SPIN SYMMETRY: Singlet 
 CONVERGENCE THRESHOLDS:    1.00E-05 (Density)    1.00E-06 (Energy)
 MAX. NUMBER OF ITERATIONS:       60
 INTERPOLATION TYPE:            DIIS
 INTERPOLATION STEPS:              2 (START)      1 (STEP)
 LEVEL SHIFTS:                  0.00 (CLOSED)  0.00 (OPEN) 



 Use fine grid record 1800.2 for energy threshold  1.0D-06
 Orbital guess generated from atomic densities. Full valence occupancy:   17

 Molecular orbital dump at record        2100.2

 Initial occupancy:  17

 ITERATION    DDIFF          GRAD             ENERGY        2-EL.EN.            DIPOLE MOMENTS         DIIS   ORB.
    1      0.000D+00      0.000D+00      -156.29825509    405.408940   -0.00001   -0.00000   -0.01592    0    start
    2      0.000D+00      0.251D-01      -156.43608773    390.584330   -0.00004   -0.00000   -0.01468    1    diag
    3      0.658D-01      0.129D-01      -156.48362208    395.446559   -0.00003   -0.00000    0.01377    2    diag
    4      0.224D-01      0.135D-03      -156.48362933    395.458941   -0.00003   -0.00000    0.01062    3    diag
    5      0.298D-03      0.186D-04      -156.48362943    395.459590   -0.00003   -0.00000    0.01117    4    diag
    6      0.475D-04      0.835D-05      -156.48362945    395.459561   -0.00003   -0.00000    0.01116    5    diag
    7      0.147D-04      0.782D-06      -156.48362945    395.459547   -0.00003   -0.00000    0.01113    6    diag
    8      0.141D-05      0.378D-07      -156.48362945    395.459547   -0.00003   -0.00000    0.01113    0    orth

 Final occupancy:  17

 !RKS STATE 1.1 Energy               -156.483629450949
 Nuclear energy                       134.07051350
 One-electron energy                 -475.08451746
 Two-electron energy                  197.72977358
 SCF exchange energy                  -24.35915445     Factor= 0.5000
 Density functional                   -13.19939907     B88=-24.26769475 LYP= -1.06555169
 Virial quotient                       -1.01604663
 !RKS STATE 1.1 Dipole moment          -0.00003215    -0.00000000     0.01113462
 Dipole moment /Debye                  -0.00008171    -0.00000000     0.02829952

 Orbital energies:

         1.1          2.1          3.1          4.1          5.1          6.1          7.1          8.1          9.1         10.1
    -10.421119   -10.399763   -10.399762   -10.399633    -0.873922    -0.744757    -0.744756    -0.611695    -0.498822    -0.463376

        11.1         12.1         13.1         14.1         15.1         16.1         17.1         18.1         19.1
     -0.463373    -0.413344    -0.413344    -0.393193    -0.345371    -0.345370    -0.342007     0.442263     0.461014

 HOMO     17.1    -0.342007 =      -9.3065eV
 LUMO     18.1     0.442263 =      12.0346eV
 LUMO-HOMO         0.784270 =      21.3411eV


 **********************************************************************************************************************************
 DATASETS  * FILE   NREC   LENGTH (MB)   RECORD NAMES
              1      20       32.15       500      610      700      900      950      970     1000      129      960     1100   
                                          VAR    BASINP    GEOM    SYMINP    ZMAT    AOBASIS   BASIS     P2S    ABASIS      S 
                                         1400     1410     1200     1210     1080     1600     1650     1300     1700     1800   
                                           T        V       H0       H01     AOSYM     SMH    MOLCAS    ERIS     OPER     GRID   

              2       5        3.00       700     1000      520     1800     2100   
                                         GEOM     BASIS   MCVARS    GRID      RKS  

 PROGRAMS   *        TOTAL        KS       INT
 CPU TIMES  *         3.43      2.93      0.36
 REAL TIME  *         8.24 SEC
 DISK USED  *        35.98 MB      
 **********************************************************************************************************************************


 PROGRAM * Intrinsic Basis Bonding Analysis (IBBA)          Author: G. Knizia

 Molecular orbitals read from record     2100.2  Type=RKS/CANONICAL (state 1.1)
 Fock matrix read from record            2100.2  Type=RKS/TOTAL (state 1.1)
 Orbital energies read from record       2100.2  Type=RKS/CANONICAL (state 1.1)
 Density matrix read from record         2100.2  Type=RKS/CHARGE (state 1.1)

 Number of core orbitals:           4 (   4 )
 Number of closed-shell orbitals:  13 (  13 )

 Basis set MINAO-AUTO-PP generated.      Number of basis functions:   30 

 Polarized AO type:                A = (O Ot + (1-O)(1-Ot)) P12
 Orthogonalization method:         Symmetric (Loewdin)
 Localization functional:          L = sum[A,i] <i|n_A|i>^4 -> max

 Localization group 1:  17 orbitals, occupancy  2.000
 Iterative localization: IB/PM,    7 iter; Final gradient 0.40E-08

 Bond order analysis:       [THRPRINT= 0.020]

   CEN ATOM   CEN ATOM     WIBERG.BO      RENORM.BO
     1   C  -   3   C       1.008019       1.006151
     1   C  -   4   C       1.008018       1.006149
     1   C  -   5   C       1.008018       1.006149
     1   C  -   2   H       0.945470       0.965387

     2   H  -   1   C       0.945470       0.965387

     3   C  -   1   C       1.008019       1.006151
     3   C  -   6   H       0.968681       0.986305
     3   C  -  10   H       0.968514       0.988067
     3   C  -   9   H       0.968514       0.988067

     4   C  -   1   C       1.008018       1.006149
     4   C  -   7   H       0.968680       0.986305
     4   C  -  11   H       0.968516       0.988067
     4   C  -  12   H       0.968513       0.988067

     5   C  -   1   C       1.008018       1.006149
     5   C  -   8   H       0.968680       0.986305
     5   C  -  14   H       0.968516       0.988067
     5   C  -  13   H       0.968513       0.988067

     6   H  -   3   C       0.968681       0.986305

     7   H  -   4   C       0.968680       0.986305

     8   H  -   5   C       0.968680       0.986305

     9   H  -   3   C       0.968514       0.988067

    10   H  -   3   C       0.968514       0.988067

    11   H  -   4   C       0.968516       0.988067

    12   H  -   4   C       0.968513       0.988067

    13   H  -   5   C       0.968513       0.988067

    14   H  -   5   C       0.968516       0.988067


 Valency analysis:

   CEN ATOM   TOT.VALENCE
     1   C       3.978015
     2   H       0.985045
     3   C       3.940116
     4   C       3.940114
     5   C       3.940114
     6   H       0.985049
     7   H       0.985049
     8   H       0.985049
     9   H       0.984167
    10   H       0.984167
    11   H       0.984168
    12   H       0.984165
    13   H       0.984165
    14   H       0.984168

 Total charge composition:

   CEN ATOM         s          p       ELECTRONS ->P.CHARGE
     1   C       2.95148    3.16232      6.11379   -0.11379
     2   H       0.87771                 0.87771    0.12229
     3   C       2.99535    3.38142      6.37677   -0.37677
     4   C       2.99535    3.38143      6.37677   -0.37677
     5   C       2.99535    3.38143      6.37677   -0.37677
     6   H       0.87773                 0.87773    0.12227
     7   H       0.87772                 0.87772    0.12228
     8   H       0.87772                 0.87772    0.12228
     9   H       0.87417                 0.87417    0.12583
    10   H       0.87417                 0.87417    0.12583
    11   H       0.87417                 0.87417    0.12583
    12   H       0.87416                 0.87416    0.12584
    13   H       0.87416                 0.87416    0.12584
    14   H       0.87417                 0.87417    0.12583

 Total charge composition, AO contributions:

   CEN ATOM SHL      SPHERICAL COMPONENTS
     1   C  1s       1.99200
     1   C  2s       0.95948
     1   C  2p       1.01944    1.01944    1.12343

     2   H  1s       0.87771

     3   C  1s       1.99151
     3   C  2s       1.00384
     3   C  2p       1.06608    1.16323    1.15211

     4   C  1s       1.99151
     4   C  2s       1.00384
     4   C  2p       1.13895    1.09036    1.15211

     5   C  1s       1.99151
     5   C  2s       1.00384
     5   C  2p       1.13895    1.09036    1.15211

     6   H  1s       0.87773

     7   H  1s       0.87772

     8   H  1s       0.87772

     9   H  1s       0.87417

    10   H  1s       0.87417

    11   H  1s       0.87417

    12   H  1s       0.87416

    13   H  1s       0.87416

    14   H  1s       0.87417

 Summary of localized orbital composition:   [THRPRINT= 0.020]

   ORB  GRP  ORB.ENERGY      CENTERS/CHARGES
     1   1   -10.313234      C  1   2.000
     2   1   -10.283604      C  3   2.000
     3   1   -10.283602      C  5   2.000
     4   1   -10.283602      C  4   2.000
     5   1    -0.587349      C  3   0.996   C  1   0.990
     6   1    -0.587345      C  4   0.996   C  1   0.990
     7   1    -0.587345      C  5   0.996   C  1   0.990
     8   1    -0.536013      C  5   1.125   H 13   0.868
     9   1    -0.536013      C  4   1.125   H 12   0.868
    10   1    -0.536012      C  5   1.125   H 14   0.868
    11   1    -0.536012      C  4   1.125   H 11   0.868
    12   1    -0.536011      C  3   1.125   H  9   0.868
    13   1    -0.536011      C  3   1.125   H 10   0.868
    14   1    -0.533813      C  3   1.121   H  6   0.872
    15   1    -0.533811      C  5   1.121   H  8   0.872
    16   1    -0.533811      C  4   1.121   H  7   0.872
    17   1    -0.530018      C  1   1.114   H  2   0.866   (other: 0.021)

 Localized orbitals saved to record      2100.2  (orbital set 2)


 **********************************************************************************************************************************
 DATASETS  * FILE   NREC   LENGTH (MB)   RECORD NAMES
              1      20       32.15       500      610      700      900      950      970     1000      129      960     1100   
                                          VAR    BASINP    GEOM    SYMINP    ZMAT    AOBASIS   BASIS     P2S    ABASIS      S 
                                         1400     1410     1200     1210     1080     1600     1650     1300     1700     1800   
                                           T        V       H0       H01     AOSYM     SMH    MOLCAS    ERIS     OPER     GRID   

              2       5        3.01       700     1000      520     1800     2100   
                                         GEOM     BASIS   MCVARS    GRID      RKS  

 PROGRAMS   *        TOTAL      IBBA        KS       INT
 CPU TIMES  *         3.46      0.03      2.93      0.36
 REAL TIME  *         8.35 SEC
 DISK USED  *        35.98 MB      
 **********************************************************************************************************************************
 Molecular orbitals read from record     2100.2  Type=RKS/LOCAL(IBO)  
 Occupation numbers read from record     2100.2  Type=RKS/LOCAL(IBO)  
 Orbital energies read from record       2100.2  Type=RKS/LOCAL(IBO)  
 Redundancy group numbers read from rec  2100.2  Type=RKS/LOCAL(IBO)  

 IBBA/STO-3G energy=      0.000000000000

        KS-SCF  
   -156.48362945
 **********************************************************************************************************************************
 Molpro calculation terminated
