
 Primary working directories    : /tmp/sb13343
 Secondary working directories  : /tmp/sb13343
 Wavefunction directory         : /panfs/panasas01/chem/sb13343/wfu/
 Main file repository           : /tmp/sb13343/

 SHA1      : b4a5b34a9e711420743f49e6833241d17c61fb3c
 NAME      : 2099.9.b4a5b34
 ARCHNAME  : linux/x86_64_openmp
 FC        : /cm/shared/languages/GCC-6.1/bin/gfortran
 BLASLIB   : -lblas
 id        : simonbennie

 Nodes     nprocs
 node35-011    1

 Using customized tuning parameters: mindgm=1; mindgv=20; mindgc=4; mindgr=1; noblas=0; minvec=7
 default implementation of scratch files=df  

 memory,500,m
 geomtyp=xyz
 nosym
 noorient
 geometry={
 C          0.00000        0.00000        0.00000
 H          0.00000        0.00000        1.10056
 C          1.46209        0.00000       -0.46855
 C         -0.73105       -1.26621       -0.46855
 C         -0.73105        1.26621       -0.46855
 H          1.52118        0.00000       -1.56505
 H         -0.76059       -1.31738       -1.56505
 H         -0.76059        1.31738       -1.56505
 H          1.99755        0.88622       -0.10723
 H          1.99755       -0.88622       -0.10723
 H         -0.23129       -2.17304       -0.10723
 H         -1.76626       -1.28682       -0.10723
 H         -1.76626        1.28682       -0.10723
 H         -0.23129        2.17304       -0.10723
 }
 basis={ default,svp }
 {ks,VS99,direct;wf,34,1,0}
 {ibba,bonds=1}

 Variables initialized (895), CPU time= 0.00 sec
 Commands  initialized (725), CPU time= 0.01 sec, 591 directives.
 Default parameters read. Elapsed time= 2.63 sec

 Checking input...
 Passed
1


                                         ***  PROGRAM SYSTEM MOLPRO  ***
                                       Copyright, TTI GmbH Stuttgart, 2015
                                    Version 2099.9 linked May 26 2017 16:03:21


 **********************************************************************************************************************************
 LABEL *                                                                                 
  64 bit serial version                                                                  DATE: 07-Jun-17          TIME: 20:11:14  
 **********************************************************************************************************************************

 SHA1:             b4a5b34a9e711420743f49e6833241d17c61fb3c
 **********************************************************************************************************************************
 SETTING GEOMTYP        =    XYZ

 Variable memory set to  500000000 words,  buffer space 

 ZSYMEL=NOSYM

 SETTING BASIS          =    SVP


 Recomputing integrals since basis changed


 Using spherical harmonics

 Library entry C      S def2-SVP             selected for orbital group  1
 Library entry C      P def2-SVP             selected for orbital group  1
 Library entry C      D def2-SVP             selected for orbital group  1
 Library entry H      S def2-SVP             selected for orbital group  2
 Library entry H      P def2-SVP             selected for orbital group  2


 PROGRAM * SEWARD (Integral evaluation for generally contracted gaussian basis sets)     Author: Roland Lindh, 1990

 Geometry written to block  1 of record 700


 Point group  C1  



 ATOMIC COORDINATES

 NR  ATOM    CHARGE       X              Y              Z

   1  C       6.00    0.000000000    0.000000000    0.000000000
   2  H       1.00    0.000000000    0.000000000    2.079756984
   3  C       6.00    2.762949669    0.000000000   -0.885431176
   4  C       6.00   -1.381484283   -2.392790116   -0.885431176
   5  C       6.00   -1.381484283    2.392790116   -0.885431176
   6  H       1.00    2.874613586    0.000000000   -2.957515871
   7  H       1.00   -1.437306793   -2.489487402   -2.957515871
   8  H       1.00   -1.437306793    2.489487402   -2.957515871
   9  H       1.00    3.774822420    1.674713086   -0.202635332
  10  H       1.00    3.774822420   -1.674713086   -0.202635332
  11  H       1.00   -0.437074755   -4.106450458   -0.202635332
  12  H       1.00   -3.337747665   -2.431737372   -0.202635332
  13  H       1.00   -3.337747665    2.431737372   -0.202635332
  14  H       1.00   -0.437074755    4.106450458   -0.202635332

 Bond lengths in Bohr (Angstrom)

 1-2  2.079756984  1-3  2.901358172  1-4  2.901367218  1-5  2.901367218  3-6  2.075091279
     ( 1.100560000)     ( 1.535332625)     ( 1.535337412)     ( 1.535337412)     ( 1.098091015)

  3- 9  2.072380406   3-10  2.072380406   4- 7  2.075090722   4-11  2.072378172   4-12  2.072364222
       ( 1.096656483)       ( 1.096656483)       ( 1.098090721)       ( 1.096655301)       ( 1.096647919)

  5- 8  2.075090722   5-13  2.072364222   5-14  2.072378172
       ( 1.098090721)       ( 1.096647919)       ( 1.096655301)

 Bond angles

  1- 3- 6  110.85354902   1- 3- 9  111.37220114   1- 3-10  111.37220114   1- 4- 7  110.85320625

  1- 4-11  111.37204414   1- 4-12  111.37216555   1- 5- 8  110.85320625   1- 5-13  111.37216555

  1- 5-14  111.37204414   2- 1- 3  107.76888332   2- 1- 4  107.76882608   2- 1- 5  107.76882608

  3-1-4  111.11870751   3-1-5  111.11870751   4-1-5  111.11845005   6-3-9  107.62119374

  6- 3-10  107.62119374   7- 4-11  107.62125572   7- 4-12  107.62162102   8- 5-13  107.62162102

  8- 5-14  107.62125572   9- 3-10  107.82352924  11- 4-12  107.82360822  13- 5-14  107.82360822

 NUCLEAR CHARGE:                   34
 NUMBER OF PRIMITIVE AOS:         170
 NUMBER OF SYMMETRY AOS:          166
 NUMBER OF CONTRACTIONS:          106   ( 106A   )
 NUMBER OF CORE ORBITALS:           4   (   4A   )
 NUMBER OF VALENCE ORBITALS:       26   (  26A   )


 NUCLEAR REPULSION ENERGY  134.07051350


 Eigenvalues of metric

         1 0.225E-02 0.614E-02 0.614E-02 0.233E-01 0.256E-01 0.268E-01 0.268E-01 0.277E-01


 Contracted 2-electron integrals neglected if value below      1.0D-11
 AO integral compression algorithm  1   Integral accuracy      1.0D-11

     64.750 MB (compressed) written to integral file ( 46.7%)


 NUMBER OF SORTED TWO-ELECTRON INTEGRALS:   16082956.     BUFFER LENGTH:  32768
 NUMBER OF SEGMENTS:   2  SEGMENT LENGTH:   15997996      RECORD LENGTH: 524288

 Memory used in sort:      16.56 MW

 SORT1 READ    17384690. AND WROTE    14795173. INTEGRALS IN     44 RECORDS. CPU TIME:     0.21 SEC, REAL TIME:     0.43 SEC
 SORT2 READ    14795173. AND WROTE    16082956. INTEGRALS IN    247 RECORDS. CPU TIME:     0.40 SEC, REAL TIME:     0.51 SEC

 FILE SIZES:   FILE 1:    95.4 MBYTE,  FILE 4:   184.6 MBYTE,   TOTAL:    279.9 MBYTE

 OPERATOR DM      FOR CENTER  0  COORDINATES:    0.000000    0.000000    0.000000


 **********************************************************************************************************************************
 DATASETS  * FILE   NREC   LENGTH (MB)   RECORD NAMES
              1      19       87.57       500      610      700      900      950      970     1000      129      960     1100   
                                          VAR    BASINP    GEOM    SYMINP    ZMAT    AOBASIS   BASIS     P2S    ABASIS      S 
                                         1400     1410     1200     1210     1080     1600     1650     1300     1700   
                                           T        V       H0       H01     AOSYM     SMH    MOLCAS    ERIS     OPER   

 PROGRAMS   *        TOTAL       INT
 CPU TIMES  *         2.64      2.50
 REAL TIME  *         6.31 SEC
 DISK USED  *       280.45 MB      
 **********************************************************************************************************************************

 Density functional group VS99=VSXC
 Functional: VSXC(Automatically generated (new) VSXC)                          Gradient terms: 2
 Use grid at  1800.2

 Functional: VSXC                      Factor:  1.0000

 Generated new metagrid on record  1800.2 with target accuracy 1.0D-06 and 45620 points in CPU time    1.0
 Computed new grid on record 1800.1 in CPU time    1.2
  169114 words reserved for DFT integration

 PROGRAM * RKS-SCF (Restricted closed shell Kohn-Sham)     Authors: W. Meyer, H.-J. Werner, P.J. Knowles, 1993

 NUMBER OF ELECTRONS:      17+   17-    SPACE SYMMETRY=1    SPIN SYMMETRY: Singlet 
 CONVERGENCE THRESHOLDS:    1.00E-05 (Density)    1.00E-06 (Energy)
 MAX. NUMBER OF ITERATIONS:       60
 INTERPOLATION TYPE:            DIIS
 INTERPOLATION STEPS:              2 (START)      1 (STEP)
 LEVEL SHIFTS:                  0.00 (CLOSED)  0.00 (OPEN) 



 Use fine grid record 1800.2 for energy threshold  1.0D-06
 Orbital guess generated from atomic densities. Full valence occupancy:   17

 Molecular orbital dump at record        2100.2

 Initial occupancy:  17

 ITERATION    DDIFF          GRAD             ENERGY        2-EL.EN.            DIPOLE MOMENTS         DIIS   ORB.
    1      0.000D+00      0.000D+00      -157.49718220    430.553552    0.00013   -0.00000   -0.01802    0    start
    2      0.000D+00      0.974D-02      -157.34530197    401.775518    0.00230   -0.00000    0.08069    1    diag
    3      0.249D-01      0.135D-01      -157.67204560    418.590687    0.00125   -0.00000    0.09162    2    diag
    4      0.157D-01      0.961D-03      -157.67318658    418.211681    0.00135   -0.00000    0.05073    3    diag
    5      0.118D-02      0.403D-03      -157.67342958    418.314998    0.00141   -0.00000    0.05088    4    diag
    6      0.357D-03      0.729D-04      -157.67343696    418.331716    0.00141   -0.00000    0.06320    5    diag
    7      0.879D-04      0.198D-04      -157.67343761    418.344378    0.00141   -0.00000    0.05730    6    diag
    8      0.268D-04      0.470D-05      -157.67343765    418.346140    0.00141   -0.00000    0.05869    7    diag
    9      0.586D-05      0.150D-06      -157.67343765    418.346196    0.00141   -0.00000    0.05866    0    orth

 Final occupancy:  17

 !RKS STATE 1.1 Energy               -157.673437652327
 Nuclear energy                       134.07051350
 One-electron energy                 -476.18507330
 Two-electron energy                  209.17309787
 Density functional                   -24.73197571     VSXC=-24.73197571
 Virial quotient                       -1.01041811
 !RKS STATE 1.1 Dipole moment           0.00141346    -0.00000000     0.05865552
 Dipole moment /Debye                   0.00359243    -0.00000000     0.14907769

 Orbital energies:

         1.1          2.1          3.1          4.1          5.1          6.1          7.1          8.1          9.1         10.1
     -9.964344    -9.946303    -9.946140    -9.946132    -0.742636    -0.622742    -0.622680    -0.502529    -0.409886    -0.379001

        11.1         12.1         13.1         14.1         15.1         16.1         17.1         18.1         19.1
     -0.378909    -0.331029    -0.331021    -0.310835    -0.280413    -0.280399    -0.270700     0.048400     0.094475

 HOMO     17.1    -0.270700 =      -7.3661eV
 LUMO     18.1     0.048400 =       1.3170eV
 LUMO-HOMO         0.319100 =       8.6832eV


 **********************************************************************************************************************************
 DATASETS  * FILE   NREC   LENGTH (MB)   RECORD NAMES
              1      20       89.03       500      610      700      900      950      970     1000      129      960     1100   
                                          VAR    BASINP    GEOM    SYMINP    ZMAT    AOBASIS   BASIS     P2S    ABASIS      S 
                                         1400     1410     1200     1210     1080     1600     1650     1300     1700     1800   
                                           T        V       H0       H01     AOSYM     SMH    MOLCAS    ERIS     OPER     GRID   

              2       5        3.22       700     1000      520     1800     2100   
                                         GEOM     BASIS   MCVARS    GRID      RKS  

 PROGRAMS   *        TOTAL        KS       INT
 CPU TIMES  *        31.57     28.93      2.50
 REAL TIME  *        35.58 SEC
 DISK USED  *       280.45 MB      
 **********************************************************************************************************************************


 PROGRAM * Intrinsic Basis Bonding Analysis (IBBA)          Author: G. Knizia

 Molecular orbitals read from record     2100.2  Type=RKS/CANONICAL (state 1.1)
 Fock matrix read from record            2100.2  Type=RKS/TOTAL (state 1.1)
 Orbital energies read from record       2100.2  Type=RKS/CANONICAL (state 1.1)
 Density matrix read from record         2100.2  Type=RKS/CHARGE (state 1.1)

 Number of core orbitals:           4 (   4 )
 Number of closed-shell orbitals:  13 (  13 )

 Basis set MINAO-AUTO-PP generated.      Number of basis functions:   30 

 Polarized AO type:                A = (O Ot + (1-O)(1-Ot)) P12
 Orthogonalization method:         Symmetric (Loewdin)
 Localization functional:          L = sum[A,i] <i|n_A|i>^4 -> max

 Localization group 1:  17 orbitals, occupancy  2.000
 Iterative localization: IB/PM,    7 iter; Final gradient 0.22E-08

 Bond order analysis:       [THRPRINT= 0.020]

   CEN ATOM   CEN ATOM     WIBERG.BO      RENORM.BO
     1   C  -   3   C       1.016195       1.010403
     1   C  -   4   C       1.016148       1.010342
     1   C  -   5   C       1.016148       1.010342
     1   C  -   2   H       0.929470       0.952531

     2   H  -   1   C       0.929470       0.952531

     3   C  -   1   C       1.016195       1.010403
     3   C  -   9   H       0.963922       0.982145
     3   C  -  10   H       0.963922       0.982145
     3   C  -   6   H       0.962001       0.975969

     4   C  -   1   C       1.016148       1.010342
     4   C  -  11   H       0.963974       0.982156
     4   C  -  12   H       0.963961       0.982135
     4   C  -   7   H       0.962067       0.975959

     5   C  -   1   C       1.016148       1.010342
     5   C  -  14   H       0.963974       0.982156
     5   C  -  13   H       0.963961       0.982135
     5   C  -   8   H       0.962067       0.975959

     6   H  -   3   C       0.962001       0.975969

     7   H  -   4   C       0.962067       0.975959

     8   H  -   5   C       0.962067       0.975959

     9   H  -   3   C       0.963922       0.982145

    10   H  -   3   C       0.963922       0.982145

    11   H  -   4   C       0.963974       0.982156

    12   H  -   4   C       0.963961       0.982135

    13   H  -   5   C       0.963961       0.982135

    14   H  -   5   C       0.963974       0.982156


 Valency analysis:

   CEN ATOM   TOT.VALENCE
     1   C       3.983422
     2   H       0.985442
     3   C       3.945101
     4   C       3.945215
     5   C       3.945215
     6   H       0.984607
     7   H       0.984663
     8   H       0.984663
     9   H       0.983284
    10   H       0.983284
    11   H       0.983302
    12   H       0.983307
    13   H       0.983307
    14   H       0.983302

 Total charge composition:

   CEN ATOM         s          p       ELECTRONS ->P.CHARGE
     1   C       2.96328    3.10456      6.06784   -0.06784
     2   H       0.87934                 0.87934    0.12066
     3   C       3.03785    3.36247      6.40032   -0.40032
     4   C       3.03790    3.36193      6.39983   -0.39983
     5   C       3.03790    3.36193      6.39983   -0.39983
     6   H       0.87593                 0.87593    0.12407
     7   H       0.87616                 0.87616    0.12384
     8   H       0.87616                 0.87616    0.12384
     9   H       0.87071                 0.87071    0.12929
    10   H       0.87071                 0.87071    0.12929
    11   H       0.87078                 0.87078    0.12922
    12   H       0.87080                 0.87080    0.12920
    13   H       0.87080                 0.87080    0.12920
    14   H       0.87078                 0.87078    0.12922

 Total charge composition, AO contributions:

   CEN ATOM SHL      SPHERICAL COMPONENTS
     1   C  1s       1.99162
     1   C  2s       0.97166
     1   C  2p       0.99995    1.00000    1.10461

     2   H  1s       0.87934

     3   C  1s       1.99101
     3   C  2s       1.04684
     3   C  2p       1.06481    1.15483    1.14283

     4   C  1s       1.99101
     4   C  2s       1.04689
     4   C  2p       1.13214    1.08713    1.14266

     5   C  1s       1.99101
     5   C  2s       1.04689
     5   C  2p       1.13214    1.08713    1.14266

     6   H  1s       0.87593

     7   H  1s       0.87616

     8   H  1s       0.87616

     9   H  1s       0.87071

    10   H  1s       0.87071

    11   H  1s       0.87078

    12   H  1s       0.87080

    13   H  1s       0.87080

    14   H  1s       0.87078

 Summary of localized orbital composition:   [THRPRINT= 0.020]

   ORB  GRP  ORB.ENERGY      CENTERS/CHARGES
     1   1    -9.861839      C  1   2.000
     2   1    -9.832796      C  3   2.000
     3   1    -9.832622      C  5   2.000
     4   1    -9.832622      C  4   2.000
     5   1    -0.503072      C  3   1.009   C  1   0.974
     6   1    -0.502973      C  5   1.009   C  1   0.974
     7   1    -0.502973      C  4   1.009   C  1   0.974
     8   1    -0.440473      C  3   1.127   H  9   0.863
     9   1    -0.440473      C  3   1.127   H 10   0.863
    10   1    -0.440366      C  5   1.127   H 13   0.863
    11   1    -0.440366      C  4   1.127   H 12   0.863
    12   1    -0.440349      C  4   1.127   H 11   0.863
    13   1    -0.440349      C  5   1.127   H 14   0.863
    14   1    -0.439894      C  3   1.123   H  6   0.868
    15   1    -0.439842      C  5   1.122   H  8   0.868
    16   1    -0.439842      C  4   1.122   H  7   0.868
    17   1    -0.434848      C  1   1.101   H  2   0.866   (other: 0.033)

 Localized orbitals saved to record      2100.2  (orbital set 2)


 **********************************************************************************************************************************
 DATASETS  * FILE   NREC   LENGTH (MB)   RECORD NAMES
              1      20       89.03       500      610      700      900      950      970     1000      129      960     1100   
                                          VAR    BASINP    GEOM    SYMINP    ZMAT    AOBASIS   BASIS     P2S    ABASIS      S 
                                         1400     1410     1200     1210     1080     1600     1650     1300     1700     1800   
                                           T        V       H0       H01     AOSYM     SMH    MOLCAS    ERIS     OPER     GRID   

              2       5        3.31       700     1000      520     1800     2100   
                                         GEOM     BASIS   MCVARS    GRID      RKS  

 PROGRAMS   *        TOTAL      IBBA        KS       INT
 CPU TIMES  *        31.60      0.03     28.93      2.50
 REAL TIME  *        35.70 SEC
 DISK USED  *       280.45 MB      
 **********************************************************************************************************************************
 Molecular orbitals read from record     2100.2  Type=RKS/LOCAL(IBO)  
 Occupation numbers read from record     2100.2  Type=RKS/LOCAL(IBO)  
 Orbital energies read from record       2100.2  Type=RKS/LOCAL(IBO)  
 Redundancy group numbers read from rec  2100.2  Type=RKS/LOCAL(IBO)  

 IBBA/SVP energy=      0.000000000000

        KS-SCF  
   -157.67343765
 **********************************************************************************************************************************
 Molpro calculation terminated
