
 Primary working directories    : /tmp/sb13343
 Secondary working directories  : /tmp/sb13343
 Wavefunction directory         : /panfs/panasas01/chem/sb13343/wfu/
 Main file repository           : /tmp/sb13343/

 SHA1      : b4a5b34a9e711420743f49e6833241d17c61fb3c
 NAME      : 2099.9.b4a5b34
 ARCHNAME  : linux/x86_64_openmp
 FC        : /cm/shared/languages/GCC-6.1/bin/gfortran
 BLASLIB   : -lblas
 id        : simonbennie

 Nodes     nprocs
 node32-020    1

 Using customized tuning parameters: mindgm=1; mindgv=20; mindgc=4; mindgr=1; noblas=0; minvec=7
 default implementation of scratch files=df  

 memory,500,m
 geomtyp=xyz
 nosym
 noorient
 geometry={
 O          0.25818        0.93788        0.04074
 C          1.63656        1.04230        0.32330
 H          1.89907        2.10041        0.23555
 H          2.26234        0.47024       -0.37847
 C         -0.29581       -0.36510        0.22961
 H          0.07373       -0.77023        1.18842
 C          0.09996       -1.32219       -0.89979
 C         -1.80707       -0.17660        0.31883
 H         -2.30941       -1.13436        0.49338
 H         -2.05917        0.50650        1.13581
 H         -2.19015        0.25071       -0.61475
 H         -0.34617       -2.31074       -0.74107
 H         -0.25158       -0.93408       -1.86253
 H          1.18531       -1.45552       -0.96063
 H          1.86878        0.70360        1.34661
 }
 basis={ default,sto-3g }
 {uks,M11-L,direct;wf,42,1,0}
 {ibba,bonds=1}

 Variables initialized (895), CPU time= 0.01 sec
 Commands  initialized (725), CPU time= 0.01 sec, 591 directives.
 Default parameters read. Elapsed time= 0.09 sec

 Checking input...
 Passed
1


                                         ***  PROGRAM SYSTEM MOLPRO  ***
                                       Copyright, TTI GmbH Stuttgart, 2015
                                    Version 2099.9 linked May 26 2017 16:03:21


 **********************************************************************************************************************************
 LABEL *                                                                                 
  64 bit serial version                                                                  DATE: 07-Jun-17          TIME: 21:51:28  
 **********************************************************************************************************************************

 SHA1:             b4a5b34a9e711420743f49e6833241d17c61fb3c
 **********************************************************************************************************************************
 SETTING GEOMTYP        =    XYZ

 Variable memory set to  500000000 words,  buffer space 

 ZSYMEL=NOSYM

 SETTING BASIS          =    STO-3G


 Recomputing integrals since basis changed


 Using spherical harmonics

 Library entry O      S STO-3G               selected for orbital group  1
 Library entry O      P STO-3G               selected for orbital group  1
 Library entry C      S STO-3G               selected for orbital group  2
 Library entry C      P STO-3G               selected for orbital group  2
 Library entry H      S STO-3G               selected for orbital group  3


 PROGRAM * SEWARD (Integral evaluation for generally contracted gaussian basis sets)     Author: Roland Lindh, 1990

 Geometry written to block  1 of record 700


 Point group  C1  



 ATOMIC COORDINATES

 NR  ATOM    CHARGE       X              Y              Z

   1  O       8.00    0.487889491    1.772336338    0.076987442
   2  C       6.00    3.092650186    1.969661540    0.610948456
   3  H       1.00    3.588722191    3.969199649    0.445124989
   4  H       1.00    4.275203001    0.888624813   -0.715204646
   5  C       6.00   -0.558999885   -0.689939008    0.433900015
   6  H       1.00    0.139329507   -1.455523753    2.245788321
   7  C       6.00    0.188897023   -2.498576985   -1.700356670
   8  C       6.00   -3.414867388   -0.333725634    0.602501380
   9  H       1.00   -4.364152409   -2.143629727    0.932353075
  10  H       1.00   -3.891267344    0.957146282    2.146369830
  11  H       1.00   -4.138783672    0.473773237   -1.161709135
  12  H       1.00   -0.654166493   -4.366665745   -1.400419339
  13  H       1.00   -0.475417298   -1.765155378   -3.519671599
  14  H       1.00    2.239911273   -2.750534169   -1.815327607
  15  H       1.00    3.531482387    1.329611301    2.544724097

 Bond lengths in Bohr (Angstrom)

  1- 2  2.666238902   1- 5  2.699289504   2- 3  2.066818209   2- 4  2.079844613   2-15  2.083680934
       ( 1.410912866)       ( 1.428402491)       ( 1.093713095)       ( 1.100606371)       ( 1.102636465)

  5- 6  2.087276497   5- 7  2.895785336   5- 8  2.882931422   7-12  2.071345966   7-13  2.071020903
       ( 1.104539155)       ( 1.532383608)       ( 1.525581609)       ( 1.096109081)       ( 1.095937065)

  7-14  2.069628032   8- 9  2.070192508   8-10  2.068051501   8-11  2.070880961
       ( 1.095199989)       ( 1.095498697)       ( 1.094365725)       ( 1.095863011)

 Bond angles

  1- 2- 3  106.85884507   1- 2- 4  112.91125973   1- 2-15  111.64621834   1- 5- 6  108.63888518

  1-5-7  111.84608248   1-5-8  106.21369660   2-1-5  114.82992588   3-2-4  108.37425913

  3- 2-15  108.72850466   4- 2-15  108.20064699   5- 7-12  110.57572754   5- 7-13  110.08520206

  5- 7-14  111.89623115   5- 8- 9  110.82645738   5- 8-10  110.42517473   5- 8-11  110.16013005

  6- 5- 7  108.92239636   6- 5- 8  109.02480146   7- 5- 8  112.09364518   9- 8-10  108.73162751

  9- 8-11  108.44218100  10- 8-11  108.18344616  12- 7-13  108.42317703  12- 7-14  107.55382926

 13- 7-14  108.19151953

 NUCLEAR CHARGE:                   42
 NUMBER OF PRIMITIVE AOS:         105
 NUMBER OF SYMMETRY AOS:          105
 NUMBER OF CONTRACTIONS:           35   (  35A   )
 NUMBER OF CORE ORBITALS:           5   (   5A   )
 NUMBER OF VALENCE ORBITALS:       30   (  30A   )


 NUCLEAR REPULSION ENERGY  195.74983609


 Eigenvalues of metric

         1 0.208E+00 0.227E+00 0.234E+00 0.281E+00 0.352E+00 0.360E+00 0.363E+00 0.368E+00


 Contracted 2-electron integrals neglected if value below      1.0D-11
 AO integral compression algorithm  1   Integral accuracy      1.0D-11

     1.573 MB (compressed) written to integral file ( 89.1%)


 NUMBER OF SORTED TWO-ELECTRON INTEGRALS:     198765.     BUFFER LENGTH:  32768
 NUMBER OF SEGMENTS:   1  SEGMENT LENGTH:     198765      RECORD LENGTH: 524288

 Memory used in sort:       0.76 MW

 SORT1 READ      224802. AND WROTE      193897. INTEGRALS IN      1 RECORDS. CPU TIME:     0.01 SEC, REAL TIME:     0.01 SEC
 SORT2 READ      193897. AND WROTE      198765. INTEGRALS IN      6 RECORDS. CPU TIME:     0.02 SEC, REAL TIME:     0.02 SEC

 FILE SIZES:   FILE 1:    31.8 MBYTE,  FILE 4:     4.2 MBYTE,   TOTAL:     36.0 MBYTE

 OPERATOR DM      FOR CENTER  0  COORDINATES:    0.000000    0.000000    0.000000


 **********************************************************************************************************************************
 DATASETS  * FILE   NREC   LENGTH (MB)   RECORD NAMES
              1      19       31.10       500      610      700      900      950      970     1000      129      960     1100   
                                          VAR    BASINP    GEOM    SYMINP    ZMAT    AOBASIS   BASIS     P2S    ABASIS      S 
                                         1400     1410     1200     1210     1080     1600     1650     1300     1700   
                                           T        V       H0       H01     AOSYM     SMH    MOLCAS    ERIS     OPER   

 PROGRAMS   *        TOTAL       INT
 CPU TIMES  *         0.79      0.63
 REAL TIME  *         1.17 SEC
 DISK USED  *        36.55 MB      
 **********************************************************************************************************************************

 Density functional group M11-L=XC-M11-L
 Functional: XC-M11-L(via MFM 1.6)                                             Gradient terms: 1
 Use grid at  1800.2

 Functional: XC-M11-L                  Factor:  1.0000

 Generated new metagrid on record  1800.2 with target accuracy 1.0D-06 and 52852 points in CPU time    1.4
 Computed new grid on record 1800.1 in CPU time    1.5
   32369 words reserved for DFT integration

 PROGRAM * UKS-SCF (Unrestricted Kohn-Sham)     Authors: W. Meyer, H.-J. Werner, P.J. Knowles, 1993

 NUMBER OF ELECTRONS:      21+   21-    SPACE SYMMETRY=1    SPIN SYMMETRY: Singlet 
 CONVERGENCE THRESHOLDS:    1.00E-05 (Density)    1.00E-06 (Energy)
 MAX. NUMBER OF ITERATIONS:       60
 INTERPOLATION TYPE:            DIIS
 INTERPOLATION STEPS:              2 (START)      1 (STEP)
 LEVEL SHIFTS:                 -0.20 (ALPHA)  -0.20 (BETA) 



 Use fine grid record 1800.2 for energy threshold  1.0D-06
 Orbital guess generated from atomic densities. Full valence occupancy:   21

 Molecular orbital dump at record        2200.2

 Initial alpha occupation  21
 Initial beta  occupation  21

 ITERATION    DDIFF          GRAD             ENERGY        2-EL.EN.            DIPOLE MOMENTS         DIIS
    1      0.000D+00      0.000D+00      -229.69788894    631.459089    0.62732   -1.01889    0.32778    0
    2      0.525D-01      0.170D-01      -229.96768110    615.296254    0.03366   -0.21353    0.02023    1
    3      0.597D-02      0.255D-02      -229.97225594    616.728279    0.14862   -0.35007    0.10986    2
    4      0.105D-02      0.329D-03      -229.97238783    616.670613    0.15066   -0.35169    0.11348    3
    5      0.311D-03      0.102D-03      -229.97240152    616.665490    0.15396   -0.35407    0.11489    4
    6      0.159D-03      0.295D-04      -229.97240332    616.666705    0.15417   -0.35285    0.11448    5
    7      0.277D-04      0.704D-05      -229.97240338    616.666503    0.15435   -0.35333    0.11465    5
    8      0.786D-05      0.250D-05      -229.97240339    616.666100    0.15430   -0.35318    0.11460    6
    9      0.152D-05      0.355D-06      -229.97240339    616.666269    0.15429   -0.35318    0.11460    6

 Final alpha occupancy:  21
 Final beta  occupancy:  21

 !UKS STATE 1.1 Energy               -229.972403386801
 Nuclear energy                       195.74983609
 One-electron energy                 -700.67865226
 Two-electron energy                  308.33313443
 Density functional                   -33.37672165     XC-M11-L=-33.37672165
 Virial quotient                       -1.01079354
 !UKS STATE 1.1 Dipole moment           0.15429409    -0.35318472     0.11460136
 Dipole moment /Debye                   0.39215078    -0.89764722     0.29126852

 Orbital energies for positive spin:

         1.1          2.1          3.1          4.1          5.1          6.1          7.1          8.1          9.1         10.1
    -18.917728   -10.095377   -10.078916   -10.036256   -10.034131    -0.972968    -0.721491    -0.633608    -0.611245    -0.514062

        11.1         12.1         13.1         14.1         15.1         16.1         17.1         18.1         19.1         20.1
     -0.417755    -0.392954    -0.376780    -0.354841    -0.333085    -0.324345    -0.311628    -0.288140    -0.278097    -0.191255

        21.1         22.1         23.1
     -0.119540     0.264189     0.332713

 Orbital energies for negative spin:

         1.1          2.1          3.1          4.1          5.1          6.1          7.1          8.1          9.1         10.1
    -18.917728   -10.095377   -10.078916   -10.036256   -10.034131    -0.972968    -0.721491    -0.633608    -0.611245    -0.514062

        11.1         12.1         13.1         14.1         15.1         16.1         17.1         18.1         19.1         20.1
     -0.417755    -0.392954    -0.376780    -0.354841    -0.333085    -0.324345    -0.311628    -0.288140    -0.278097    -0.191255

        21.1         22.1         23.1
     -0.119540     0.264189     0.332713

 HOMO     21.1    -0.119540 =      -3.2529eV
 LUMO     22.1     0.264189 =       7.1889eV
 LUMO-HOMO         0.383729 =      10.4418eV

 EXPECTATION VALUE OF S**2:             0.00000000

 Natural orbitals saved to record    2200.2 (Orbital set 3)

 Orbital spaces for UNO-CAS (Min. occupation: 0.020  Max. occupation: 1.980):

 Closed:       21
 Active:        0


 **********************************************************************************************************************************
 DATASETS  * FILE   NREC   LENGTH (MB)   RECORD NAMES
              1      20       32.79       500      610      700      900      950      970     1000      129      960     1100   
                                          VAR    BASINP    GEOM    SYMINP    ZMAT    AOBASIS   BASIS     P2S    ABASIS      S 
                                         1400     1410     1200     1210     1080     1600     1650     1300     1700     1800   
                                           T        V       H0       H01     AOSYM     SMH    MOLCAS    ERIS     OPER     GRID   

              2       5        3.05       700     1000      520     1800     2200   
                                         GEOM     BASIS   MCVARS    GRID      UKS  

 PROGRAMS   *        TOTAL       UKS       INT
 CPU TIMES  *        11.90     11.11      0.63
 REAL TIME  *        12.78 SEC
 DISK USED  *        36.55 MB      
 **********************************************************************************************************************************


 PROGRAM * Intrinsic Basis Bonding Analysis (IBBA)          Author: G. Knizia

 Molecular orbitals read from record     2200.2  Type=UKS/ALPHA (state 1.1)
 Fock matrix read from record            2200.2  Type=UKS/TOTAL (state 1.1)
 Orbital energies read from record       2200.2  Type=UKS/ALPHA (state 1.1)
 Density matrix read from record         2200.2  Type=UKS/CHARGE (state 1.1)

 Number of core orbitals:           5 (   5 )
 Number of closed-shell orbitals:  16 (  16 )

 Basis set MINAO-AUTO-PP generated.      Number of basis functions:   35 

 Polarized AO type:                A = (O Ot + (1-O)(1-Ot)) P12
 Orthogonalization method:         Symmetric (Loewdin)
 Localization functional:          L = sum[A,i] <i|n_A|i>^4 -> max

 Localization group 1:  21 orbitals, occupancy  2.000
 Iterative localization: IB/PM,    7 iter; Final gradient 0.14E-08

 Bond order analysis:       [THRPRINT= 0.020]

   CEN ATOM   CEN ATOM     WIBERG.BO      RENORM.BO
     1   O  -   2   C       1.018941       1.018693
     1   O  -   5   C       0.980878       0.974780
     1   O  -   4   H       0.030337       0.017779
     1   O  -  15   H       0.028693       0.016953
     1   O  -   7   C       0.026153       0.013730
     1   O  -   6   H       0.022091       0.013223

     2   C  -   1   O       1.018941       1.018693
     2   C  -   3   H       0.959723       0.974015
     2   C  -  15   H       0.957070       0.946495
     2   C  -   4   H       0.956405       0.944560

     3   H  -   2   C       0.959723       0.974015

     4   H  -   2   C       0.956405       0.944560
     4   H  -   1   O       0.030337       0.017779

     5   C  -   8   C       1.009200       1.000991
     5   C  -   7   C       1.002875       0.976442
     5   C  -   1   O       0.980878       0.974780
     5   C  -   6   H       0.934924       0.927051

     6   H  -   5   C       0.934924       0.927051
     6   H  -   1   O       0.022091       0.013223

     7   C  -   5   C       1.002875       0.976442
     7   C  -  14   H       0.968322       0.986168
     7   C  -  12   H       0.967725       0.989474
     7   C  -  13   H       0.966958       0.984621
     7   C  -   1   O       0.026153       0.013730

     8   C  -   5   C       1.009200       1.000991
     8   C  -   9   H       0.968825       0.990315
     8   C  -  10   H       0.966126       0.986793
     8   C  -  11   H       0.965918       0.984516

     9   H  -   8   C       0.968825       0.990315

    10   H  -   8   C       0.966126       0.986793

    11   H  -   8   C       0.965918       0.984516

    12   H  -   7   C       0.967725       0.989474

    13   H  -   7   C       0.966958       0.984621

    14   H  -   7   C       0.968322       0.986168

    15   H  -   2   C       0.957070       0.946495
    15   H  -   1   O       0.028693       0.016953


 Valency analysis:

   CEN ATOM   TOT.VALENCE
     1   O       2.148680
     2   C       3.912541
     3   H       0.983151
     4   H       0.989387
     5   C       3.952583
     6   H       0.990050
     7   C       3.948976
     8   C       3.946714
     9   H       0.984428
    10   H       0.983053
    11   H       0.984063
    12   H       0.984209
    13   H       0.984646
    14   H       0.985517
    15   H       0.989185

 Total charge composition:

   CEN ATOM         s          p       ELECTRONS ->P.CHARGE
     1   O       3.67467    4.56953      8.24420   -0.24420
     2   C       3.02732    3.19686      6.22418   -0.22418
     3   H       0.87020                 0.87020    0.12980
     4   H       0.89698                 0.89698    0.10302
     5   C       2.98280    2.98888      5.97169    0.02831
     6   H       0.90025                 0.90025    0.09975
     7   C       3.02350    3.35471      6.37822   -0.37822
     8   C       3.02203    3.34739      6.36942   -0.36942
     9   H       0.87521                 0.87521    0.12479
    10   H       0.86982                 0.86982    0.13018
    11   H       0.87376                 0.87376    0.12624
    12   H       0.87434                 0.87434    0.12566
    13   H       0.87609                 0.87609    0.12391
    14   H       0.87965                 0.87965    0.12035
    15   H       0.89600                 0.89600    0.10400

 Total charge composition, AO contributions:

   CEN ATOM SHL      SPHERICAL COMPONENTS
     1   O  1s       1.99712
     1   O  2s       1.67754
     1   O  2p       1.28657    1.40171    1.88125

     2   C  1s       1.99100
     2   C  2s       1.03632
     2   C  2p       0.89073    1.16358    1.14254

     3   H  1s       0.87020

     4   H  1s       0.89698

     5   C  1s       1.99152
     5   C  2s       0.99128
     5   C  2p       1.01716    0.88532    1.08640

     6   H  1s       0.90025

     7   C  1s       1.99037
     7   C  2s       1.03314
     7   C  2p       1.14144    1.11280    1.10048

     8   C  1s       1.99028
     8   C  2s       1.03175
     8   C  2p       1.04393    1.14842    1.15504

     9   H  1s       0.87521

    10   H  1s       0.86982

    11   H  1s       0.87376

    12   H  1s       0.87434

    13   H  1s       0.87609

    14   H  1s       0.87965

    15   H  1s       0.89600

 Summary of localized orbital composition:   [THRPRINT= 0.020]

   ORB  GRP  ORB.ENERGY      CENTERS/CHARGES
     1   1   -18.739308      O  1   2.000
     2   1    -9.994200      C  5   2.000
     3   1    -9.968012      C  2   2.000
     4   1    -9.919522      C  8   2.000
     5   1    -9.918217      C  7   2.000
     6   1    -0.647446      O  1   1.170   C  2   0.820
     7   1    -0.626387      O  1   1.178   C  5   0.801   (other: 0.021)
     8   1    -0.541926      O  1   1.973   (other: 0.027)
     9   1    -0.518840      C  5   0.998   C  8   0.987
    10   1    -0.515395      C  7   0.999   C  5   0.993
    11   1    -0.456939      C  2   1.120   H  4   0.879
    12   1    -0.456421      C  2   1.129   H  3   0.862
    13   1    -0.456132      C  2   1.120   H 15   0.879
    14   1    -0.455648      C  5   1.107   H  6   0.878
    15   1    -0.442306      C  8   1.120   H  9   0.869
    16   1    -0.441773      C  7   1.121   H 12   0.868
    17   1    -0.441374      C  7   1.117   H 14   0.874
    18   1    -0.436307      C  8   1.127   H 10   0.864
    19   1    -0.436027      C  7   1.121   H 13   0.871
    20   1    -0.434973      C  8   1.123   H 11   0.868
    21   1    -0.157017      O  1   1.916   (other: 0.084)

 Localized orbitals saved to record      2200.2  (orbital set 4)


 **********************************************************************************************************************************
 DATASETS  * FILE   NREC   LENGTH (MB)   RECORD NAMES
              1      20       32.79       500      610      700      900      950      970     1000      129      960     1100   
                                          VAR    BASINP    GEOM    SYMINP    ZMAT    AOBASIS   BASIS     P2S    ABASIS      S 
                                         1400     1410     1200     1210     1080     1600     1650     1300     1700     1800   
                                           T        V       H0       H01     AOSYM     SMH    MOLCAS    ERIS     OPER     GRID   

              2       5        3.06       700     1000      520     1800     2200   
                                         GEOM     BASIS   MCVARS    GRID      UKS  

 PROGRAMS   *        TOTAL      IBBA       UKS       INT
 CPU TIMES  *        11.95      0.05     11.11      0.63
 REAL TIME  *        12.94 SEC
 DISK USED  *        36.55 MB      
 **********************************************************************************************************************************
 Molecular orbitals read from record     2200.2  Type=UKS/LOCAL(IBO)  
 Occupation numbers read from record     2200.2  Type=UKS/LOCAL(IBO)  
 Orbital energies read from record       2200.2  Type=UKS/LOCAL(IBO)  
 Redundancy group numbers read from rec  2200.2  Type=UKS/BETA (state 1.1)

 IBBA/STO-3G energy=      0.000000000000

        UKS-SCF 
   -229.97240339
 **********************************************************************************************************************************
 Molpro calculation terminated
