
 Primary working directories    : /tmp/sb13343
 Secondary working directories  : /tmp/sb13343
 Wavefunction directory         : /panfs/panasas01/chem/sb13343/wfu/
 Main file repository           : /tmp/sb13343/

 SHA1      : b4a5b34a9e711420743f49e6833241d17c61fb3c
 NAME      : 2099.9.b4a5b34
 ARCHNAME  : linux/x86_64_openmp
 FC        : /cm/shared/languages/GCC-6.1/bin/gfortran
 BLASLIB   : -lblas
 id        : simonbennie

 Nodes     nprocs
 node33-025    1

 Using customized tuning parameters: mindgm=1; mindgv=20; mindgc=4; mindgr=1; noblas=0; minvec=7
 default implementation of scratch files=df  

 memory,500,m
 geomtyp=xyz
 nosym
 noorient
 geometry={
 C          0.00000        0.00000        0.00000
 H          0.00000        0.00000        1.10056
 C          1.46209        0.00000       -0.46855
 C         -0.73105       -1.26621       -0.46855
 C         -0.73105        1.26621       -0.46855
 H          1.52118        0.00000       -1.56505
 H         -0.76059       -1.31738       -1.56505
 H         -0.76059        1.31738       -1.56505
 H          1.99755        0.88622       -0.10723
 H          1.99755       -0.88622       -0.10723
 H         -0.23129       -2.17304       -0.10723
 H         -1.76626       -1.28682       -0.10723
 H         -1.76626        1.28682       -0.10723
 H         -0.23129        2.17304       -0.10723
 }
 basis={ default,svp }
 {ks,MM06-HF,direct;wf,34,1,0}
 {ibba,bonds=1}

 Variables initialized (895), CPU time= 0.01 sec
 Commands  initialized (725), CPU time= 0.01 sec, 591 directives.
 Default parameters read. Elapsed time= 5.09 sec

 Checking input...
 Passed
1


                                         ***  PROGRAM SYSTEM MOLPRO  ***
                                       Copyright, TTI GmbH Stuttgart, 2015
                                    Version 2099.9 linked May 26 2017 16:03:21


 **********************************************************************************************************************************
 LABEL *                                                                                 
  64 bit serial version                                                                  DATE: 07-Jun-17          TIME: 20:04:51  
 **********************************************************************************************************************************

 SHA1:             b4a5b34a9e711420743f49e6833241d17c61fb3c
 **********************************************************************************************************************************
 SETTING GEOMTYP        =    XYZ

 Variable memory set to  500000000 words,  buffer space 

 ZSYMEL=NOSYM

 SETTING BASIS          =    SVP


 Recomputing integrals since basis changed


 Using spherical harmonics

 Library entry C      S def2-SVP             selected for orbital group  1
 Library entry C      P def2-SVP             selected for orbital group  1
 Library entry C      D def2-SVP             selected for orbital group  1
 Library entry H      S def2-SVP             selected for orbital group  2
 Library entry H      P def2-SVP             selected for orbital group  2


 PROGRAM * SEWARD (Integral evaluation for generally contracted gaussian basis sets)     Author: Roland Lindh, 1990

 Geometry written to block  1 of record 700


 Point group  C1  



 ATOMIC COORDINATES

 NR  ATOM    CHARGE       X              Y              Z

   1  C       6.00    0.000000000    0.000000000    0.000000000
   2  H       1.00    0.000000000    0.000000000    2.079756984
   3  C       6.00    2.762949669    0.000000000   -0.885431176
   4  C       6.00   -1.381484283   -2.392790116   -0.885431176
   5  C       6.00   -1.381484283    2.392790116   -0.885431176
   6  H       1.00    2.874613586    0.000000000   -2.957515871
   7  H       1.00   -1.437306793   -2.489487402   -2.957515871
   8  H       1.00   -1.437306793    2.489487402   -2.957515871
   9  H       1.00    3.774822420    1.674713086   -0.202635332
  10  H       1.00    3.774822420   -1.674713086   -0.202635332
  11  H       1.00   -0.437074755   -4.106450458   -0.202635332
  12  H       1.00   -3.337747665   -2.431737372   -0.202635332
  13  H       1.00   -3.337747665    2.431737372   -0.202635332
  14  H       1.00   -0.437074755    4.106450458   -0.202635332

 Bond lengths in Bohr (Angstrom)

 1-2  2.079756984  1-3  2.901358172  1-4  2.901367218  1-5  2.901367218  3-6  2.075091279
     ( 1.100560000)     ( 1.535332625)     ( 1.535337412)     ( 1.535337412)     ( 1.098091015)

  3- 9  2.072380406   3-10  2.072380406   4- 7  2.075090722   4-11  2.072378172   4-12  2.072364222
       ( 1.096656483)       ( 1.096656483)       ( 1.098090721)       ( 1.096655301)       ( 1.096647919)

  5- 8  2.075090722   5-13  2.072364222   5-14  2.072378172
       ( 1.098090721)       ( 1.096647919)       ( 1.096655301)

 Bond angles

  1- 3- 6  110.85354902   1- 3- 9  111.37220114   1- 3-10  111.37220114   1- 4- 7  110.85320625

  1- 4-11  111.37204414   1- 4-12  111.37216555   1- 5- 8  110.85320625   1- 5-13  111.37216555

  1- 5-14  111.37204414   2- 1- 3  107.76888332   2- 1- 4  107.76882608   2- 1- 5  107.76882608

  3-1-4  111.11870751   3-1-5  111.11870751   4-1-5  111.11845005   6-3-9  107.62119374

  6- 3-10  107.62119374   7- 4-11  107.62125572   7- 4-12  107.62162102   8- 5-13  107.62162102

  8- 5-14  107.62125572   9- 3-10  107.82352924  11- 4-12  107.82360822  13- 5-14  107.82360822

 NUCLEAR CHARGE:                   34
 NUMBER OF PRIMITIVE AOS:         170
 NUMBER OF SYMMETRY AOS:          166
 NUMBER OF CONTRACTIONS:          106   ( 106A   )
 NUMBER OF CORE ORBITALS:           4   (   4A   )
 NUMBER OF VALENCE ORBITALS:       26   (  26A   )


 NUCLEAR REPULSION ENERGY  134.07051350


 Eigenvalues of metric

         1 0.225E-02 0.614E-02 0.614E-02 0.233E-01 0.256E-01 0.268E-01 0.268E-01 0.277E-01


 Contracted 2-electron integrals neglected if value below      1.0D-11
 AO integral compression algorithm  1   Integral accuracy      1.0D-11

     64.750 MB (compressed) written to integral file ( 46.7%)


 NUMBER OF SORTED TWO-ELECTRON INTEGRALS:   16082956.     BUFFER LENGTH:  32768
 NUMBER OF SEGMENTS:   2  SEGMENT LENGTH:   15997996      RECORD LENGTH: 524288

 Memory used in sort:      16.56 MW

 SORT1 READ    17384690. AND WROTE    14795173. INTEGRALS IN     44 RECORDS. CPU TIME:     0.23 SEC, REAL TIME:     0.46 SEC
 SORT2 READ    14795173. AND WROTE    16082956. INTEGRALS IN    247 RECORDS. CPU TIME:     0.43 SEC, REAL TIME:     0.54 SEC

 FILE SIZES:   FILE 1:    95.4 MBYTE,  FILE 4:   184.6 MBYTE,   TOTAL:    279.9 MBYTE

 OPERATOR DM      FOR CENTER  0  COORDINATES:    0.000000    0.000000    0.000000


 **********************************************************************************************************************************
 DATASETS  * FILE   NREC   LENGTH (MB)   RECORD NAMES
              1      19       87.57       500      610      700      900      950      970     1000      129      960     1100   
                                          VAR    BASINP    GEOM    SYMINP    ZMAT    AOBASIS   BASIS     P2S    ABASIS      S 
                                         1400     1410     1200     1210     1080     1600     1650     1300     1700   
                                           T        V       H0       H01     AOSYM     SMH    MOLCAS    ERIS     OPER   

 PROGRAMS   *        TOTAL       INT
 CPU TIMES  *         2.92      2.77
 REAL TIME  *         9.32 SEC
 DISK USED  *       280.45 MB      
 **********************************************************************************************************************************

 Density functional group MM06-HF=M06HFX+M06HFC
 Functional: M06HFX(Automatically generated (new) M06HFX)                      Gradient terms: 2
 Functional: M06HFC(Automatically generated (new) M06HFC)                      Gradient terms: 2
 Use grid at  1800.2


 Exact exchange will be calculated, factor:  1.0000

 Functional: M06HFX                    Factor:  1.0000
 Functional: M06HFC                    Factor:  1.0000

 Generated new metagrid on record  1800.2 with target accuracy 1.0D-06 and 45620 points in CPU time    1.1
 Computed new grid on record 1800.1 in CPU time    1.3
  169114 words reserved for DFT integration

 PROGRAM * RKS-SCF (Restricted closed shell Kohn-Sham)     Authors: W. Meyer, H.-J. Werner, P.J. Knowles, 1993

 NUMBER OF ELECTRONS:      17+   17-    SPACE SYMMETRY=1    SPIN SYMMETRY: Singlet 
 CONVERGENCE THRESHOLDS:    1.00E-05 (Density)    1.00E-06 (Energy)
 MAX. NUMBER OF ITERATIONS:       60
 INTERPOLATION TYPE:            DIIS
 INTERPOLATION STEPS:              2 (START)      1 (STEP)
 LEVEL SHIFTS:                  0.00 (CLOSED)  0.00 (OPEN) 



 Use fine grid record 1800.2 for energy threshold  1.0D-06
 Orbital guess generated from atomic densities. Full valence occupancy:   17

 Molecular orbital dump at record        2100.2

 Initial occupancy:  17

 ITERATION    DDIFF          GRAD             ENERGY        2-EL.EN.            DIPOLE MOMENTS         DIIS   ORB.
    1      0.000D+00      0.000D+00      -158.19896052    374.234462   -0.00023    0.00000   -0.00446    0    start
    2      0.000D+00      0.535D-02      -158.24828142    367.511140    0.01005    0.00000    0.04330    1    diag
    3      0.704D-02      0.276D-02      -158.26019083    370.480252    0.01073    0.00000    0.06043    2    diag
    4      0.246D-02      0.590D-03      -158.26106851    370.079054    0.01383    0.00000    0.05340    3    diag
    5      0.953D-03      0.136D-03      -158.26109843    370.126413    0.01436    0.00000    0.05532    4    diag
    6      0.152D-03      0.377D-04      -158.26110085    370.121700    0.01460    0.00000    0.05663    5    diag
    7      0.490D-04      0.548D-05      -158.26110093    370.123157    0.01468    0.00000    0.05575    6    diag
    8      0.949D-05      0.147D-05      -158.26110094    370.123095    0.01471    0.00000    0.05590    0    orth

 Final occupancy:  17

 !RKS STATE 1.1 Energy               -158.261100935877
 Nuclear energy                       134.07051350
 One-electron energy                 -476.30616702
 Two-electron energy                  185.06154774
 SCF exchange energy                  -24.22998676     Factor= 1.0000
 Density functional                    -1.08699515     M06HFX= 0.09457932 M06HFC=-1.18157447
 Virial quotient                       -1.01405650
 !RKS STATE 1.1 Dipole moment           0.01471177     0.00000000     0.05589789
 Dipole moment /Debye                   0.03739113     0.00000000     0.14206896

 Orbital energies:

         1.1          2.1          3.1          4.1          5.1          6.1          7.1          8.1          9.1         10.1
    -10.974906   -10.966004   -10.965975   -10.965832    -1.000689    -0.868275    -0.868169    -0.728626    -0.622174    -0.584953

        11.1         12.1         13.1         14.1         15.1         16.1         17.1         18.1         19.1
     -0.584625    -0.530390    -0.529657    -0.509117    -0.457023    -0.456654    -0.455510     0.114595     0.168173

 HOMO     17.1    -0.455510 =     -12.3950eV
 LUMO     18.1     0.114595 =       3.1183eV
 LUMO-HOMO         0.570104 =      15.5133eV


 **********************************************************************************************************************************
 DATASETS  * FILE   NREC   LENGTH (MB)   RECORD NAMES
              1      20       89.03       500      610      700      900      950      970     1000      129      960     1100   
                                          VAR    BASINP    GEOM    SYMINP    ZMAT    AOBASIS   BASIS     P2S    ABASIS      S 
                                         1400     1410     1200     1210     1080     1600     1650     1300     1700     1800   
                                           T        V       H0       H01     AOSYM     SMH    MOLCAS    ERIS     OPER     GRID   

              2       5        3.22       700     1000      520     1800     2100   
                                         GEOM     BASIS   MCVARS    GRID      RKS  

 PROGRAMS   *        TOTAL        KS       INT
 CPU TIMES  *        32.95     30.03      2.77
 REAL TIME  *        47.87 SEC
 DISK USED  *       280.45 MB      
 **********************************************************************************************************************************


 PROGRAM * Intrinsic Basis Bonding Analysis (IBBA)          Author: G. Knizia

 Molecular orbitals read from record     2100.2  Type=RKS/CANONICAL (state 1.1)
 Fock matrix read from record            2100.2  Type=RKS/TOTAL (state 1.1)
 Orbital energies read from record       2100.2  Type=RKS/CANONICAL (state 1.1)
 Density matrix read from record         2100.2  Type=RKS/CHARGE (state 1.1)

 Number of core orbitals:           4 (   4 )
 Number of closed-shell orbitals:  13 (  13 )

 Basis set MINAO-AUTO-PP generated.      Number of basis functions:   30 

 Polarized AO type:                A = (O Ot + (1-O)(1-Ot)) P12
 Orthogonalization method:         Symmetric (Loewdin)
 Localization functional:          L = sum[A,i] <i|n_A|i>^4 -> max

 Localization group 1:  17 orbitals, occupancy  2.000
 Iterative localization: IB/PM,    7 iter; Final gradient 0.91E-09

 Bond order analysis:       [THRPRINT= 0.020]

   CEN ATOM   CEN ATOM     WIBERG.BO      RENORM.BO
     1   C  -   5   C       1.008390       1.007303
     1   C  -   4   C       1.008390       1.007303
     1   C  -   3   C       1.008251       1.007245
     1   C  -   2   H       0.940684       0.964843

     2   H  -   1   C       0.940684       0.964843

     3   C  -   1   C       1.008251       1.007245
     3   C  -   6   H       0.966915       0.982571
     3   C  -   9   H       0.966860       0.986134
     3   C  -  10   H       0.966860       0.986134

     4   C  -   1   C       1.008390       1.007303
     4   C  -  12   H       0.967205       0.985968
     4   C  -   7   H       0.966975       0.982578
     4   C  -  11   H       0.966636       0.986232

     5   C  -   1   C       1.008390       1.007303
     5   C  -  13   H       0.967205       0.985968
     5   C  -   8   H       0.966975       0.982578
     5   C  -  14   H       0.966636       0.986232

     6   H  -   3   C       0.966915       0.982571

     7   H  -   4   C       0.966975       0.982578

     8   H  -   5   C       0.966975       0.982578

     9   H  -   3   C       0.966860       0.986134

    10   H  -   3   C       0.966860       0.986134

    11   H  -   4   C       0.966636       0.986232

    12   H  -   4   C       0.967205       0.985968

    13   H  -   5   C       0.967205       0.985968

    14   H  -   5   C       0.966636       0.986232


 Valency analysis:

   CEN ATOM   TOT.VALENCE
     1   C       3.974811
     2   H       0.985169
     3   C       3.940988
     4   C       3.941066
     5   C       3.941066
     6   H       0.986178
     7   H       0.986279
     8   H       0.986279
     9   H       0.984584
    10   H       0.984584
    11   H       0.984261
    12   H       0.984961
    13   H       0.984961
    14   H       0.984261

 Total charge composition:

   CEN ATOM         s          p       ELECTRONS ->P.CHARGE
     1   C       2.93104    3.17260      6.10364   -0.10364
     2   H       0.87822                 0.87822    0.12178
     3   C       2.99198    3.37925      6.37123   -0.37123
     4   C       2.99169    3.37993      6.37162   -0.37162
     5   C       2.99169    3.37993      6.37162   -0.37162
     6   H       0.88243                 0.88243    0.11757
     7   H       0.88287                 0.88287    0.11713
     8   H       0.88287                 0.88287    0.11713
     9   H       0.87584                 0.87584    0.12416
    10   H       0.87584                 0.87584    0.12416
    11   H       0.87455                 0.87455    0.12545
    12   H       0.87737                 0.87737    0.12263
    13   H       0.87737                 0.87737    0.12263
    14   H       0.87455                 0.87455    0.12545

 Total charge composition, AO contributions:

   CEN ATOM SHL      SPHERICAL COMPONENTS
     1   C  1s       1.99108
     1   C  2s       0.93996
     1   C  2p       1.02272    1.02265    1.12723

     2   H  1s       0.87822

     3   C  1s       1.99047
     3   C  2s       1.00151
     3   C  2p       1.06441    1.16508    1.14976

     4   C  1s       1.99047
     4   C  2s       1.00122
     4   C  2p       1.13867    1.09164    1.14962

     5   C  1s       1.99047
     5   C  2s       1.00122
     5   C  2p       1.13867    1.09164    1.14962

     6   H  1s       0.88243

     7   H  1s       0.88287

     8   H  1s       0.88287

     9   H  1s       0.87584

    10   H  1s       0.87584

    11   H  1s       0.87455

    12   H  1s       0.87737

    13   H  1s       0.87737

    14   H  1s       0.87455

 Summary of localized orbital composition:   [THRPRINT= 0.020]

   ORB  GRP  ORB.ENERGY      CENTERS/CHARGES
     1   1   -10.866250      C  1   2.000
     2   1   -10.847130      C  4   2.000
     3   1   -10.847130      C  5   2.000
     4   1   -10.846936      C  3   2.000
     5   1    -0.706451      C  4   0.998   C  1   0.987
     6   1    -0.706451      C  5   0.998   C  1   0.987
     7   1    -0.705907      C  3   0.997   C  1   0.987
     8   1    -0.656909      C  5   1.124   H 14   0.868
     9   1    -0.656909      C  4   1.124   H 11   0.868
    10   1    -0.656160      C  3   1.123   H  9   0.869
    11   1    -0.656160      C  3   1.123   H 10   0.869
    12   1    -0.654806      C  4   1.121   H 12   0.871
    13   1    -0.654806      C  5   1.121   H 13   0.871
    14   1    -0.653336      C  3   1.117   H  6   0.876
    15   1    -0.652295      C  4   1.116   H  7   0.876
    16   1    -0.652295      C  5   1.116   H  8   0.876
    17   1    -0.648647      C  1   1.110   H  2   0.865   (other: 0.024)

 Localized orbitals saved to record      2100.2  (orbital set 2)


 **********************************************************************************************************************************
 DATASETS  * FILE   NREC   LENGTH (MB)   RECORD NAMES
              1      20       89.03       500      610      700      900      950      970     1000      129      960     1100   
                                          VAR    BASINP    GEOM    SYMINP    ZMAT    AOBASIS   BASIS     P2S    ABASIS      S 
                                         1400     1410     1200     1210     1080     1600     1650     1300     1700     1800   
                                           T        V       H0       H01     AOSYM     SMH    MOLCAS    ERIS     OPER     GRID   

              2       5        3.31       700     1000      520     1800     2100   
                                         GEOM     BASIS   MCVARS    GRID      RKS  

 PROGRAMS   *        TOTAL      IBBA        KS       INT
 CPU TIMES  *        32.99      0.04     30.03      2.77
 REAL TIME  *        47.98 SEC
 DISK USED  *       280.45 MB      
 **********************************************************************************************************************************
 Molecular orbitals read from record     2100.2  Type=RKS/LOCAL(IBO)  
 Occupation numbers read from record     2100.2  Type=RKS/LOCAL(IBO)  
 Orbital energies read from record       2100.2  Type=RKS/LOCAL(IBO)  
 Redundancy group numbers read from rec  2100.2  Type=RKS/LOCAL(IBO)  

 IBBA/SVP energy=      0.000000000000

        KS-SCF  
   -158.26110094
 **********************************************************************************************************************************
 Molpro calculation terminated
