
 Primary working directories    : /tmp/sb13343
 Secondary working directories  : /tmp/sb13343
 Wavefunction directory         : /panfs/panasas01/chem/sb13343/wfu/
 Main file repository           : /tmp/sb13343/

 SHA1      : b4a5b34a9e711420743f49e6833241d17c61fb3c
 NAME      : 2099.9.b4a5b34
 ARCHNAME  : linux/x86_64_openmp
 FC        : /cm/shared/languages/GCC-6.1/bin/gfortran
 BLASLIB   : -lblas
 id        : simonbennie

 Nodes     nprocs
 node32-012    1

 Using customized tuning parameters: mindgm=1; mindgv=20; mindgc=4; mindgr=1; noblas=0; minvec=7
 default implementation of scratch files=df  

 memory,500,m
 geomtyp=xyz
 nosym
 noorient
 geometry={
 O          0.25818        0.93788        0.04074
 C          1.63656        1.04230        0.32330
 H          1.89907        2.10041        0.23555
 H          2.26234        0.47024       -0.37847
 C         -0.29581       -0.36510        0.22961
 H          0.07373       -0.77023        1.18842
 C          0.09996       -1.32219       -0.89979
 C         -1.80707       -0.17660        0.31883
 H         -2.30941       -1.13436        0.49338
 H         -2.05917        0.50650        1.13581
 H         -2.19015        0.25071       -0.61475
 H         -0.34617       -2.31074       -0.74107
 H         -0.25158       -0.93408       -1.86253
 H          1.18531       -1.45552       -0.96063
 H          1.86878        0.70360        1.34661
 }
 basis={ default,sto-3g }
 {uks,MM06-2X,direct;wf,42,1,0}
 {ibba,bonds=1}

 Variables initialized (895), CPU time= 0.01 sec
 Commands  initialized (725), CPU time= 0.01 sec, 591 directives.
 Default parameters read. Elapsed time= 0.09 sec

 Checking input...
 Passed
1


                                         ***  PROGRAM SYSTEM MOLPRO  ***
                                       Copyright, TTI GmbH Stuttgart, 2015
                                    Version 2099.9 linked May 26 2017 16:03:21


 **********************************************************************************************************************************
 LABEL *                                                                                 
  64 bit serial version                                                                  DATE: 07-Jun-17          TIME: 21:43:29  
 **********************************************************************************************************************************

 SHA1:             b4a5b34a9e711420743f49e6833241d17c61fb3c
 **********************************************************************************************************************************
 SETTING GEOMTYP        =    XYZ

 Variable memory set to  500000000 words,  buffer space 

 ZSYMEL=NOSYM

 SETTING BASIS          =    STO-3G


 Recomputing integrals since basis changed


 Using spherical harmonics

 Library entry O      S STO-3G               selected for orbital group  1
 Library entry O      P STO-3G               selected for orbital group  1
 Library entry C      S STO-3G               selected for orbital group  2
 Library entry C      P STO-3G               selected for orbital group  2
 Library entry H      S STO-3G               selected for orbital group  3


 PROGRAM * SEWARD (Integral evaluation for generally contracted gaussian basis sets)     Author: Roland Lindh, 1990

 Geometry written to block  1 of record 700


 Point group  C1  



 ATOMIC COORDINATES

 NR  ATOM    CHARGE       X              Y              Z

   1  O       8.00    0.487889491    1.772336338    0.076987442
   2  C       6.00    3.092650186    1.969661540    0.610948456
   3  H       1.00    3.588722191    3.969199649    0.445124989
   4  H       1.00    4.275203001    0.888624813   -0.715204646
   5  C       6.00   -0.558999885   -0.689939008    0.433900015
   6  H       1.00    0.139329507   -1.455523753    2.245788321
   7  C       6.00    0.188897023   -2.498576985   -1.700356670
   8  C       6.00   -3.414867388   -0.333725634    0.602501380
   9  H       1.00   -4.364152409   -2.143629727    0.932353075
  10  H       1.00   -3.891267344    0.957146282    2.146369830
  11  H       1.00   -4.138783672    0.473773237   -1.161709135
  12  H       1.00   -0.654166493   -4.366665745   -1.400419339
  13  H       1.00   -0.475417298   -1.765155378   -3.519671599
  14  H       1.00    2.239911273   -2.750534169   -1.815327607
  15  H       1.00    3.531482387    1.329611301    2.544724097

 Bond lengths in Bohr (Angstrom)

  1- 2  2.666238902   1- 5  2.699289504   2- 3  2.066818209   2- 4  2.079844613   2-15  2.083680934
       ( 1.410912866)       ( 1.428402491)       ( 1.093713095)       ( 1.100606371)       ( 1.102636465)

  5- 6  2.087276497   5- 7  2.895785336   5- 8  2.882931422   7-12  2.071345966   7-13  2.071020903
       ( 1.104539155)       ( 1.532383608)       ( 1.525581609)       ( 1.096109081)       ( 1.095937065)

  7-14  2.069628032   8- 9  2.070192508   8-10  2.068051501   8-11  2.070880961
       ( 1.095199989)       ( 1.095498697)       ( 1.094365725)       ( 1.095863011)

 Bond angles

  1- 2- 3  106.85884507   1- 2- 4  112.91125973   1- 2-15  111.64621834   1- 5- 6  108.63888518

  1-5-7  111.84608248   1-5-8  106.21369660   2-1-5  114.82992588   3-2-4  108.37425913

  3- 2-15  108.72850466   4- 2-15  108.20064699   5- 7-12  110.57572754   5- 7-13  110.08520206

  5- 7-14  111.89623115   5- 8- 9  110.82645738   5- 8-10  110.42517473   5- 8-11  110.16013005

  6- 5- 7  108.92239636   6- 5- 8  109.02480146   7- 5- 8  112.09364518   9- 8-10  108.73162751

  9- 8-11  108.44218100  10- 8-11  108.18344616  12- 7-13  108.42317703  12- 7-14  107.55382926

 13- 7-14  108.19151953

 NUCLEAR CHARGE:                   42
 NUMBER OF PRIMITIVE AOS:         105
 NUMBER OF SYMMETRY AOS:          105
 NUMBER OF CONTRACTIONS:           35   (  35A   )
 NUMBER OF CORE ORBITALS:           5   (   5A   )
 NUMBER OF VALENCE ORBITALS:       30   (  30A   )


 NUCLEAR REPULSION ENERGY  195.74983609


 Eigenvalues of metric

         1 0.208E+00 0.227E+00 0.234E+00 0.281E+00 0.352E+00 0.360E+00 0.363E+00 0.368E+00


 Contracted 2-electron integrals neglected if value below      1.0D-11
 AO integral compression algorithm  1   Integral accuracy      1.0D-11

     1.573 MB (compressed) written to integral file ( 89.1%)


 NUMBER OF SORTED TWO-ELECTRON INTEGRALS:     198765.     BUFFER LENGTH:  32768
 NUMBER OF SEGMENTS:   1  SEGMENT LENGTH:     198765      RECORD LENGTH: 524288

 Memory used in sort:       0.76 MW

 SORT1 READ      224802. AND WROTE      193897. INTEGRALS IN      1 RECORDS. CPU TIME:     0.00 SEC, REAL TIME:     0.01 SEC
 SORT2 READ      193897. AND WROTE      198765. INTEGRALS IN      6 RECORDS. CPU TIME:     0.03 SEC, REAL TIME:     0.02 SEC

 FILE SIZES:   FILE 1:    31.8 MBYTE,  FILE 4:     4.2 MBYTE,   TOTAL:     36.0 MBYTE

 OPERATOR DM      FOR CENTER  0  COORDINATES:    0.000000    0.000000    0.000000


 **********************************************************************************************************************************
 DATASETS  * FILE   NREC   LENGTH (MB)   RECORD NAMES
              1      19       31.10       500      610      700      900      950      970     1000      129      960     1100   
                                          VAR    BASINP    GEOM    SYMINP    ZMAT    AOBASIS   BASIS     P2S    ABASIS      S 
                                         1400     1410     1200     1210     1080     1600     1650     1300     1700   
                                           T        V       H0       H01     AOSYM     SMH    MOLCAS    ERIS     OPER   

 PROGRAMS   *        TOTAL       INT
 CPU TIMES  *         0.60      0.46
 REAL TIME  *         1.68 SEC
 DISK USED  *        36.55 MB      
 **********************************************************************************************************************************

 Density functional group MM06-2X=M062XX+M062XC
 Functional: M062XX(Automatically generated (new) M062XX)                      Gradient terms: 2
 Functional: M062XC(Automatically generated (new) M062XC)                      Gradient terms: 2
 Use grid at  1800.2


 Exact exchange will be calculated, factor:  0.5400

 Functional: M062XX                    Factor:  0.4600
 Functional: M062XC                    Factor:  1.0000

 Generated new metagrid on record  1800.2 with target accuracy 1.0D-06 and 52852 points in CPU time    1.4
 Computed new grid on record 1800.1 in CPU time    1.5
   59039 words reserved for DFT integration

 PROGRAM * UKS-SCF (Unrestricted Kohn-Sham)     Authors: W. Meyer, H.-J. Werner, P.J. Knowles, 1993

 NUMBER OF ELECTRONS:      21+   21-    SPACE SYMMETRY=1    SPIN SYMMETRY: Singlet 
 CONVERGENCE THRESHOLDS:    1.00E-05 (Density)    1.00E-06 (Energy)
 MAX. NUMBER OF ITERATIONS:       60
 INTERPOLATION TYPE:            DIIS
 INTERPOLATION STEPS:              2 (START)      1 (STEP)
 LEVEL SHIFTS:                 -0.20 (ALPHA)  -0.20 (BETA) 



 Use fine grid record 1800.2 for energy threshold  1.0D-06
 Orbital guess generated from atomic densities. Full valence occupancy:   21

 Molecular orbital dump at record        2200.2

 Initial alpha occupation  21
 Initial beta  occupation  21

 ITERATION    DDIFF          GRAD             ENERGY        2-EL.EN.            DIPOLE MOMENTS         DIIS
    1      0.000D+00      0.000D+00      -222.46579636    590.957462    0.49553   -0.82214    0.26915    0
    2      0.367D-01      0.146D-01      -222.64943647    580.032496    0.10527   -0.26794    0.06579    1
    3      0.309D-02      0.145D-02      -222.65132704    579.888552    0.12508   -0.28237    0.09103    2
    4      0.145D-02      0.470D-03      -222.65161376    579.835308    0.12944   -0.28684    0.09856    3
    5      0.574D-03      0.147D-03      -222.65164700    579.828547    0.13178   -0.28916    0.10044    4
    6      0.214D-03      0.404D-04      -222.65165055    579.829537    0.13152   -0.28816    0.09963    5
    7      0.600D-04      0.120D-04      -222.65165081    579.829170    0.13165   -0.28843    0.09967    6
    8      0.106D-04      0.233D-05      -222.65165082    579.829315    0.13162   -0.28835    0.09966    6
    9      0.224D-05      0.507D-06      -222.65165082    579.829215    0.13162   -0.28835    0.09967    6
   10      0.259D-06      0.797D-07      -222.65165082    579.829229    0.13162   -0.28835    0.09967    6

 Final alpha occupancy:  21
 Final beta  occupancy:  21

 !UKS STATE 1.1 Energy               -222.651650816028
 Nuclear energy                       195.74983609
 One-electron energy                 -699.95715254
 Two-electron energy                  289.91461440
 Density functional                    -8.35894877     M062XX=-14.92248179 M062XC= -1.49460714
 Virial quotient                       -0.98410920
 !UKS STATE 1.1 Dipole moment           0.13162092    -0.28834910     0.09966949
 Dipole moment /Debye                   0.33452509    -0.73286230     0.25331797

 Orbital energies for positive spin:

         1.1          2.1          3.1          4.1          5.1          6.1          7.1          8.1          9.1         10.1
    -18.749631    -9.946529    -9.939125    -9.902962    -9.900018    -0.962882    -0.728842    -0.639381    -0.608344    -0.507392

        11.1         12.1         13.1         14.1         15.1         16.1         17.1         18.1         19.1         20.1
     -0.410452    -0.388538    -0.371272    -0.347754    -0.318475    -0.312173    -0.287612    -0.263517    -0.248553    -0.142694

        21.1         22.1         23.1
     -0.076501     0.496678     0.567202

 Orbital energies for negative spin:

         1.1          2.1          3.1          4.1          5.1          6.1          7.1          8.1          9.1         10.1
    -18.749631    -9.946529    -9.939125    -9.902962    -9.900018    -0.962882    -0.728842    -0.639381    -0.608344    -0.507392

        11.1         12.1         13.1         14.1         15.1         16.1         17.1         18.1         19.1         20.1
     -0.410452    -0.388538    -0.371272    -0.347754    -0.318475    -0.312173    -0.287612    -0.263517    -0.248553    -0.142694

        21.1         22.1         23.1
     -0.076501     0.496678     0.567202

 HOMO     21.1    -0.076501 =      -2.0817eV
 LUMO     22.1     0.496678 =      13.5153eV
 LUMO-HOMO         0.573179 =      15.5970eV

 EXPECTATION VALUE OF S**2:             0.00000000

 Natural orbitals saved to record    2200.2 (Orbital set 3)

 Orbital spaces for UNO-CAS (Min. occupation: 0.020  Max. occupation: 1.980):

 Closed:       21
 Active:        0


 **********************************************************************************************************************************
 DATASETS  * FILE   NREC   LENGTH (MB)   RECORD NAMES
              1      20       32.79       500      610      700      900      950      970     1000      129      960     1100   
                                          VAR    BASINP    GEOM    SYMINP    ZMAT    AOBASIS   BASIS     P2S    ABASIS      S 
                                         1400     1410     1200     1210     1080     1600     1650     1300     1700     1800   
                                           T        V       H0       H01     AOSYM     SMH    MOLCAS    ERIS     OPER     GRID   

              2       5        3.05       700     1000      520     1800     2200   
                                         GEOM     BASIS   MCVARS    GRID      UKS  

 PROGRAMS   *        TOTAL       UKS       INT
 CPU TIMES  *        16.19     15.59      0.46
 REAL TIME  *        17.48 SEC
 DISK USED  *        36.55 MB      
 **********************************************************************************************************************************


 PROGRAM * Intrinsic Basis Bonding Analysis (IBBA)          Author: G. Knizia

 Molecular orbitals read from record     2200.2  Type=UKS/ALPHA (state 1.1)
 Fock matrix read from record            2200.2  Type=UKS/TOTAL (state 1.1)
 Orbital energies read from record       2200.2  Type=UKS/ALPHA (state 1.1)
 Density matrix read from record         2200.2  Type=UKS/CHARGE (state 1.1)

 Number of core orbitals:           5 (   5 )
 Number of closed-shell orbitals:  16 (  16 )

 Basis set MINAO-AUTO-PP generated.      Number of basis functions:   35 

 Polarized AO type:                A = (O Ot + (1-O)(1-Ot)) P12
 Orthogonalization method:         Symmetric (Loewdin)
 Localization functional:          L = sum[A,i] <i|n_A|i>^4 -> max

 Localization group 1:  21 orbitals, occupancy  2.000
 Iterative localization: IB/PM,    7 iter; Final gradient 0.48E-08

 Bond order analysis:       [THRPRINT= 0.020]

   CEN ATOM   CEN ATOM     WIBERG.BO      RENORM.BO
     1   O  -   2   C       1.028862       1.018153
     1   O  -   5   C       0.999248       0.983922
     1   O  -   4   H       0.028905       0.016693
     1   O  -  15   H       0.027146       0.015799
     1   O  -   7   C       0.026186       0.013749
     1   O  -   6   H       0.021065       0.012382

     2   C  -   1   O       1.028862       1.018153
     2   C  -   3   H       0.961160       0.975120
     2   C  -  15   H       0.959390       0.949984
     2   C  -   4   H       0.958700       0.947999

     3   H  -   2   C       0.961160       0.975120

     4   H  -   2   C       0.958700       0.947999
     4   H  -   1   O       0.028905       0.016693

     5   C  -   8   C       1.000743       0.995969
     5   C  -   1   O       0.999248       0.983922
     5   C  -   7   C       0.994975       0.972271
     5   C  -   6   H       0.941365       0.934344

     6   H  -   5   C       0.941365       0.934344
     6   H  -   1   O       0.021065       0.012382

     7   C  -   5   C       0.994975       0.972271
     7   C  -  14   H       0.969326       0.987664
     7   C  -  12   H       0.969304       0.990702
     7   C  -  13   H       0.968797       0.986959
     7   C  -   1   O       0.026186       0.013749

     8   C  -   5   C       1.000743       0.995969
     8   C  -   9   H       0.970180       0.990785
     8   C  -  11   H       0.967907       0.986919
     8   C  -  10   H       0.967897       0.988540

     9   H  -   8   C       0.970180       0.990785

    10   H  -   8   C       0.967897       0.988540

    11   H  -   8   C       0.967907       0.986919

    12   H  -   7   C       0.969304       0.990702

    13   H  -   7   C       0.968797       0.986959

    14   H  -   7   C       0.969326       0.987664

    15   H  -   2   C       0.959390       0.949984
    15   H  -   1   O       0.027146       0.015799


 Valency analysis:

   CEN ATOM   TOT.VALENCE
     1   O       2.172457
     2   C       3.926999
     3   H       0.986169
     4   H       0.992032
     5   C       3.962792
     6   H       0.992272
     7   C       3.944471
     8   C       3.942791
     9   H       0.987335
    10   H       0.986203
    11   H       0.987065
    12   H       0.987124
    13   H       0.987583
    14   H       0.988225
    15   H       0.991761

 Total charge composition:

   CEN ATOM         s          p       ELECTRONS ->P.CHARGE
     1   O       3.62496    4.53621      8.16117   -0.16117
     2   C       2.97749    3.24682      6.22431   -0.22431
     3   H       0.88239                 0.88239    0.11761
     4   H       0.91074                 0.91074    0.08926
     5   C       2.94271    3.05498      5.99768    0.00232
     6   H       0.91209                 0.91209    0.08791
     7   C       2.96616    3.37865      6.34481   -0.34481
     8   C       2.96462    3.37011      6.33472   -0.33472
     9   H       0.88746                 0.88746    0.11254
    10   H       0.88254                 0.88254    0.11746
    11   H       0.88627                 0.88627    0.11373
    12   H       0.88653                 0.88653    0.11347
    13   H       0.88857                 0.88857    0.11143
    14   H       0.89149                 0.89149    0.10851
    15   H       0.90923                 0.90923    0.09077

 Total charge composition, AO contributions:

   CEN ATOM SHL      SPHERICAL COMPONENTS
     1   O  1s       1.99763
     1   O  2s       1.62733
     1   O  2p       1.26360    1.38926    1.88335

     2   C  1s       1.99351
     2   C  2s       0.98398
     2   C  2p       0.92978    1.16961    1.14743

     3   H  1s       0.88239

     4   H  1s       0.91074

     5   C  1s       1.99394
     5   C  2s       0.94877
     5   C  2p       1.03610    0.92215    1.09673

     6   H  1s       0.91209

     7   C  1s       1.99304
     7   C  2s       0.97312
     7   C  2p       1.14751    1.12194    1.10920

     8   C  1s       1.99297
     8   C  2s       0.97165
     8   C  2p       1.05626    1.15445    1.15940

     9   H  1s       0.88746

    10   H  1s       0.88254

    11   H  1s       0.88627

    12   H  1s       0.88653

    13   H  1s       0.88857

    14   H  1s       0.89149

    15   H  1s       0.90923

 Summary of localized orbital composition:   [THRPRINT= 0.020]

   ORB  GRP  ORB.ENERGY      CENTERS/CHARGES
     1   1   -18.592576      O  1   2.000
     2   1    -9.849483      C  5   2.000
     3   1    -9.834809      C  2   2.000
     4   1    -9.793273      C  8   2.000
     5   1    -9.791096      C  7   2.000
     6   1    -0.631136      O  1   1.128   C  2   0.863
     7   1    -0.608790      O  1   1.134   C  5   0.848
     8   1    -0.498886      C  5   0.999   C  8   0.986
     9   1    -0.494242      C  7   0.999   C  5   0.992
    10   1    -0.452652      O  1   1.973   (other: 0.027)
    11   1    -0.449639      C  2   1.119   H  3   0.873
    12   1    -0.449015      C  2   1.105   H  4   0.893
    13   1    -0.448209      C  2   1.105   H 15   0.893
    14   1    -0.444690      C  5   1.096   H  6   0.891
    15   1    -0.434613      C  7   1.106   H 14   0.885
    16   1    -0.434269      C  8   1.109   H  9   0.881
    17   1    -0.433356      C  7   1.110   H 12   0.880
    18   1    -0.429973      C  8   1.115   H 10   0.876
    19   1    -0.429621      C  7   1.109   H 13   0.883
    20   1    -0.428829      C  8   1.111   H 11   0.880
    21   1    -0.123486      O  1   1.918   (other: 0.082)

 Localized orbitals saved to record      2200.2  (orbital set 4)


 **********************************************************************************************************************************
 DATASETS  * FILE   NREC   LENGTH (MB)   RECORD NAMES
              1      20       32.79       500      610      700      900      950      970     1000      129      960     1100   
                                          VAR    BASINP    GEOM    SYMINP    ZMAT    AOBASIS   BASIS     P2S    ABASIS      S 
                                         1400     1410     1200     1210     1080     1600     1650     1300     1700     1800   
                                           T        V       H0       H01     AOSYM     SMH    MOLCAS    ERIS     OPER     GRID   

              2       5        3.06       700     1000      520     1800     2200   
                                         GEOM     BASIS   MCVARS    GRID      UKS  

 PROGRAMS   *        TOTAL      IBBA       UKS       INT
 CPU TIMES  *        16.24      0.04     15.59      0.46
 REAL TIME  *        17.62 SEC
 DISK USED  *        36.55 MB      
 **********************************************************************************************************************************
 Molecular orbitals read from record     2200.2  Type=UKS/LOCAL(IBO)  
 Occupation numbers read from record     2200.2  Type=UKS/LOCAL(IBO)  
 Orbital energies read from record       2200.2  Type=UKS/LOCAL(IBO)  
 Redundancy group numbers read from rec  2200.2  Type=UKS/BETA (state 1.1)

 IBBA/STO-3G energy=      0.000000000000

        UKS-SCF 
   -222.65165082
 **********************************************************************************************************************************
 Molpro calculation terminated
