
 Primary working directories    : /tmp/sb13343
 Secondary working directories  : /tmp/sb13343
 Wavefunction directory         : /panfs/panasas01/chem/sb13343/wfu/
 Main file repository           : /tmp/sb13343/

 SHA1      : b4a5b34a9e711420743f49e6833241d17c61fb3c
 NAME      : 2099.9.b4a5b34
 ARCHNAME  : linux/x86_64_openmp
 FC        : /cm/shared/languages/GCC-6.1/bin/gfortran
 BLASLIB   : -lblas
 id        : simonbennie

 Nodes     nprocs
 node32-012    1

 Using customized tuning parameters: mindgm=1; mindgv=20; mindgc=4; mindgr=1; noblas=0; minvec=7
 default implementation of scratch files=df  

 memory,500,m
 geomtyp=xyz
 nosym
 noorient
 geometry={
 O          0.25818        0.93788        0.04074
 C          1.63656        1.04230        0.32330
 H          1.89907        2.10041        0.23555
 H          2.26234        0.47024       -0.37847
 C         -0.29581       -0.36510        0.22961
 H          0.07373       -0.77023        1.18842
 C          0.09996       -1.32219       -0.89979
 C         -1.80707       -0.17660        0.31883
 H         -2.30941       -1.13436        0.49338
 H         -2.05917        0.50650        1.13581
 H         -2.19015        0.25071       -0.61475
 H         -0.34617       -2.31074       -0.74107
 H         -0.25158       -0.93408       -1.86253
 H          1.18531       -1.45552       -0.96063
 H          1.86878        0.70360        1.34661
 }
 basis={ default,sto-3g }
 {ks,LYP88,direct;wf,42,1,0}
 {ibba,bonds=1}

 Variables initialized (895), CPU time= 0.01 sec
 Commands  initialized (725), CPU time= 0.01 sec, 591 directives.
 Default parameters read. Elapsed time= 0.09 sec

 Checking input...
 Passed
1


                                         ***  PROGRAM SYSTEM MOLPRO  ***
                                       Copyright, TTI GmbH Stuttgart, 2015
                                    Version 2099.9 linked May 26 2017 16:03:21


 **********************************************************************************************************************************
 LABEL *                                                                                 
  64 bit serial version                                                                  DATE: 07-Jun-17          TIME: 21:41:52  
 **********************************************************************************************************************************

 SHA1:             b4a5b34a9e711420743f49e6833241d17c61fb3c
 **********************************************************************************************************************************
 SETTING GEOMTYP        =    XYZ

 Variable memory set to  500000000 words,  buffer space 

 ZSYMEL=NOSYM

 SETTING BASIS          =    STO-3G


 Recomputing integrals since basis changed


 Using spherical harmonics

 Library entry O      S STO-3G               selected for orbital group  1
 Library entry O      P STO-3G               selected for orbital group  1
 Library entry C      S STO-3G               selected for orbital group  2
 Library entry C      P STO-3G               selected for orbital group  2
 Library entry H      S STO-3G               selected for orbital group  3


 PROGRAM * SEWARD (Integral evaluation for generally contracted gaussian basis sets)     Author: Roland Lindh, 1990

 Geometry written to block  1 of record 700


 Point group  C1  



 ATOMIC COORDINATES

 NR  ATOM    CHARGE       X              Y              Z

   1  O       8.00    0.487889491    1.772336338    0.076987442
   2  C       6.00    3.092650186    1.969661540    0.610948456
   3  H       1.00    3.588722191    3.969199649    0.445124989
   4  H       1.00    4.275203001    0.888624813   -0.715204646
   5  C       6.00   -0.558999885   -0.689939008    0.433900015
   6  H       1.00    0.139329507   -1.455523753    2.245788321
   7  C       6.00    0.188897023   -2.498576985   -1.700356670
   8  C       6.00   -3.414867388   -0.333725634    0.602501380
   9  H       1.00   -4.364152409   -2.143629727    0.932353075
  10  H       1.00   -3.891267344    0.957146282    2.146369830
  11  H       1.00   -4.138783672    0.473773237   -1.161709135
  12  H       1.00   -0.654166493   -4.366665745   -1.400419339
  13  H       1.00   -0.475417298   -1.765155378   -3.519671599
  14  H       1.00    2.239911273   -2.750534169   -1.815327607
  15  H       1.00    3.531482387    1.329611301    2.544724097

 Bond lengths in Bohr (Angstrom)

  1- 2  2.666238902   1- 5  2.699289504   2- 3  2.066818209   2- 4  2.079844613   2-15  2.083680934
       ( 1.410912866)       ( 1.428402491)       ( 1.093713095)       ( 1.100606371)       ( 1.102636465)

  5- 6  2.087276497   5- 7  2.895785336   5- 8  2.882931422   7-12  2.071345966   7-13  2.071020903
       ( 1.104539155)       ( 1.532383608)       ( 1.525581609)       ( 1.096109081)       ( 1.095937065)

  7-14  2.069628032   8- 9  2.070192508   8-10  2.068051501   8-11  2.070880961
       ( 1.095199989)       ( 1.095498697)       ( 1.094365725)       ( 1.095863011)

 Bond angles

  1- 2- 3  106.85884507   1- 2- 4  112.91125973   1- 2-15  111.64621834   1- 5- 6  108.63888518

  1-5-7  111.84608248   1-5-8  106.21369660   2-1-5  114.82992588   3-2-4  108.37425913

  3- 2-15  108.72850466   4- 2-15  108.20064699   5- 7-12  110.57572754   5- 7-13  110.08520206

  5- 7-14  111.89623115   5- 8- 9  110.82645738   5- 8-10  110.42517473   5- 8-11  110.16013005

  6- 5- 7  108.92239636   6- 5- 8  109.02480146   7- 5- 8  112.09364518   9- 8-10  108.73162751

  9- 8-11  108.44218100  10- 8-11  108.18344616  12- 7-13  108.42317703  12- 7-14  107.55382926

 13- 7-14  108.19151953

 NUCLEAR CHARGE:                   42
 NUMBER OF PRIMITIVE AOS:         105
 NUMBER OF SYMMETRY AOS:          105
 NUMBER OF CONTRACTIONS:           35   (  35A   )
 NUMBER OF CORE ORBITALS:           5   (   5A   )
 NUMBER OF VALENCE ORBITALS:       30   (  30A   )


 NUCLEAR REPULSION ENERGY  195.74983609


 Eigenvalues of metric

         1 0.208E+00 0.227E+00 0.234E+00 0.281E+00 0.352E+00 0.360E+00 0.363E+00 0.368E+00


 Contracted 2-electron integrals neglected if value below      1.0D-11
 AO integral compression algorithm  1   Integral accuracy      1.0D-11

     1.573 MB (compressed) written to integral file ( 89.1%)


 NUMBER OF SORTED TWO-ELECTRON INTEGRALS:     198765.     BUFFER LENGTH:  32768
 NUMBER OF SEGMENTS:   1  SEGMENT LENGTH:     198765      RECORD LENGTH: 524288

 Memory used in sort:       0.76 MW

 SORT1 READ      224802. AND WROTE      193897. INTEGRALS IN      1 RECORDS. CPU TIME:     0.01 SEC, REAL TIME:     0.01 SEC
 SORT2 READ      193897. AND WROTE      198765. INTEGRALS IN      6 RECORDS. CPU TIME:     0.02 SEC, REAL TIME:     0.03 SEC

 FILE SIZES:   FILE 1:    31.8 MBYTE,  FILE 4:     4.2 MBYTE,   TOTAL:     36.0 MBYTE

 OPERATOR DM      FOR CENTER  0  COORDINATES:    0.000000    0.000000    0.000000


 **********************************************************************************************************************************
 DATASETS  * FILE   NREC   LENGTH (MB)   RECORD NAMES
              1      19       31.10       500      610      700      900      950      970     1000      129      960     1100   
                                          VAR    BASINP    GEOM    SYMINP    ZMAT    AOBASIS   BASIS     P2S    ABASIS      S 
                                         1400     1410     1200     1210     1080     1600     1650     1300     1700   
                                           T        V       H0       H01     AOSYM     SMH    MOLCAS    ERIS     OPER   

 PROGRAMS   *        TOTAL       INT
 CPU TIMES  *         0.62      0.48
 REAL TIME  *         1.00 SEC
 DISK USED  *        36.55 MB      
 **********************************************************************************************************************************

 Density functional group LYP88=LYP
 Functional: LYP(Automatically generated (new) LYP)                            Gradient terms: 1
 Use grid at  1800.2

 Functional: LYP                       Factor:  1.0000

 Generated new metagrid on record  1800.2 with target accuracy 1.0D-06 and 52852 points in CPU time    1.4
 Computed new grid on record 1800.1 in CPU time    1.5
   32369 words reserved for DFT integration

 PROGRAM * RKS-SCF (Restricted closed shell Kohn-Sham)     Authors: W. Meyer, H.-J. Werner, P.J. Knowles, 1993

 NUMBER OF ELECTRONS:      21+   21-    SPACE SYMMETRY=1    SPIN SYMMETRY: Singlet 
 CONVERGENCE THRESHOLDS:    1.00E-05 (Density)    1.00E-06 (Energy)
 MAX. NUMBER OF ITERATIONS:       60
 INTERPOLATION TYPE:            DIIS
 INTERPOLATION STEPS:              2 (START)      1 (STEP)
 LEVEL SHIFTS:                  0.00 (CLOSED)  0.00 (OPEN) 



 Use fine grid record 1800.2 for energy threshold  1.0D-06
 Orbital guess generated from atomic densities. Full valence occupancy:   21

 Molecular orbital dump at record        2100.2

 Initial occupancy:  21

 ITERATION    DDIFF          GRAD             ENERGY        2-EL.EN.            DIPOLE MOMENTS         DIIS   ORB.
    1      0.000D+00      0.000D+00      -198.10817769    615.108371    0.05768    0.06032    0.01459    0    start
    2      0.000D+00      0.153D-01      -198.06537091    601.719316   -0.38517   -0.03694   -0.08594    1    diag
    3      0.529D-01      0.193D-01      -198.18839745    608.841194   -0.11078    0.06125    0.00036    2    diag
    4      0.295D-01      0.132D-02      -198.18876049    609.184933   -0.08850   -0.00438    0.00125    3    diag
    5      0.333D-02      0.894D-03      -198.18901297    608.955839   -0.11492    0.03852   -0.01319    4    diag
    6      0.143D-02      0.163D-03      -198.18902103    608.972064   -0.10889    0.03142   -0.00783    5    diag
    7      0.293D-03      0.515D-04      -198.18902180    608.971197   -0.10913    0.03089   -0.00761    6    diag
    8      0.783D-04      0.744D-05      -198.18902182    608.970511   -0.10933    0.03129   -0.00802    7    diag
    9      0.150D-04      0.100D-05      -198.18902182    608.970391   -0.10931    0.03129   -0.00797    8    diag
   10      0.194D-05      0.400D-06      -198.18902182    608.970403   -0.10932    0.03128   -0.00797    0    orth

 Final occupancy:  21

 !RKS STATE 1.1 Energy               -198.189021820088
 Nuclear energy                       195.74983609
 One-electron energy                 -697.06813439
 Two-electron energy                  304.48520173
 Density functional                    -1.35592526     LYP=-1.35592526
 Virial quotient                       -0.88959564
 !RKS STATE 1.1 Dipole moment          -0.10932211     0.03128263    -0.00796883
 Dipole moment /Debye                  -0.27785090     0.07950731    -0.02025341

 Orbital energies:

         1.1          2.1          3.1          4.1          5.1          6.1          7.1          8.1          9.1         10.1
    -15.809319    -7.705483    -7.701733    -7.693198    -7.683837    -0.330610    -0.166361    -0.095313    -0.057791     0.017221

        11.1         12.1         13.1         14.1         15.1         16.1         17.1         18.1         19.1         20.1
      0.075222     0.091423     0.115146     0.135791     0.160663     0.167924     0.197478     0.216057     0.234259     0.425066

        21.1         22.1         23.1
      0.491266     0.767036     0.817134

 HOMO     21.1     0.491266 =      13.3680eV
 LUMO     22.1     0.767036 =      20.8721eV
 LUMO-HOMO         0.275770 =       7.5041eV


 **********************************************************************************************************************************
 DATASETS  * FILE   NREC   LENGTH (MB)   RECORD NAMES
              1      20       32.79       500      610      700      900      950      970     1000      129      960     1100   
                                          VAR    BASINP    GEOM    SYMINP    ZMAT    AOBASIS   BASIS     P2S    ABASIS      S 
                                         1400     1410     1200     1210     1080     1600     1650     1300     1700     1800   
                                           T        V       H0       H01     AOSYM     SMH    MOLCAS    ERIS     OPER     GRID   

              2       5        3.02       700     1000      520     1800     2100   
                                         GEOM     BASIS   MCVARS    GRID      RKS  

 PROGRAMS   *        TOTAL        KS       INT
 CPU TIMES  *         4.71      4.09      0.48
 REAL TIME  *         5.51 SEC
 DISK USED  *        36.55 MB      
 **********************************************************************************************************************************


 PROGRAM * Intrinsic Basis Bonding Analysis (IBBA)          Author: G. Knizia

 Molecular orbitals read from record     2100.2  Type=RKS/CANONICAL (state 1.1)
 Fock matrix read from record            2100.2  Type=RKS/TOTAL (state 1.1)
 Orbital energies read from record       2100.2  Type=RKS/CANONICAL (state 1.1)
 Density matrix read from record         2100.2  Type=RKS/CHARGE (state 1.1)

 Number of core orbitals:           5 (   5 )
 Number of closed-shell orbitals:  16 (  16 )

 Basis set MINAO-AUTO-PP generated.      Number of basis functions:   35 

 Polarized AO type:                A = (O Ot + (1-O)(1-Ot)) P12
 Orthogonalization method:         Symmetric (Loewdin)
 Localization functional:          L = sum[A,i] <i|n_A|i>^4 -> max

 Localization group 1:  21 orbitals, occupancy  2.000
 Iterative localization: IB/PM,    7 iter; Final gradient 0.45E-08

 Bond order analysis:       [THRPRINT= 0.020]

   CEN ATOM   CEN ATOM     WIBERG.BO      RENORM.BO
     1   O  -   2   C       1.101589       1.050047
     1   O  -   5   C       1.048650       1.003230
     1   O  -   4   H       0.056776       0.032139
     1   O  -  15   H       0.053303       0.030354
     1   O  -   7   C       0.045386       0.024400
     1   O  -   6   H       0.041318       0.023690
     1   O  -   8   C       0.021035       0.012334

     2   C  -   1   O       1.101589       1.050047
     2   C  -   3   H       0.953503       0.951786
     2   C  -  15   H       0.933306       0.897517
     2   C  -   4   H       0.931544       0.894012

     3   H  -   2   C       0.953503       0.951786

     4   H  -   2   C       0.931544       0.894012
     4   H  -   1   O       0.056776       0.032139

     5   C  -   1   O       1.048650       1.003230
     5   C  -   8   C       0.988529       0.983664
     5   C  -   7   C       0.975948       0.946378
     5   C  -   6   H       0.913908       0.887468

     6   H  -   5   C       0.913908       0.887468
     6   H  -   1   O       0.041318       0.023690

     7   C  -   5   C       0.975948       0.946378
     7   C  -  13   H       0.967985       0.981314
     7   C  -  12   H       0.967372       0.984181
     7   C  -  14   H       0.965333       0.979259
     7   C  -   1   O       0.045386       0.024400

     8   C  -   5   C       0.988529       0.983664
     8   C  -   9   H       0.968708       0.985558
     8   C  -  10   H       0.968684       0.983900
     8   C  -  11   H       0.967464       0.981684
     8   C  -   1   O       0.021035       0.012334

     9   H  -   8   C       0.968708       0.985558

    10   H  -   8   C       0.968684       0.983900

    11   H  -   8   C       0.967464       0.981684

    12   H  -   7   C       0.967372       0.984181

    13   H  -   7   C       0.967985       0.981314

    14   H  -   7   C       0.965333       0.979259

    15   H  -   2   C       0.933306       0.897517
    15   H  -   1   O       0.053303       0.030354


 Valency analysis:

   CEN ATOM   TOT.VALENCE
     1   O       2.424834
     2   C       3.945623
     3   H       0.996690
     4   H       0.999401
     5   C       3.968244
     6   H       0.999211
     7   C       3.947560
     8   C       3.948864
     9   H       0.995336
    10   H       0.995384
    11   H       0.995818
    12   H       0.995503
    13   H       0.996314
    14   H       0.996151
    15   H       0.999278

 Total charge composition:

   CEN ATOM         s          p       ELECTRONS ->P.CHARGE
     1   O       3.55319    4.34797      7.90116    0.09884
     2   C       2.90806    3.26406      6.17211   -0.17211
     3   H       0.94246                 0.94246    0.05754
     4   H       0.97553                 0.97553    0.02447
     5   C       2.88698    3.12850      6.01549   -0.01549
     6   H       0.97191                 0.97191    0.02809
     7   C       2.88512    3.34047      6.22559   -0.22559
     8   C       2.88496    3.32837      6.21334   -0.21334
     9   H       0.93171                 0.93171    0.06829
    10   H       0.93206                 0.93206    0.06794
    11   H       0.93533                 0.93533    0.06467
    12   H       0.93294                 0.93294    0.06706
    13   H       0.93928                 0.93928    0.06072
    14   H       0.93796                 0.93796    0.06204
    15   H       0.97312                 0.97312    0.02688

 Total charge composition, AO contributions:

   CEN ATOM SHL      SPHERICAL COMPONENTS
     1   O  1s       1.99893
     1   O  2s       1.55426
     1   O  2p       1.21475    1.33773    1.79548

     2   C  1s       1.99830
     2   C  2s       0.90975
     2   C  2p       0.97892    1.14412    1.14102

     3   H  1s       0.94246

     4   H  1s       0.97553

     5   C  1s       1.99841
     5   C  2s       0.88857
     5   C  2p       1.05500    0.97300    1.10051

     6   H  1s       0.97191

     7   C  1s       1.99822
     7   C  2s       0.88690
     7   C  2p       1.12331    1.11235    1.10482

     8   C  1s       1.99818
     8   C  2s       0.88678
     8   C  2p       1.07618    1.12692    1.12527

     9   H  1s       0.93171

    10   H  1s       0.93206

    11   H  1s       0.93533

    12   H  1s       0.93294

    13   H  1s       0.93928

    14   H  1s       0.93796

    15   H  1s       0.97312

 Summary of localized orbital composition:   [THRPRINT= 0.020]

   ORB  GRP  ORB.ENERGY      CENTERS/CHARGES
     1   1   -15.711887      O  1   2.000
     2   1    -7.626823      C  5   2.000
     3   1    -7.622034      C  2   2.000
     4   1    -7.610422      C  8   2.000
     5   1    -7.601503      C  7   2.000
     6   1    -0.083110      O  1   1.062   C  2   0.925
     7   1    -0.065645      O  1   1.060   C  5   0.914   (other: 0.026)
     8   1     0.023472      C  8   0.995   C  5   0.984   (other: 0.020)
     9   1     0.032456      C  7   1.007   C  5   0.980
    10   1     0.056497      C  2   1.067   H  3   0.924
    11   1     0.061816      C  8   1.062   H 11   0.927
    12   1     0.062171      C  8   1.066   H 10   0.923
    13   1     0.062634      C  8   1.066   H  9   0.923
    14   1     0.064356      C  2   1.056   H  4   0.941
    15   1     0.064938      C  5   1.044   H  6   0.936
    16   1     0.065266      C  2   1.056   H 15   0.940
    17   1     0.065561      C  7   1.061   H 14   0.927
    18   1     0.065899      C  7   1.058   H 13   0.930
    19   1     0.068172      C  7   1.064   H 12   0.924
    20   1     0.255927      O  1   1.942   (other: 0.058)
    21   1     0.456133      O  1   1.824   C  2   0.043   C  5   0.038   H  4   0.028   H 15   0.024   C  7   0.022   (other: 0.021)

 Localized orbitals saved to record      2100.2  (orbital set 2)


 **********************************************************************************************************************************
 DATASETS  * FILE   NREC   LENGTH (MB)   RECORD NAMES
              1      20       32.79       500      610      700      900      950      970     1000      129      960     1100   
                                          VAR    BASINP    GEOM    SYMINP    ZMAT    AOBASIS   BASIS     P2S    ABASIS      S 
                                         1400     1410     1200     1210     1080     1600     1650     1300     1700     1800   
                                           T        V       H0       H01     AOSYM     SMH    MOLCAS    ERIS     OPER     GRID   

              2       5        3.03       700     1000      520     1800     2100   
                                         GEOM     BASIS   MCVARS    GRID      RKS  

 PROGRAMS   *        TOTAL      IBBA        KS       INT
 CPU TIMES  *         4.75      0.04      4.09      0.48
 REAL TIME  *         5.65 SEC
 DISK USED  *        36.55 MB      
 **********************************************************************************************************************************
 Molecular orbitals read from record     2100.2  Type=RKS/LOCAL(IBO)  
 Occupation numbers read from record     2100.2  Type=RKS/LOCAL(IBO)  
 Orbital energies read from record       2100.2  Type=RKS/LOCAL(IBO)  
 Redundancy group numbers read from rec  2100.2  Type=RKS/LOCAL(IBO)  

 IBBA/STO-3G energy=      0.000000000000

        KS-SCF  
   -198.18902182
 **********************************************************************************************************************************
 Molpro calculation terminated
