
 Primary working directories    : /tmp/sb13343
 Secondary working directories  : /tmp/sb13343
 Wavefunction directory         : /panfs/panasas01/chem/sb13343/wfu/
 Main file repository           : /tmp/sb13343/

 SHA1      : b4a5b34a9e711420743f49e6833241d17c61fb3c
 NAME      : 2099.9.b4a5b34
 ARCHNAME  : linux/x86_64_openmp
 FC        : /cm/shared/languages/GCC-6.1/bin/gfortran
 BLASLIB   : -lblas
 id        : simonbennie

 Nodes     nprocs
 node32-012    1

 Using customized tuning parameters: mindgm=1; mindgv=20; mindgc=4; mindgr=1; noblas=0; minvec=7
 default implementation of scratch files=df  

 memory,500,m
 geomtyp=xyz
 nosym
 noorient
 geometry={
 O          0.25818        0.93788        0.04074
 C          1.63656        1.04230        0.32330
 H          1.89907        2.10041        0.23555
 H          2.26234        0.47024       -0.37847
 C         -0.29581       -0.36510        0.22961
 H          0.07373       -0.77023        1.18842
 C          0.09996       -1.32219       -0.89979
 C         -1.80707       -0.17660        0.31883
 H         -2.30941       -1.13436        0.49338
 H         -2.05917        0.50650        1.13581
 H         -2.19015        0.25071       -0.61475
 H         -0.34617       -2.31074       -0.74107
 H         -0.25158       -0.93408       -1.86253
 H          1.18531       -1.45552       -0.96063
 H          1.86878        0.70360        1.34661
 }
 basis={ default,svp }
 {uks,B97,direct;wf,42,1,0}
 {ibba,bonds=1}

 Variables initialized (895), CPU time= 0.00 sec
 Commands  initialized (725), CPU time= 0.02 sec, 591 directives.
 Default parameters read. Elapsed time= 0.08 sec

 Checking input...
 Passed
1


                                         ***  PROGRAM SYSTEM MOLPRO  ***
                                       Copyright, TTI GmbH Stuttgart, 2015
                                    Version 2099.9 linked May 26 2017 16:03:21


 **********************************************************************************************************************************
 LABEL *                                                                                 
  64 bit serial version                                                                  DATE: 07-Jun-17          TIME: 21:56:18  
 **********************************************************************************************************************************

 SHA1:             b4a5b34a9e711420743f49e6833241d17c61fb3c
 **********************************************************************************************************************************
 SETTING GEOMTYP        =    XYZ

 Variable memory set to  500000000 words,  buffer space 

 ZSYMEL=NOSYM

 SETTING BASIS          =    SVP


 Recomputing integrals since basis changed


 Using spherical harmonics

 Library entry O      S def2-SVP             selected for orbital group  1
 Library entry O      P def2-SVP             selected for orbital group  1
 Library entry O      D def2-SVP             selected for orbital group  1
 Library entry C      S def2-SVP             selected for orbital group  2
 Library entry C      P def2-SVP             selected for orbital group  2
 Library entry C      D def2-SVP             selected for orbital group  2
 Library entry H      S def2-SVP             selected for orbital group  3
 Library entry H      P def2-SVP             selected for orbital group  3


 PROGRAM * SEWARD (Integral evaluation for generally contracted gaussian basis sets)     Author: Roland Lindh, 1990

 Geometry written to block  1 of record 700


 Point group  C1  



 ATOMIC COORDINATES

 NR  ATOM    CHARGE       X              Y              Z

   1  O       8.00    0.487889491    1.772336338    0.076987442
   2  C       6.00    3.092650186    1.969661540    0.610948456
   3  H       1.00    3.588722191    3.969199649    0.445124989
   4  H       1.00    4.275203001    0.888624813   -0.715204646
   5  C       6.00   -0.558999885   -0.689939008    0.433900015
   6  H       1.00    0.139329507   -1.455523753    2.245788321
   7  C       6.00    0.188897023   -2.498576985   -1.700356670
   8  C       6.00   -3.414867388   -0.333725634    0.602501380
   9  H       1.00   -4.364152409   -2.143629727    0.932353075
  10  H       1.00   -3.891267344    0.957146282    2.146369830
  11  H       1.00   -4.138783672    0.473773237   -1.161709135
  12  H       1.00   -0.654166493   -4.366665745   -1.400419339
  13  H       1.00   -0.475417298   -1.765155378   -3.519671599
  14  H       1.00    2.239911273   -2.750534169   -1.815327607
  15  H       1.00    3.531482387    1.329611301    2.544724097

 Bond lengths in Bohr (Angstrom)

  1- 2  2.666238902   1- 5  2.699289504   2- 3  2.066818209   2- 4  2.079844613   2-15  2.083680934
       ( 1.410912866)       ( 1.428402491)       ( 1.093713095)       ( 1.100606371)       ( 1.102636465)

  5- 6  2.087276497   5- 7  2.895785336   5- 8  2.882931422   7-12  2.071345966   7-13  2.071020903
       ( 1.104539155)       ( 1.532383608)       ( 1.525581609)       ( 1.096109081)       ( 1.095937065)

  7-14  2.069628032   8- 9  2.070192508   8-10  2.068051501   8-11  2.070880961
       ( 1.095199989)       ( 1.095498697)       ( 1.094365725)       ( 1.095863011)

 Bond angles

  1- 2- 3  106.85884507   1- 2- 4  112.91125973   1- 2-15  111.64621834   1- 5- 6  108.63888518

  1-5-7  111.84608248   1-5-8  106.21369660   2-1-5  114.82992588   3-2-4  108.37425913

  3- 2-15  108.72850466   4- 2-15  108.20064699   5- 7-12  110.57572754   5- 7-13  110.08520206

  5- 7-14  111.89623115   5- 8- 9  110.82645738   5- 8-10  110.42517473   5- 8-11  110.16013005

  6- 5- 7  108.92239636   6- 5- 8  109.02480146   7- 5- 8  112.09364518   9- 8-10  108.73162751

  9- 8-11  108.44218100  10- 8-11  108.18344616  12- 7-13  108.42317703  12- 7-14  107.55382926

 13- 7-14  108.19151953

 NUCLEAR CHARGE:                   42
 NUMBER OF PRIMITIVE AOS:         195
 NUMBER OF SYMMETRY AOS:          190
 NUMBER OF CONTRACTIONS:          120   ( 120A   )
 NUMBER OF CORE ORBITALS:           5   (   5A   )
 NUMBER OF VALENCE ORBITALS:       30   (  30A   )


 NUCLEAR REPULSION ENERGY  195.74983609


 Eigenvalues of metric

         1 0.241E-02 0.514E-02 0.104E-01 0.150E-01 0.214E-01 0.243E-01 0.289E-01 0.305E-01


 Contracted 2-electron integrals neglected if value below      1.0D-11
 AO integral compression algorithm  1   Integral accuracy      1.0D-11

     97.518 MB (compressed) written to integral file ( 44.4%)


 NUMBER OF SORTED TWO-ELECTRON INTEGRALS:   26357430.     BUFFER LENGTH:  32768
 NUMBER OF SEGMENTS:   2  SEGMENT LENGTH:   15997996      RECORD LENGTH: 524288

 Memory used in sort:      16.56 MW

 SORT1 READ    27501115. AND WROTE    22923365. INTEGRALS IN     67 RECORDS. CPU TIME:     0.34 SEC, REAL TIME:     0.65 SEC
 SORT2 READ    22923365. AND WROTE    26357430. INTEGRALS IN    372 RECORDS. CPU TIME:     0.58 SEC, REAL TIME:     0.71 SEC

 FILE SIZES:   FILE 1:   128.3 MBYTE,  FILE 4:   281.1 MBYTE,   TOTAL:    409.3 MBYTE

 OPERATOR DM      FOR CENTER  0  COORDINATES:    0.000000    0.000000    0.000000


 **********************************************************************************************************************************
 DATASETS  * FILE   NREC   LENGTH (MB)   RECORD NAMES
              1      19      116.03       500      610      700      900      950      970     1000      129      960     1100   
                                          VAR    BASINP    GEOM    SYMINP    ZMAT    AOBASIS   BASIS     P2S    ABASIS      S 
                                         1400     1410     1200     1210     1080     1600     1650     1300     1700   
                                           T        V       H0       H01     AOSYM     SMH    MOLCAS    ERIS     OPER   

 PROGRAMS   *        TOTAL       INT
 CPU TIMES  *         3.88      3.74
 REAL TIME  *         4.92 SEC
 DISK USED  *       409.85 MB      
 **********************************************************************************************************************************

 Density functional group B97=B97DF
 Functional: B97DF(Automatically generated (new) B97DF)                        Gradient terms: 1
 Use grid at  1800.2


 Exact exchange will be calculated, factor:  0.1943

 Functional: B97DF                     Factor:  1.0000

 Generated new metagrid on record  1800.2 with target accuracy 1.0D-06 and 52852 points in CPU time    1.3
 Computed new grid on record 1800.1 in CPU time    1.5
   99539 words reserved for DFT integration

 PROGRAM * UKS-SCF (Unrestricted Kohn-Sham)     Authors: W. Meyer, H.-J. Werner, P.J. Knowles, 1993

 NUMBER OF ELECTRONS:      21+   21-    SPACE SYMMETRY=1    SPIN SYMMETRY: Singlet 
 CONVERGENCE THRESHOLDS:    1.00E-05 (Density)    1.00E-06 (Energy)
 MAX. NUMBER OF ITERATIONS:       60
 INTERPOLATION TYPE:            DIIS
 INTERPOLATION STEPS:              2 (START)      1 (STEP)
 LEVEL SHIFTS:                 -0.20 (ALPHA)  -0.20 (BETA) 



 Use fine grid record 1800.2 for energy threshold  1.0D-06
 Orbital guess generated from atomic densities. Full valence occupancy:   21

 Molecular orbital dump at record        2200.2

 Initial alpha occupation  21
 Initial beta  occupation  21

 ITERATION    DDIFF          GRAD             ENERGY        2-EL.EN.            DIPOLE MOMENTS         DIIS
    1      0.000D+00      0.000D+00      -233.25463013    614.923510    0.47413   -0.73057    0.26283    0
    2      0.921D-02      0.432D-02      -233.38666199    599.607532    0.20167   -0.34839    0.08788    1
    3      0.271D-02      0.173D-02      -233.40388509    603.119444    0.27559   -0.42697    0.15424    2
    4      0.837D-03      0.305D-03      -233.40470358    602.821565    0.25749   -0.38853    0.14049    3
    5      0.605D-03      0.147D-03      -233.40499331    602.775260    0.25774   -0.38652    0.13944    4
    6      0.359D-03      0.419D-04      -233.40503763    602.736557    0.25704   -0.38006    0.13782    5
    7      0.709D-04      0.985D-05      -233.40503953    602.732033    0.25672   -0.38043    0.13647    6
    8      0.195D-04      0.449D-05      -233.40503978    602.731545    0.25690   -0.38005    0.13632    7
    9      0.876D-05      0.112D-05      -233.40503981    602.731158    0.25687   -0.38000    0.13629    7
   10      0.249D-05      0.347D-06      -233.40503981    602.731865    0.25688   -0.38001    0.13622    7

 Final alpha occupancy:  21
 Final beta  occupancy:  21

 !UKS STATE 1.1 Energy               -233.405039809616
 Nuclear energy                       195.74983609
 One-electron energy                 -702.90081719
 Two-electron energy                  301.36593238
 Density functional                   -27.61999110     B97DF=-27.61999110
 Virial quotient                       -1.01077787
 !UKS STATE 1.1 Dipole moment           0.25687727    -0.38000731     0.13622216
 Dipole moment /Debye                   0.65287413    -0.96581899     0.34621952

 Orbital energies for positive spin:

         1.1          2.1          3.1          4.1          5.1          6.1          7.1          8.1          9.1         10.1
    -19.106775   -10.218350   -10.210581   -10.161736   -10.158669    -1.013156    -0.770660    -0.682847    -0.661764    -0.567685

        11.1         12.1         13.1         14.1         15.1         16.1         17.1         18.1         19.1         20.1
     -0.490974    -0.458833    -0.450564    -0.419461    -0.391676    -0.383818    -0.373694    -0.348090    -0.340344    -0.301832

        21.1         22.1         23.1
     -0.248357     0.061187     0.090266

 Orbital energies for negative spin:

         1.1          2.1          3.1          4.1          5.1          6.1          7.1          8.1          9.1         10.1
    -19.106775   -10.218350   -10.210581   -10.161736   -10.158669    -1.013156    -0.770660    -0.682847    -0.661764    -0.567685

        11.1         12.1         13.1         14.1         15.1         16.1         17.1         18.1         19.1         20.1
     -0.490974    -0.458833    -0.450564    -0.419461    -0.391676    -0.383818    -0.373694    -0.348090    -0.340344    -0.301832

        21.1         22.1         23.1
     -0.248357     0.061187     0.090266

 HOMO     21.1    -0.248357 =      -6.7582eV
 LUMO     22.1     0.061187 =       1.6650eV
 LUMO-HOMO         0.309544 =       8.4231eV

 EXPECTATION VALUE OF S**2:             0.00000000

 Natural orbitals saved to record    2200.2 (Orbital set 3)

 Orbital spaces for UNO-CAS (Min. occupation: 0.020  Max. occupation: 1.980):

 Closed:       21
 Active:        0


 **********************************************************************************************************************************
 DATASETS  * FILE   NREC   LENGTH (MB)   RECORD NAMES
              1      20      117.72       500      610      700      900      950      970     1000      129      960     1100   
                                          VAR    BASINP    GEOM    SYMINP    ZMAT    AOBASIS   BASIS     P2S    ABASIS      S 
                                         1400     1410     1200     1210     1080     1600     1650     1300     1700     1800   
                                           T        V       H0       H01     AOSYM     SMH    MOLCAS    ERIS     OPER     GRID   

              2       5        3.59       700     1000      520     1800     2200   
                                         GEOM     BASIS   MCVARS    GRID      UKS  

 PROGRAMS   *        TOTAL       UKS       INT
 CPU TIMES  *        26.85     22.97      3.74
 REAL TIME  *        28.39 SEC
 DISK USED  *       409.85 MB      
 **********************************************************************************************************************************


 PROGRAM * Intrinsic Basis Bonding Analysis (IBBA)          Author: G. Knizia

 Molecular orbitals read from record     2200.2  Type=UKS/ALPHA (state 1.1)
 Fock matrix read from record            2200.2  Type=UKS/TOTAL (state 1.1)
 Orbital energies read from record       2200.2  Type=UKS/ALPHA (state 1.1)
 Density matrix read from record         2200.2  Type=UKS/CHARGE (state 1.1)

 Number of core orbitals:           5 (   5 )
 Number of closed-shell orbitals:  16 (  16 )

 Basis set MINAO-AUTO-PP generated.      Number of basis functions:   35 

 Polarized AO type:                A = (O Ot + (1-O)(1-Ot)) P12
 Orthogonalization method:         Symmetric (Loewdin)
 Localization functional:          L = sum[A,i] <i|n_A|i>^4 -> max

 Localization group 1:  21 orbitals, occupancy  2.000
 Iterative localization: IB/PM,    7 iter; Final gradient 0.29E-08

 Bond order analysis:       [THRPRINT= 0.020]

   CEN ATOM   CEN ATOM     WIBERG.BO      RENORM.BO
     1   O  -   2   C       0.988784       1.018279
     1   O  -   5   C       0.946371       0.962879
     1   O  -   4   H       0.033806       0.019916
     1   O  -  15   H       0.032354       0.019216
     1   O  -   7   C       0.030113       0.015678
     1   O  -   6   H       0.025208       0.015036

     2   C  -   1   O       0.988784       1.018279
     2   C  -   3   H       0.958678       0.977705
     2   C  -  15   H       0.950635       0.938221
     2   C  -   4   H       0.950547       0.937382

     3   H  -   2   C       0.958678       0.977705

     4   H  -   2   C       0.950547       0.937382
     4   H  -   1   O       0.033806       0.019916

     5   C  -   8   C       1.012945       1.005823
     5   C  -   7   C       1.005073       0.980399
     5   C  -   1   O       0.946371       0.962879
     5   C  -   6   H       0.926963       0.918423

     6   H  -   5   C       0.926963       0.918423
     6   H  -   1   O       0.025208       0.015036

     7   C  -   5   C       1.005073       0.980399
     7   C  -  14   H       0.963489       0.983778
     7   C  -  12   H       0.961503       0.986263
     7   C  -  13   H       0.960439       0.979438
     7   C  -   1   O       0.030113       0.015678

     8   C  -   5   C       1.012945       1.005823
     8   C  -   9   H       0.963997       0.987421
     8   C  -  10   H       0.961048       0.983984
     8   C  -  11   H       0.959821       0.979596

     9   H  -   8   C       0.963997       0.987421

    10   H  -   8   C       0.961048       0.983984

    11   H  -   8   C       0.959821       0.979596

    12   H  -   7   C       0.961503       0.986263

    13   H  -   7   C       0.960439       0.979438

    14   H  -   7   C       0.963489       0.983778

    15   H  -   2   C       0.950635       0.938221
    15   H  -   1   O       0.032354       0.019216


 Valency analysis:

   CEN ATOM   TOT.VALENCE
     1   O       2.109496
     2   C       3.869489
     3   H       0.978855
     4   H       0.988287
     5   C       3.917543
     6   H       0.990229
     7   C       3.942111
     8   C       3.940793
     9   H       0.983517
    10   H       0.980854
    11   H       0.982065
    12   H       0.982575
    13   H       0.982285
    14   H       0.983720
    15   H       0.988348

 Total charge composition:

   CEN ATOM         s          p       ELECTRONS ->P.CHARGE
     1   O       3.59901    4.79608      8.39508   -0.39508
     2   C       3.01605    3.15958      6.17564   -0.17564
     3   H       0.85459                 0.85459    0.14541
     4   H       0.89177                 0.89177    0.10823
     5   C       2.95392    2.92937      5.88329    0.11671
     6   H       0.90115                 0.90115    0.09885
     7   C       3.02563    3.38171      6.40734   -0.40734
     8   C       3.02331    3.36914      6.39245   -0.39245
     9   H       0.87161                 0.87161    0.12839
    10   H       0.86163                 0.86163    0.13837
    11   H       0.86608                 0.86608    0.13392
    12   H       0.86800                 0.86800    0.13200
    13   H       0.86690                 0.86690    0.13310
    14   H       0.87241                 0.87241    0.12759
    15   H       0.89206                 0.89206    0.10794

 Total charge composition, AO contributions:

   CEN ATOM SHL      SPHERICAL COMPONENTS
     1   O  1s       1.99715
     1   O  2s       1.60185
     1   O  2p       1.38871    1.52251    1.88485

     2   C  1s       1.99162
     2   C  2s       1.02444
     2   C  2p       0.83352    1.17880    1.14727

     3   H  1s       0.85459

     4   H  1s       0.89177

     5   C  1s       1.99221
     5   C  2s       0.96171
     5   C  2p       1.00946    0.83379    1.08612

     6   H  1s       0.90115

     7   C  1s       1.99097
     7   C  2s       1.03465
     7   C  2p       1.15289    1.12017    1.10865

     8   C  1s       1.99090
     8   C  2s       1.03241
     8   C  2p       1.04703    1.15556    1.16654

     9   H  1s       0.87161

    10   H  1s       0.86163

    11   H  1s       0.86608

    12   H  1s       0.86800

    13   H  1s       0.86690

    14   H  1s       0.87241

    15   H  1s       0.89206

 Summary of localized orbital composition:   [THRPRINT= 0.020]

   ORB  GRP  ORB.ENERGY      CENTERS/CHARGES
     1   1   -18.962827      O  1   2.000
     2   1   -10.120254      C  5   2.000
     3   1   -10.101282      C  2   2.000
     4   1   -10.047283      C  7   2.000
     5   1   -10.043447      C  8   2.000
     6   1    -0.754841      O  1   1.251   C  2   0.741
     7   1    -0.736693      O  1   1.269   C  5   0.713
     8   1    -0.573089      C  5   0.996   C  8   0.991
     9   1    -0.571547      C  7   1.006   C  5   0.986
    10   1    -0.538596      O  1   1.962   (other: 0.038)
    11   1    -0.515226      C  2   1.127   H  4   0.872
    12   1    -0.514689      C  2   1.126   H 15   0.872
    13   1    -0.513669      C  2   1.146   H  3   0.847
    14   1    -0.510362      C  5   1.104   H  6   0.877
    15   1    -0.497915      C  7   1.125   H 12   0.860
    16   1    -0.495966      C  7   1.124   H 14   0.865
    17   1    -0.495090      C  8   1.121   H  9   0.865
    18   1    -0.491655      C  7   1.130   H 13   0.860
    19   1    -0.488657      C  8   1.130   H 11   0.859
    20   1    -0.488485      C  8   1.135   H 10   0.854
    21   1    -0.298088      O  1   1.909   (other: 0.091)

 Localized orbitals saved to record      2200.2  (orbital set 4)


 **********************************************************************************************************************************
 DATASETS  * FILE   NREC   LENGTH (MB)   RECORD NAMES
              1      20      117.72       500      610      700      900      950      970     1000      129      960     1100   
                                          VAR    BASINP    GEOM    SYMINP    ZMAT    AOBASIS   BASIS     P2S    ABASIS      S 
                                         1400     1410     1200     1210     1080     1600     1650     1300     1700     1800   
                                           T        V       H0       H01     AOSYM     SMH    MOLCAS    ERIS     OPER     GRID   

              2       5        3.71       700     1000      520     1800     2200   
                                         GEOM     BASIS   MCVARS    GRID      UKS  

 PROGRAMS   *        TOTAL      IBBA       UKS       INT
 CPU TIMES  *        26.89      0.04     22.97      3.74
 REAL TIME  *        28.53 SEC
 DISK USED  *       409.85 MB      
 **********************************************************************************************************************************
 Molecular orbitals read from record     2200.2  Type=UKS/LOCAL(IBO)  
 Occupation numbers read from record     2200.2  Type=UKS/LOCAL(IBO)  
 Orbital energies read from record       2200.2  Type=UKS/LOCAL(IBO)  
 Redundancy group numbers read from rec  2200.2  Type=UKS/BETA (state 1.1)

 IBBA/SVP energy=      0.000000000000

        UKS-SCF 
   -233.40503981
 **********************************************************************************************************************************
 Molpro calculation terminated
