
 Primary working directories    : /tmp/sb13343
 Secondary working directories  : /tmp/sb13343
 Wavefunction directory         : /panfs/panasas01/chem/sb13343/wfu/
 Main file repository           : /tmp/sb13343/

 SHA1      : b4a5b34a9e711420743f49e6833241d17c61fb3c
 NAME      : 2099.9.b4a5b34
 ARCHNAME  : linux/x86_64_openmp
 FC        : /cm/shared/languages/GCC-6.1/bin/gfortran
 BLASLIB   : -lblas
 id        : simonbennie

 Nodes     nprocs
 node36-006    1

 Using customized tuning parameters: mindgm=1; mindgv=20; mindgc=4; mindgr=1; noblas=0; minvec=7
 default implementation of scratch files=df  

 memory,500,m
 geomtyp=xyz
 nosym
 noorient
 geometry={
 C          0.00000        0.00000        0.00000
 H          0.00000        0.00000        1.10056
 C          1.46209        0.00000       -0.46855
 C         -0.73105       -1.26621       -0.46855
 C         -0.73105        1.26621       -0.46855
 H          1.52118        0.00000       -1.56505
 H         -0.76059       -1.31738       -1.56505
 H         -0.76059        1.31738       -1.56505
 H          1.99755        0.88622       -0.10723
 H          1.99755       -0.88622       -0.10723
 H         -0.23129       -2.17304       -0.10723
 H         -1.76626       -1.28682       -0.10723
 H         -1.76626        1.28682       -0.10723
 H         -0.23129        2.17304       -0.10723
 }
 basis={ default,svp }
 {uks,M08-HX,direct;wf,34,1,0}
 {ibba,bonds=1}

 Variables initialized (895), CPU time= 0.00 sec
 Commands  initialized (725), CPU time= 0.02 sec, 591 directives.
 Default parameters read. Elapsed time= 4.45 sec

 Checking input...
 Passed
1


                                         ***  PROGRAM SYSTEM MOLPRO  ***
                                       Copyright, TTI GmbH Stuttgart, 2015
                                    Version 2099.9 linked May 26 2017 16:03:21


 **********************************************************************************************************************************
 LABEL *                                                                                 
  64 bit serial version                                                                  DATE: 07-Jun-17          TIME: 20:15:03  
 **********************************************************************************************************************************

 SHA1:             b4a5b34a9e711420743f49e6833241d17c61fb3c
 **********************************************************************************************************************************
 SETTING GEOMTYP        =    XYZ

 Variable memory set to  500000000 words,  buffer space 

 ZSYMEL=NOSYM

 SETTING BASIS          =    SVP


 Recomputing integrals since basis changed


 Using spherical harmonics

 Library entry C      S def2-SVP             selected for orbital group  1
 Library entry C      P def2-SVP             selected for orbital group  1
 Library entry C      D def2-SVP             selected for orbital group  1
 Library entry H      S def2-SVP             selected for orbital group  2
 Library entry H      P def2-SVP             selected for orbital group  2


 PROGRAM * SEWARD (Integral evaluation for generally contracted gaussian basis sets)     Author: Roland Lindh, 1990

 Geometry written to block  1 of record 700


 Point group  C1  



 ATOMIC COORDINATES

 NR  ATOM    CHARGE       X              Y              Z

   1  C       6.00    0.000000000    0.000000000    0.000000000
   2  H       1.00    0.000000000    0.000000000    2.079756984
   3  C       6.00    2.762949669    0.000000000   -0.885431176
   4  C       6.00   -1.381484283   -2.392790116   -0.885431176
   5  C       6.00   -1.381484283    2.392790116   -0.885431176
   6  H       1.00    2.874613586    0.000000000   -2.957515871
   7  H       1.00   -1.437306793   -2.489487402   -2.957515871
   8  H       1.00   -1.437306793    2.489487402   -2.957515871
   9  H       1.00    3.774822420    1.674713086   -0.202635332
  10  H       1.00    3.774822420   -1.674713086   -0.202635332
  11  H       1.00   -0.437074755   -4.106450458   -0.202635332
  12  H       1.00   -3.337747665   -2.431737372   -0.202635332
  13  H       1.00   -3.337747665    2.431737372   -0.202635332
  14  H       1.00   -0.437074755    4.106450458   -0.202635332

 Bond lengths in Bohr (Angstrom)

 1-2  2.079756984  1-3  2.901358172  1-4  2.901367218  1-5  2.901367218  3-6  2.075091279
     ( 1.100560000)     ( 1.535332625)     ( 1.535337412)     ( 1.535337412)     ( 1.098091015)

  3- 9  2.072380406   3-10  2.072380406   4- 7  2.075090722   4-11  2.072378172   4-12  2.072364222
       ( 1.096656483)       ( 1.096656483)       ( 1.098090721)       ( 1.096655301)       ( 1.096647919)

  5- 8  2.075090722   5-13  2.072364222   5-14  2.072378172
       ( 1.098090721)       ( 1.096647919)       ( 1.096655301)

 Bond angles

  1- 3- 6  110.85354902   1- 3- 9  111.37220114   1- 3-10  111.37220114   1- 4- 7  110.85320625

  1- 4-11  111.37204414   1- 4-12  111.37216555   1- 5- 8  110.85320625   1- 5-13  111.37216555

  1- 5-14  111.37204414   2- 1- 3  107.76888332   2- 1- 4  107.76882608   2- 1- 5  107.76882608

  3-1-4  111.11870751   3-1-5  111.11870751   4-1-5  111.11845005   6-3-9  107.62119374

  6- 3-10  107.62119374   7- 4-11  107.62125572   7- 4-12  107.62162102   8- 5-13  107.62162102

  8- 5-14  107.62125572   9- 3-10  107.82352924  11- 4-12  107.82360822  13- 5-14  107.82360822

 NUCLEAR CHARGE:                   34
 NUMBER OF PRIMITIVE AOS:         170
 NUMBER OF SYMMETRY AOS:          166
 NUMBER OF CONTRACTIONS:          106   ( 106A   )
 NUMBER OF CORE ORBITALS:           4   (   4A   )
 NUMBER OF VALENCE ORBITALS:       26   (  26A   )


 NUCLEAR REPULSION ENERGY  134.07051350


 Eigenvalues of metric

         1 0.225E-02 0.614E-02 0.614E-02 0.233E-01 0.256E-01 0.268E-01 0.268E-01 0.277E-01


 Contracted 2-electron integrals neglected if value below      1.0D-11
 AO integral compression algorithm  1   Integral accuracy      1.0D-11

     64.750 MB (compressed) written to integral file ( 46.7%)


 NUMBER OF SORTED TWO-ELECTRON INTEGRALS:   16082956.     BUFFER LENGTH:  32768
 NUMBER OF SEGMENTS:   2  SEGMENT LENGTH:   15997996      RECORD LENGTH: 524288

 Memory used in sort:      16.56 MW

 SORT1 READ    17384690. AND WROTE    14795173. INTEGRALS IN     44 RECORDS. CPU TIME:     0.23 SEC, REAL TIME:     0.47 SEC
 SORT2 READ    14795173. AND WROTE    16082956. INTEGRALS IN    247 RECORDS. CPU TIME:     0.46 SEC, REAL TIME:     0.58 SEC

 FILE SIZES:   FILE 1:    95.4 MBYTE,  FILE 4:   184.6 MBYTE,   TOTAL:    279.9 MBYTE

 OPERATOR DM      FOR CENTER  0  COORDINATES:    0.000000    0.000000    0.000000


 **********************************************************************************************************************************
 DATASETS  * FILE   NREC   LENGTH (MB)   RECORD NAMES
              1      19       87.57       500      610      700      900      950      970     1000      129      960     1100   
                                          VAR    BASINP    GEOM    SYMINP    ZMAT    AOBASIS   BASIS     P2S    ABASIS      S 
                                         1400     1410     1200     1210     1080     1600     1650     1300     1700   
                                           T        V       H0       H01     AOSYM     SMH    MOLCAS    ERIS     OPER   

 PROGRAMS   *        TOTAL       INT
 CPU TIMES  *         2.91      2.76
 REAL TIME  *         8.34 SEC
 DISK USED  *       280.45 MB      
 **********************************************************************************************************************************

 Density functional group M08-HX=XC-M08-HX
 Functional: XC-M08-HX(via MFM 1.6)                                            Gradient terms: 1
 Use grid at  1800.2


 Exact exchange will be calculated, factor:  0.5223

 Functional: XC-M08-HX                 Factor:  1.0000

 Generated new metagrid on record  1800.2 with target accuracy 1.0D-06 and 45620 points in CPU time    1.1
 Computed new grid on record 1800.1 in CPU time    1.2
   88342 words reserved for DFT integration

 PROGRAM * UKS-SCF (Unrestricted Kohn-Sham)     Authors: W. Meyer, H.-J. Werner, P.J. Knowles, 1993

 NUMBER OF ELECTRONS:      17+   17-    SPACE SYMMETRY=1    SPIN SYMMETRY: Singlet 
 CONVERGENCE THRESHOLDS:    1.00E-05 (Density)    1.00E-06 (Energy)
 MAX. NUMBER OF ITERATIONS:       60
 INTERPOLATION TYPE:            DIIS
 INTERPOLATION STEPS:              2 (START)      1 (STEP)
 LEVEL SHIFTS:                 -0.20 (ALPHA)  -0.20 (BETA) 



 Use fine grid record 1800.2 for energy threshold  1.0D-06
 Orbital guess generated from atomic densities. Full valence occupancy:   17

 Molecular orbital dump at record        2200.2

 Initial alpha occupation  17
 Initial beta  occupation  17

 ITERATION    DDIFF          GRAD             ENERGY        2-EL.EN.            DIPOLE MOMENTS         DIIS
    1      0.000D+00      0.000D+00      -158.21445708    400.522786   -0.00030   -0.00000   -0.00812    0
    2      0.679D-02      0.352D-02      -158.29119704    391.758058    0.00104   -0.00000    0.01008    1
    3      0.171D-02      0.109D-02      -158.29747767    393.254954    0.00173   -0.00000    0.03544    2
    4      0.115D-02      0.268D-03      -158.29854942    393.099536    0.00214   -0.00000    0.03977    3
    5      0.425D-03      0.735D-04      -158.29863694    393.084006    0.00223   -0.00000    0.04099    4
    6      0.146D-03      0.188D-04      -158.29864237    393.072067    0.00220   -0.00000    0.04113    5
    7      0.363D-04      0.472D-05      -158.29864276    393.072678    0.00219   -0.00000    0.04027    6
    8      0.791D-05      0.116D-05      -158.29864278    393.072626    0.00219   -0.00000    0.04046    6
    9      0.291D-05      0.356D-06      -158.29864279    393.072726    0.00219   -0.00000    0.04037    6

 Final alpha occupancy:  17
 Final beta  occupancy:  17

 !UKS STATE 1.1 Energy               -158.298642787513
 Nuclear energy                       134.07051350
 One-electron energy                 -476.21637934
 Two-electron energy                  196.53636292
 Density functional                   -12.68913987     XC-M08-HX=-12.68913987
 Virial quotient                       -1.01463468
 !UKS STATE 1.1 Dipole moment           0.00218679    -0.00000000     0.04037032
 Dipole moment /Debye                   0.00555790    -0.00000000     0.10260440

 Orbital energies for positive spin:

         1.1          2.1          3.1          4.1          5.1          6.1          7.1          8.1          9.1         10.1
    -10.545529   -10.529595   -10.529575   -10.529354    -0.896584    -0.765638    -0.765592    -0.633661    -0.531502    -0.497834

        11.1         12.1         13.1         14.1         15.1         16.1         17.1         18.1         19.1
     -0.497593    -0.445543    -0.445258    -0.424704    -0.388356    -0.388069    -0.379276     0.067374     0.115846

 Orbital energies for negative spin:

         1.1          2.1          3.1          4.1          5.1          6.1          7.1          8.1          9.1         10.1
    -10.545529   -10.529595   -10.529575   -10.529354    -0.896584    -0.765638    -0.765592    -0.633661    -0.531502    -0.497834

        11.1         12.1         13.1         14.1         15.1         16.1         17.1         18.1         19.1
     -0.497593    -0.445543    -0.445258    -0.424704    -0.388356    -0.388069    -0.379276     0.067374     0.115846

 HOMO     17.1    -0.379276 =     -10.3206eV
 LUMO     18.1     0.067374 =       1.8333eV
 LUMO-HOMO         0.446651 =      12.1540eV

 EXPECTATION VALUE OF S**2:            -0.00000000

 Natural orbitals saved to record    2200.2 (Orbital set 3)

 Orbital spaces for UNO-CAS (Min. occupation: 0.020  Max. occupation: 1.980):

 Closed:       17
 Active:        0


 **********************************************************************************************************************************
 DATASETS  * FILE   NREC   LENGTH (MB)   RECORD NAMES
              1      20       89.03       500      610      700      900      950      970     1000      129      960     1100   
                                          VAR    BASINP    GEOM    SYMINP    ZMAT    AOBASIS   BASIS     P2S    ABASIS      S 
                                         1400     1410     1200     1210     1080     1600     1650     1300     1700     1800   
                                           T        V       H0       H01     AOSYM     SMH    MOLCAS    ERIS     OPER     GRID   

              2       5        3.45       700     1000      520     1800     2200   
                                         GEOM     BASIS   MCVARS    GRID      UKS  

 PROGRAMS   *        TOTAL       UKS       INT
 CPU TIMES  *        43.22     40.31      2.76
 REAL TIME  *        51.08 SEC
 DISK USED  *       280.45 MB      
 **********************************************************************************************************************************


 PROGRAM * Intrinsic Basis Bonding Analysis (IBBA)          Author: G. Knizia

 Molecular orbitals read from record     2200.2  Type=UKS/ALPHA (state 1.1)
 Fock matrix read from record            2200.2  Type=UKS/TOTAL (state 1.1)
 Orbital energies read from record       2200.2  Type=UKS/ALPHA (state 1.1)
 Density matrix read from record         2200.2  Type=UKS/CHARGE (state 1.1)

 Number of core orbitals:           4 (   4 )
 Number of closed-shell orbitals:  13 (  13 )

 Basis set MINAO-AUTO-PP generated.      Number of basis functions:   30 

 Polarized AO type:                A = (O Ot + (1-O)(1-Ot)) P12
 Orthogonalization method:         Symmetric (Loewdin)
 Localization functional:          L = sum[A,i] <i|n_A|i>^4 -> max

 Localization group 1:  17 orbitals, occupancy  2.000
 Iterative localization: IB/PM,    7 iter; Final gradient 0.23E-08

 Bond order analysis:       [THRPRINT= 0.020]

   CEN ATOM   CEN ATOM     WIBERG.BO      RENORM.BO
     1   C  -   3   C       1.012742       1.009138
     1   C  -   5   C       1.012612       1.009024
     1   C  -   4   C       1.012612       1.009024
     1   C  -   2   H       0.936272       0.957296

     2   H  -   1   C       0.936272       0.957296

     3   C  -   1   C       1.012742       1.009138
     3   C  -   9   H       0.965724       0.984644
     3   C  -  10   H       0.965724       0.984644
     3   C  -   6   H       0.964374       0.979862

     4   C  -   1   C       1.012612       1.009024
     4   C  -  12   H       0.965868       0.984640
     4   C  -  11   H       0.965646       0.984720
     4   C  -   7   H       0.964565       0.979882

     5   C  -   1   C       1.012612       1.009024
     5   C  -  13   H       0.965868       0.984640
     5   C  -  14   H       0.965646       0.984720
     5   C  -   8   H       0.964565       0.979882

     6   H  -   3   C       0.964374       0.979862

     7   H  -   4   C       0.964565       0.979882

     8   H  -   5   C       0.964565       0.979882

     9   H  -   3   C       0.965724       0.984644

    10   H  -   3   C       0.965724       0.984644

    11   H  -   4   C       0.965646       0.984720

    12   H  -   4   C       0.965868       0.984640

    13   H  -   5   C       0.965868       0.984640

    14   H  -   5   C       0.965646       0.984720


 Valency analysis:

   CEN ATOM   TOT.VALENCE
     1   C       3.981223
     2   H       0.986441
     3   C       3.942410
     4   C       3.942508
     5   C       3.942508
     6   H       0.984684
     7   H       0.984844
     8   H       0.984844
     9   H       0.983421
    10   H       0.983421
    11   H       0.983265
    12   H       0.983533
    13   H       0.983533
    14   H       0.983265

 Total charge composition:

   CEN ATOM         s          p       ELECTRONS ->P.CHARGE
     1   C       2.94728    3.12630      6.07358   -0.07358
     2   H       0.88356                 0.88356    0.11644
     3   C       3.01873    3.37669      6.39541   -0.39541
     4   C       3.01853    3.37663      6.39516   -0.39516
     5   C       3.01853    3.37663      6.39516   -0.39516
     6   H       0.87624                 0.87624    0.12376
     7   H       0.87689                 0.87689    0.12311
     8   H       0.87689                 0.87689    0.12311
     9   H       0.87124                 0.87124    0.12876
    10   H       0.87124                 0.87124    0.12876
    11   H       0.87064                 0.87064    0.12936
    12   H       0.87168                 0.87168    0.12832
    13   H       0.87168                 0.87168    0.12832
    14   H       0.87064                 0.87064    0.12936

 Total charge composition, AO contributions:

   CEN ATOM SHL      SPHERICAL COMPONENTS
     1   C  1s       1.99145
     1   C  2s       0.95583
     1   C  2p       1.00842    1.00865    1.10922

     2   H  1s       0.88356

     3   C  1s       1.99085
     3   C  2s       1.02788
     3   C  2p       1.06906    1.16030    1.14734

     4   C  1s       1.99085
     4   C  2s       1.02768
     4   C  2p       1.13710    1.09277    1.14676

     5   C  1s       1.99085
     5   C  2s       1.02768
     5   C  2p       1.13710    1.09277    1.14676

     6   H  1s       0.87624

     7   H  1s       0.87689

     8   H  1s       0.87689

     9   H  1s       0.87124

    10   H  1s       0.87124

    11   H  1s       0.87064

    12   H  1s       0.87168

    13   H  1s       0.87168

    14   H  1s       0.87064

 Summary of localized orbital composition:   [THRPRINT= 0.020]

   ORB  GRP  ORB.ENERGY      CENTERS/CHARGES
     1   1   -10.439296      C  1   2.000
     2   1   -10.412330      C  5   2.000
     3   1   -10.412330      C  4   2.000
     4   1   -10.412077      C  3   2.000
     5   1    -0.631130      C  4   1.006   C  1   0.978
     6   1    -0.631130      C  5   1.006   C  1   0.978
     7   1    -0.630935      C  3   1.006   C  1   0.978
     8   1    -0.563712      C  5   1.128   H 14   0.864
     9   1    -0.563712      C  4   1.128   H 11   0.864
    10   1    -0.563545      C  5   1.127   H 13   0.865
    11   1    -0.563545      C  4   1.127   H 12   0.865
    12   1    -0.563325      C  3   1.127   H 10   0.864
    13   1    -0.563325      C  3   1.127   H  9   0.864
    14   1    -0.562579      C  3   1.122   H  6   0.869
    15   1    -0.561922      C  4   1.122   H  7   0.870
    16   1    -0.561922      C  5   1.122   H  8   0.870
    17   1    -0.556832      C  1   1.101   H  2   0.871   (other: 0.028)

 Localized orbitals saved to record      2200.2  (orbital set 4)


 **********************************************************************************************************************************
 DATASETS  * FILE   NREC   LENGTH (MB)   RECORD NAMES
              1      20       89.03       500      610      700      900      950      970     1000      129      960     1100   
                                          VAR    BASINP    GEOM    SYMINP    ZMAT    AOBASIS   BASIS     P2S    ABASIS      S 
                                         1400     1410     1200     1210     1080     1600     1650     1300     1700     1800   
                                           T        V       H0       H01     AOSYM     SMH    MOLCAS    ERIS     OPER     GRID   

              2       5        3.54       700     1000      520     1800     2200   
                                         GEOM     BASIS   MCVARS    GRID      UKS  

 PROGRAMS   *        TOTAL      IBBA       UKS       INT
 CPU TIMES  *        43.26      0.04     40.31      2.76
 REAL TIME  *        51.24 SEC
 DISK USED  *       280.45 MB      
 **********************************************************************************************************************************
 Molecular orbitals read from record     2200.2  Type=UKS/LOCAL(IBO)  
 Occupation numbers read from record     2200.2  Type=UKS/LOCAL(IBO)  
 Orbital energies read from record       2200.2  Type=UKS/LOCAL(IBO)  
 Redundancy group numbers read from rec  2200.2  Type=UKS/BETA (state 1.1)

 IBBA/SVP energy=      0.000000000000

        UKS-SCF 
   -158.29864279
 **********************************************************************************************************************************
 Molpro calculation terminated
