
 Primary working directories    : /tmp/sb13343
 Secondary working directories  : /tmp/sb13343
 Wavefunction directory         : /panfs/panasas01/chem/sb13343/wfu/
 Main file repository           : /tmp/sb13343/

 SHA1      : b4a5b34a9e711420743f49e6833241d17c61fb3c
 NAME      : 2099.9.b4a5b34
 ARCHNAME  : linux/x86_64_openmp
 FC        : /cm/shared/languages/GCC-6.1/bin/gfortran
 BLASLIB   : -lblas
 id        : simonbennie

 Nodes     nprocs
 node32-020    1

 Using customized tuning parameters: mindgm=1; mindgv=20; mindgc=4; mindgr=1; noblas=0; minvec=7
 default implementation of scratch files=df  

 memory,500,m
 geomtyp=xyz
 nosym
 noorient
 geometry={
 O          0.25818        0.93788        0.04074
 C          1.63656        1.04230        0.32330
 H          1.89907        2.10041        0.23555
 H          2.26234        0.47024       -0.37847
 C         -0.29581       -0.36510        0.22961
 H          0.07373       -0.77023        1.18842
 C          0.09996       -1.32219       -0.89979
 C         -1.80707       -0.17660        0.31883
 H         -2.30941       -1.13436        0.49338
 H         -2.05917        0.50650        1.13581
 H         -2.19015        0.25071       -0.61475
 H         -0.34617       -2.31074       -0.74107
 H         -0.25158       -0.93408       -1.86253
 H          1.18531       -1.45552       -0.96063
 H          1.86878        0.70360        1.34661
 }
 basis={ default,sto-3g }
 {ks,VWN,direct;wf,42,1,0}
 {ibba,bonds=1}

 Variables initialized (895), CPU time= 0.01 sec
 Commands  initialized (725), CPU time= 0.01 sec, 591 directives.
 Default parameters read. Elapsed time= 0.09 sec

 Checking input...
 Passed
1


                                         ***  PROGRAM SYSTEM MOLPRO  ***
                                       Copyright, TTI GmbH Stuttgart, 2015
                                    Version 2099.9 linked May 26 2017 16:03:21


 **********************************************************************************************************************************
 LABEL *                                                                                 
  64 bit serial version                                                                  DATE: 07-Jun-17          TIME: 21:47:12  
 **********************************************************************************************************************************

 SHA1:             b4a5b34a9e711420743f49e6833241d17c61fb3c
 **********************************************************************************************************************************
 SETTING GEOMTYP        =    XYZ

 Variable memory set to  500000000 words,  buffer space 

 ZSYMEL=NOSYM

 SETTING BASIS          =    STO-3G


 Recomputing integrals since basis changed


 Using spherical harmonics

 Library entry O      S STO-3G               selected for orbital group  1
 Library entry O      P STO-3G               selected for orbital group  1
 Library entry C      S STO-3G               selected for orbital group  2
 Library entry C      P STO-3G               selected for orbital group  2
 Library entry H      S STO-3G               selected for orbital group  3


 PROGRAM * SEWARD (Integral evaluation for generally contracted gaussian basis sets)     Author: Roland Lindh, 1990

 Geometry written to block  1 of record 700


 Point group  C1  



 ATOMIC COORDINATES

 NR  ATOM    CHARGE       X              Y              Z

   1  O       8.00    0.487889491    1.772336338    0.076987442
   2  C       6.00    3.092650186    1.969661540    0.610948456
   3  H       1.00    3.588722191    3.969199649    0.445124989
   4  H       1.00    4.275203001    0.888624813   -0.715204646
   5  C       6.00   -0.558999885   -0.689939008    0.433900015
   6  H       1.00    0.139329507   -1.455523753    2.245788321
   7  C       6.00    0.188897023   -2.498576985   -1.700356670
   8  C       6.00   -3.414867388   -0.333725634    0.602501380
   9  H       1.00   -4.364152409   -2.143629727    0.932353075
  10  H       1.00   -3.891267344    0.957146282    2.146369830
  11  H       1.00   -4.138783672    0.473773237   -1.161709135
  12  H       1.00   -0.654166493   -4.366665745   -1.400419339
  13  H       1.00   -0.475417298   -1.765155378   -3.519671599
  14  H       1.00    2.239911273   -2.750534169   -1.815327607
  15  H       1.00    3.531482387    1.329611301    2.544724097

 Bond lengths in Bohr (Angstrom)

  1- 2  2.666238902   1- 5  2.699289504   2- 3  2.066818209   2- 4  2.079844613   2-15  2.083680934
       ( 1.410912866)       ( 1.428402491)       ( 1.093713095)       ( 1.100606371)       ( 1.102636465)

  5- 6  2.087276497   5- 7  2.895785336   5- 8  2.882931422   7-12  2.071345966   7-13  2.071020903
       ( 1.104539155)       ( 1.532383608)       ( 1.525581609)       ( 1.096109081)       ( 1.095937065)

  7-14  2.069628032   8- 9  2.070192508   8-10  2.068051501   8-11  2.070880961
       ( 1.095199989)       ( 1.095498697)       ( 1.094365725)       ( 1.095863011)

 Bond angles

  1- 2- 3  106.85884507   1- 2- 4  112.91125973   1- 2-15  111.64621834   1- 5- 6  108.63888518

  1-5-7  111.84608248   1-5-8  106.21369660   2-1-5  114.82992588   3-2-4  108.37425913

  3- 2-15  108.72850466   4- 2-15  108.20064699   5- 7-12  110.57572754   5- 7-13  110.08520206

  5- 7-14  111.89623115   5- 8- 9  110.82645738   5- 8-10  110.42517473   5- 8-11  110.16013005

  6- 5- 7  108.92239636   6- 5- 8  109.02480146   7- 5- 8  112.09364518   9- 8-10  108.73162751

  9- 8-11  108.44218100  10- 8-11  108.18344616  12- 7-13  108.42317703  12- 7-14  107.55382926

 13- 7-14  108.19151953

 NUCLEAR CHARGE:                   42
 NUMBER OF PRIMITIVE AOS:         105
 NUMBER OF SYMMETRY AOS:          105
 NUMBER OF CONTRACTIONS:           35   (  35A   )
 NUMBER OF CORE ORBITALS:           5   (   5A   )
 NUMBER OF VALENCE ORBITALS:       30   (  30A   )


 NUCLEAR REPULSION ENERGY  195.74983609


 Eigenvalues of metric

         1 0.208E+00 0.227E+00 0.234E+00 0.281E+00 0.352E+00 0.360E+00 0.363E+00 0.368E+00


 Contracted 2-electron integrals neglected if value below      1.0D-11
 AO integral compression algorithm  1   Integral accuracy      1.0D-11

     1.573 MB (compressed) written to integral file ( 89.1%)


 NUMBER OF SORTED TWO-ELECTRON INTEGRALS:     198765.     BUFFER LENGTH:  32768
 NUMBER OF SEGMENTS:   1  SEGMENT LENGTH:     198765      RECORD LENGTH: 524288

 Memory used in sort:       0.76 MW

 SORT1 READ      224802. AND WROTE      193897. INTEGRALS IN      1 RECORDS. CPU TIME:     0.00 SEC, REAL TIME:     0.01 SEC
 SORT2 READ      193897. AND WROTE      198765. INTEGRALS IN      6 RECORDS. CPU TIME:     0.03 SEC, REAL TIME:     0.03 SEC

 FILE SIZES:   FILE 1:    31.8 MBYTE,  FILE 4:     4.2 MBYTE,   TOTAL:     36.0 MBYTE

 OPERATOR DM      FOR CENTER  0  COORDINATES:    0.000000    0.000000    0.000000


 **********************************************************************************************************************************
 DATASETS  * FILE   NREC   LENGTH (MB)   RECORD NAMES
              1      19       31.10       500      610      700      900      950      970     1000      129      960     1100   
                                          VAR    BASINP    GEOM    SYMINP    ZMAT    AOBASIS   BASIS     P2S    ABASIS      S 
                                         1400     1410     1200     1210     1080     1600     1650     1300     1700   
                                           T        V       H0       H01     AOSYM     SMH    MOLCAS    ERIS     OPER   

 PROGRAMS   *        TOTAL       INT
 CPU TIMES  *         0.78      0.63
 REAL TIME  *         1.21 SEC
 DISK USED  *        36.55 MB      
 **********************************************************************************************************************************

 Density functional group VWN=VWN5
 Functional: VWN5(Automatically generated (new) VWN5)                          Gradient terms: 0
 Use grid at  1800.2

 Functional: VWN5                      Factor:  1.0000

 Generated new metagrid on record  1800.2 with target accuracy 1.0D-06 and 52852 points in CPU time    1.3
 Computed new grid on record 1800.1 in CPU time    1.5
   19034 words reserved for DFT integration

 PROGRAM * RKS-SCF (Restricted closed shell Kohn-Sham)     Authors: W. Meyer, H.-J. Werner, P.J. Knowles, 1993

 NUMBER OF ELECTRONS:      21+   21-    SPACE SYMMETRY=1    SPIN SYMMETRY: Singlet 
 CONVERGENCE THRESHOLDS:    1.00E-05 (Density)    1.00E-06 (Energy)
 MAX. NUMBER OF ITERATIONS:       60
 INTERPOLATION TYPE:            DIIS
 INTERPOLATION STEPS:              2 (START)      1 (STEP)
 LEVEL SHIFTS:                  0.00 (CLOSED)  0.00 (OPEN) 



 Use fine grid record 1800.2 for energy threshold  1.0D-06
 Orbital guess generated from atomic densities. Full valence occupancy:   21

 Molecular orbital dump at record        2100.2

 Initial occupancy:  21

 ITERATION    DDIFF          GRAD             ENERGY        2-EL.EN.            DIPOLE MOMENTS         DIIS   ORB.
    1      0.000D+00      0.000D+00      -199.40928526    614.847426    0.05850    0.05069    0.01496    0    start
    2      0.000D+00      0.147D-01      -199.37175791    601.776428   -0.39690   -0.01646   -0.09102    1    diag
    3      0.513D-01      0.184D-01      -199.48478991    608.767042   -0.10245    0.05214    0.00384    2    diag
    4      0.284D-01      0.116D-02      -199.48508139    609.031274   -0.09319    0.00089   -0.00178    3    diag
    5      0.298D-02      0.782D-03      -199.48527639    608.833397   -0.11437    0.03853   -0.01304    4    diag
    6      0.130D-02      0.156D-03      -199.48528389    608.853560   -0.10809    0.03060   -0.00763    5    diag
    7      0.284D-03      0.498D-04      -199.48528461    608.851922   -0.10851    0.03046   -0.00756    6    diag
    8      0.741D-04      0.697D-05      -199.48528463    608.851347   -0.10866    0.03081   -0.00794    7    diag
    9      0.139D-04      0.854D-06      -199.48528463    608.851242   -0.10865    0.03081   -0.00789    8    diag
   10      0.171D-05      0.347D-06      -199.48528463    608.851253   -0.10866    0.03081   -0.00789    0    orth

 Final occupancy:  21

 !RKS STATE 1.1 Energy               -199.485284628983
 Nuclear energy                       195.74983609
 One-electron energy                 -697.00875446
 Two-electron energy                  304.42562650
 Density functional                    -2.65199276     VWN5=-2.65199276
 Virial quotient                       -0.89519465
 !RKS STATE 1.1 Dipole moment          -0.10866382     0.03080672    -0.00789449
 Dipole moment /Debye                  -0.27617780     0.07829775    -0.02006449

 Orbital energies:

         1.1          2.1          3.1          4.1          5.1          6.1          7.1          8.1          9.1         10.1
    -15.859180    -7.755107    -7.751986    -7.743234    -7.733942    -0.354951    -0.191047    -0.120374    -0.082935    -0.007425

        11.1         12.1         13.1         14.1         15.1         16.1         17.1         18.1         19.1         20.1
      0.051090     0.067274     0.090729     0.110878     0.135159     0.142359     0.171881     0.190453     0.208766     0.398410

        21.1         22.1         23.1
      0.464830     0.742259     0.791522

 HOMO     21.1     0.464830 =      12.6487eV
 LUMO     22.1     0.742259 =      20.1979eV
 LUMO-HOMO         0.277429 =       7.5492eV


 **********************************************************************************************************************************
 DATASETS  * FILE   NREC   LENGTH (MB)   RECORD NAMES
              1      20       32.79       500      610      700      900      950      970     1000      129      960     1100   
                                          VAR    BASINP    GEOM    SYMINP    ZMAT    AOBASIS   BASIS     P2S    ABASIS      S 
                                         1400     1410     1200     1210     1080     1600     1650     1300     1700     1800   
                                           T        V       H0       H01     AOSYM     SMH    MOLCAS    ERIS     OPER     GRID   

              2       5        3.02       700     1000      520     1800     2100   
                                         GEOM     BASIS   MCVARS    GRID      RKS  

 PROGRAMS   *        TOTAL        KS       INT
 CPU TIMES  *         4.38      3.59      0.63
 REAL TIME  *         4.92 SEC
 DISK USED  *        36.55 MB      
 **********************************************************************************************************************************


 PROGRAM * Intrinsic Basis Bonding Analysis (IBBA)          Author: G. Knizia

 Molecular orbitals read from record     2100.2  Type=RKS/CANONICAL (state 1.1)
 Fock matrix read from record            2100.2  Type=RKS/TOTAL (state 1.1)
 Orbital energies read from record       2100.2  Type=RKS/CANONICAL (state 1.1)
 Density matrix read from record         2100.2  Type=RKS/CHARGE (state 1.1)

 Number of core orbitals:           5 (   5 )
 Number of closed-shell orbitals:  16 (  16 )

 Basis set MINAO-AUTO-PP generated.      Number of basis functions:   35 

 Polarized AO type:                A = (O Ot + (1-O)(1-Ot)) P12
 Orthogonalization method:         Symmetric (Loewdin)
 Localization functional:          L = sum[A,i] <i|n_A|i>^4 -> max

 Localization group 1:  21 orbitals, occupancy  2.000
 Iterative localization: IB/PM,    7 iter; Final gradient 0.50E-08

 Bond order analysis:       [THRPRINT= 0.020]

   CEN ATOM   CEN ATOM     WIBERG.BO      RENORM.BO
     1   O  -   2   C       1.101224       1.050215
     1   O  -   5   C       1.047926       1.003608
     1   O  -   4   H       0.056320       0.031767
     1   O  -  15   H       0.052844       0.029983
     1   O  -   7   C       0.044749       0.024029
     1   O  -   6   H       0.040916       0.023380
     1   O  -   8   C       0.020580       0.012052

     2   C  -   1   O       1.101224       1.050215
     2   C  -   3   H       0.954433       0.952039
     2   C  -  15   H       0.934329       0.898140
     2   C  -   4   H       0.932542       0.894606

     3   H  -   2   C       0.954433       0.952039

     4   H  -   2   C       0.932542       0.894606
     4   H  -   1   O       0.056320       0.031767

     5   C  -   1   O       1.047926       1.003608
     5   C  -   8   C       0.989181       0.984357
     5   C  -   7   C       0.976746       0.947389
     5   C  -   6   H       0.914912       0.888172

     6   H  -   5   C       0.914912       0.888172
     6   H  -   1   O       0.040916       0.023380

     7   C  -   5   C       0.976746       0.947389
     7   C  -  13   H       0.968844       0.981433
     7   C  -  12   H       0.968306       0.984194
     7   C  -  14   H       0.966363       0.979536
     7   C  -   1   O       0.044749       0.024029

     8   C  -   5   C       0.989181       0.984357
     8   C  -   9   H       0.969652       0.985607
     8   C  -  10   H       0.969545       0.983928
     8   C  -  11   H       0.968350       0.981802
     8   C  -   1   O       0.020580       0.012052

     9   H  -   8   C       0.969652       0.985607

    10   H  -   8   C       0.969545       0.983928

    11   H  -   8   C       0.968350       0.981802

    12   H  -   7   C       0.968306       0.984194

    13   H  -   7   C       0.968844       0.981433

    14   H  -   7   C       0.966363       0.979536

    15   H  -   2   C       0.934329       0.898140
    15   H  -   1   O       0.052844       0.029983


 Valency analysis:

   CEN ATOM   TOT.VALENCE
     1   O       2.420622
     2   C       3.947943
     3   H       0.996992
     4   H       0.999509
     5   C       3.969233
     6   H       0.999342
     7   C       3.950083
     8   C       3.951383
     9   H       0.995711
    10   H       0.995750
    11   H       0.996160
    12   H       0.995871
    13   H       0.996631
    14   H       0.996455
    15   H       0.999403

 Total charge composition:

   CEN ATOM         s          p       ELECTRONS ->P.CHARGE
     1   O       3.55564    4.35093      7.90657    0.09343
     2   C       2.90875    3.25342      6.16218   -0.16218
     3   H       0.94516                 0.94516    0.05484
     4   H       0.97783                 0.97783    0.02217
     5   C       2.88820    3.12173      6.00993   -0.00993
     6   H       0.97434                 0.97434    0.02566
     7   C       2.88654    3.33107      6.21761   -0.21761
     8   C       2.88627    3.31901      6.20529   -0.20529
     9   H       0.93451                 0.93451    0.06549
    10   H       0.93481                 0.93481    0.06519
    11   H       0.93803                 0.93803    0.06197
    12   H       0.93575                 0.93575    0.06425
    13   H       0.94196                 0.94196    0.05804
    14   H       0.94046                 0.94046    0.05954
    15   H       0.97557                 0.97557    0.02443

 Total charge composition, AO contributions:

   CEN ATOM SHL      SPHERICAL COMPONENTS
     1   O  1s       1.99890
     1   O  2s       1.55674
     1   O  2p       1.21562    1.33841    1.79690

     2   C  1s       1.99823
     2   C  2s       0.91052
     2   C  2p       0.97629    1.14008    1.13705

     3   H  1s       0.94516

     4   H  1s       0.97783

     5   C  1s       1.99834
     5   C  2s       0.88986
     5   C  2p       1.05335    0.97074    1.09764

     6   H  1s       0.97434

     7   C  1s       1.99813
     7   C  2s       0.88841
     7   C  2p       1.11967    1.10924    1.10216

     8   C  1s       1.99810
     8   C  2s       0.88818
     8   C  2p       1.07453    1.12308    1.12140

     9   H  1s       0.93451

    10   H  1s       0.93481

    11   H  1s       0.93803

    12   H  1s       0.93575

    13   H  1s       0.94196

    14   H  1s       0.94046

    15   H  1s       0.97557

 Summary of localized orbital composition:   [THRPRINT= 0.020]

   ORB  GRP  ORB.ENERGY      CENTERS/CHARGES
     1   1   -15.760778      O  1   2.000
     2   1    -7.676225      C  5   2.000
     3   1    -7.672057      C  2   2.000
     4   1    -7.660139      C  8   2.000
     5   1    -7.651275      C  7   2.000
     6   1    -0.106859      O  1   1.064   C  2   0.924
     7   1    -0.089460      O  1   1.062   C  5   0.912   (other: 0.026)
     8   1    -0.000913      C  8   0.996   C  5   0.984
     9   1     0.007890      C  7   1.007   C  5   0.980
    10   1     0.031234      C  2   1.064   H  3   0.927
    11   1     0.036423      C  8   1.059   H 11   0.930
    12   1     0.036786      C  8   1.063   H 10   0.926
    13   1     0.037243      C  8   1.063   H  9   0.926
    14   1     0.039156      C  2   1.053   H  4   0.943
    15   1     0.039723      C  5   1.041   H  6   0.939
    16   1     0.040054      C  2   1.054   H 15   0.943
    17   1     0.040229      C  7   1.058   H 14   0.930
    18   1     0.040433      C  7   1.056   H 13   0.933
    19   1     0.042749      C  7   1.061   H 12   0.927
    20   1     0.227331      O  1   1.942   (other: 0.058)
    21   1     0.430104      O  1   1.825   C  2   0.043   C  5   0.038   H  4   0.028   H 15   0.024   C  7   0.022   (other: 0.021)

 Localized orbitals saved to record      2100.2  (orbital set 2)


 **********************************************************************************************************************************
 DATASETS  * FILE   NREC   LENGTH (MB)   RECORD NAMES
              1      20       32.79       500      610      700      900      950      970     1000      129      960     1100   
                                          VAR    BASINP    GEOM    SYMINP    ZMAT    AOBASIS   BASIS     P2S    ABASIS      S 
                                         1400     1410     1200     1210     1080     1600     1650     1300     1700     1800   
                                           T        V       H0       H01     AOSYM     SMH    MOLCAS    ERIS     OPER     GRID   

              2       5        3.03       700     1000      520     1800     2100   
                                         GEOM     BASIS   MCVARS    GRID      RKS  

 PROGRAMS   *        TOTAL      IBBA        KS       INT
 CPU TIMES  *         4.42      0.05      3.59      0.63
 REAL TIME  *         5.27 SEC
 DISK USED  *        36.55 MB      
 **********************************************************************************************************************************
 Molecular orbitals read from record     2100.2  Type=RKS/LOCAL(IBO)  
 Occupation numbers read from record     2100.2  Type=RKS/LOCAL(IBO)  
 Orbital energies read from record       2100.2  Type=RKS/LOCAL(IBO)  
 Redundancy group numbers read from rec  2100.2  Type=RKS/LOCAL(IBO)  

 IBBA/STO-3G energy=      0.000000000000

        KS-SCF  
   -199.48528463
 **********************************************************************************************************************************
 Molpro calculation terminated
