
 Primary working directories    : /tmp/sb13343
 Secondary working directories  : /tmp/sb13343
 Wavefunction directory         : /panfs/panasas01/chem/sb13343/wfu/
 Main file repository           : /tmp/sb13343/

 SHA1      : b4a5b34a9e711420743f49e6833241d17c61fb3c
 NAME      : 2099.9.b4a5b34
 ARCHNAME  : linux/x86_64_openmp
 FC        : /cm/shared/languages/GCC-6.1/bin/gfortran
 BLASLIB   : -lblas
 id        : simonbennie

 Nodes     nprocs
 node34-044    1

 Using customized tuning parameters: mindgm=1; mindgv=20; mindgc=4; mindgr=1; noblas=0; minvec=7
 default implementation of scratch files=df  

 memory,500,m
 geomtyp=xyz
 nosym
 noorient
 geometry={
 O          0.25818        0.93788        0.04074
 C          1.63656        1.04230        0.32330
 H          1.89907        2.10041        0.23555
 H          2.26234        0.47024       -0.37847
 C         -0.29581       -0.36510        0.22961
 H          0.07373       -0.77023        1.18842
 C          0.09996       -1.32219       -0.89979
 C         -1.80707       -0.17660        0.31883
 H         -2.30941       -1.13436        0.49338
 H         -2.05917        0.50650        1.13581
 H         -2.19015        0.25071       -0.61475
 H         -0.34617       -2.31074       -0.74107
 H         -0.25158       -0.93408       -1.86253
 H          1.18531       -1.45552       -0.96063
 H          1.86878        0.70360        1.34661
 }
 basis={ default,svp }
 {ks,S-VWN,direct;wf,42,1,0}
 {ibba,bonds=1}

 Variables initialized (895), CPU time= 0.00 sec
 Commands  initialized (725), CPU time= 0.01 sec, 591 directives.
 Default parameters read. Elapsed time= 0.21 sec

 Checking input...
 Passed
1


                                         ***  PROGRAM SYSTEM MOLPRO  ***
                                       Copyright, TTI GmbH Stuttgart, 2015
                                    Version 2099.9 linked May 26 2017 16:03:21


 **********************************************************************************************************************************
 LABEL *                                                                                 
  64 bit serial version                                                                  DATE: 07-Jun-17          TIME: 21:59:31  
 **********************************************************************************************************************************

 SHA1:             b4a5b34a9e711420743f49e6833241d17c61fb3c
 **********************************************************************************************************************************
 SETTING GEOMTYP        =    XYZ

 Variable memory set to  500000000 words,  buffer space 

 ZSYMEL=NOSYM

 SETTING BASIS          =    SVP


 Recomputing integrals since basis changed


 Using spherical harmonics

 Library entry O      S def2-SVP             selected for orbital group  1
 Library entry O      P def2-SVP             selected for orbital group  1
 Library entry O      D def2-SVP             selected for orbital group  1
 Library entry C      S def2-SVP             selected for orbital group  2
 Library entry C      P def2-SVP             selected for orbital group  2
 Library entry C      D def2-SVP             selected for orbital group  2
 Library entry H      S def2-SVP             selected for orbital group  3
 Library entry H      P def2-SVP             selected for orbital group  3


 PROGRAM * SEWARD (Integral evaluation for generally contracted gaussian basis sets)     Author: Roland Lindh, 1990

 Geometry written to block  1 of record 700


 Point group  C1  



 ATOMIC COORDINATES

 NR  ATOM    CHARGE       X              Y              Z

   1  O       8.00    0.487889491    1.772336338    0.076987442
   2  C       6.00    3.092650186    1.969661540    0.610948456
   3  H       1.00    3.588722191    3.969199649    0.445124989
   4  H       1.00    4.275203001    0.888624813   -0.715204646
   5  C       6.00   -0.558999885   -0.689939008    0.433900015
   6  H       1.00    0.139329507   -1.455523753    2.245788321
   7  C       6.00    0.188897023   -2.498576985   -1.700356670
   8  C       6.00   -3.414867388   -0.333725634    0.602501380
   9  H       1.00   -4.364152409   -2.143629727    0.932353075
  10  H       1.00   -3.891267344    0.957146282    2.146369830
  11  H       1.00   -4.138783672    0.473773237   -1.161709135
  12  H       1.00   -0.654166493   -4.366665745   -1.400419339
  13  H       1.00   -0.475417298   -1.765155378   -3.519671599
  14  H       1.00    2.239911273   -2.750534169   -1.815327607
  15  H       1.00    3.531482387    1.329611301    2.544724097

 Bond lengths in Bohr (Angstrom)

  1- 2  2.666238902   1- 5  2.699289504   2- 3  2.066818209   2- 4  2.079844613   2-15  2.083680934
       ( 1.410912866)       ( 1.428402491)       ( 1.093713095)       ( 1.100606371)       ( 1.102636465)

  5- 6  2.087276497   5- 7  2.895785336   5- 8  2.882931422   7-12  2.071345966   7-13  2.071020903
       ( 1.104539155)       ( 1.532383608)       ( 1.525581609)       ( 1.096109081)       ( 1.095937065)

  7-14  2.069628032   8- 9  2.070192508   8-10  2.068051501   8-11  2.070880961
       ( 1.095199989)       ( 1.095498697)       ( 1.094365725)       ( 1.095863011)

 Bond angles

  1- 2- 3  106.85884507   1- 2- 4  112.91125973   1- 2-15  111.64621834   1- 5- 6  108.63888518

  1-5-7  111.84608248   1-5-8  106.21369660   2-1-5  114.82992588   3-2-4  108.37425913

  3- 2-15  108.72850466   4- 2-15  108.20064699   5- 7-12  110.57572754   5- 7-13  110.08520206

  5- 7-14  111.89623115   5- 8- 9  110.82645738   5- 8-10  110.42517473   5- 8-11  110.16013005

  6- 5- 7  108.92239636   6- 5- 8  109.02480146   7- 5- 8  112.09364518   9- 8-10  108.73162751

  9- 8-11  108.44218100  10- 8-11  108.18344616  12- 7-13  108.42317703  12- 7-14  107.55382926

 13- 7-14  108.19151953

 NUCLEAR CHARGE:                   42
 NUMBER OF PRIMITIVE AOS:         195
 NUMBER OF SYMMETRY AOS:          190
 NUMBER OF CONTRACTIONS:          120   ( 120A   )
 NUMBER OF CORE ORBITALS:           5   (   5A   )
 NUMBER OF VALENCE ORBITALS:       30   (  30A   )


 NUCLEAR REPULSION ENERGY  195.74983609


 Eigenvalues of metric

         1 0.241E-02 0.514E-02 0.104E-01 0.150E-01 0.214E-01 0.243E-01 0.289E-01 0.305E-01


 Contracted 2-electron integrals neglected if value below      1.0D-11
 AO integral compression algorithm  1   Integral accuracy      1.0D-11

     97.518 MB (compressed) written to integral file ( 44.4%)


 NUMBER OF SORTED TWO-ELECTRON INTEGRALS:   26357430.     BUFFER LENGTH:  32768
 NUMBER OF SEGMENTS:   2  SEGMENT LENGTH:   15997996      RECORD LENGTH: 524288

 Memory used in sort:      16.56 MW

 SORT1 READ    27501115. AND WROTE    22923365. INTEGRALS IN     67 RECORDS. CPU TIME:     0.33 SEC, REAL TIME:     0.65 SEC
 SORT2 READ    22923365. AND WROTE    26357430. INTEGRALS IN    372 RECORDS. CPU TIME:     0.55 SEC, REAL TIME:     0.71 SEC

 FILE SIZES:   FILE 1:   128.3 MBYTE,  FILE 4:   281.1 MBYTE,   TOTAL:    409.3 MBYTE

 OPERATOR DM      FOR CENTER  0  COORDINATES:    0.000000    0.000000    0.000000


 **********************************************************************************************************************************
 DATASETS  * FILE   NREC   LENGTH (MB)   RECORD NAMES
              1      19      116.03       500      610      700      900      950      970     1000      129      960     1100   
                                          VAR    BASINP    GEOM    SYMINP    ZMAT    AOBASIS   BASIS     P2S    ABASIS      S 
                                         1400     1410     1200     1210     1080     1600     1650     1300     1700   
                                           T        V       H0       H01     AOSYM     SMH    MOLCAS    ERIS     OPER   

 PROGRAMS   *        TOTAL       INT
 CPU TIMES  *         3.67      3.53
 REAL TIME  *         4.95 SEC
 DISK USED  *       409.85 MB      
 **********************************************************************************************************************************

 Density functional group S-VWN=DIRAC+VWN5
 Functional: DIRAC(Automatically generated (new) DIRAC)                        Gradient terms: 0
 Functional: VWN5(Automatically generated (new) VWN5)                          Gradient terms: 0
 Use grid at  1800.2

 Functional: DIRAC                     Factor:  1.0000
 Functional: VWN5                      Factor:  1.0000

 Generated new metagrid on record  1800.2 with target accuracy 1.0D-06 and 52852 points in CPU time    1.3
 Computed new grid on record 1800.1 in CPU time    1.4
   53819 words reserved for DFT integration

 PROGRAM * RKS-SCF (Restricted closed shell Kohn-Sham)     Authors: W. Meyer, H.-J. Werner, P.J. Knowles, 1993

 NUMBER OF ELECTRONS:      21+   21-    SPACE SYMMETRY=1    SPIN SYMMETRY: Singlet 
 CONVERGENCE THRESHOLDS:    1.00E-05 (Density)    1.00E-06 (Energy)
 MAX. NUMBER OF ITERATIONS:       60
 INTERPOLATION TYPE:            DIIS
 INTERPOLATION STEPS:              2 (START)      1 (STEP)
 LEVEL SHIFTS:                  0.00 (CLOSED)  0.00 (OPEN) 



 Use fine grid record 1800.2 for energy threshold  1.0D-06
 Orbital guess generated from atomic densities. Full valence occupancy:   21

 Molecular orbital dump at record        2100.2

 Initial occupancy:  21

 ITERATION    DDIFF          GRAD             ENERGY        2-EL.EN.            DIPOLE MOMENTS         DIIS   ORB.
    1      0.000D+00      0.000D+00      -231.15939052    632.087876    0.50428   -0.73073    0.27473    0    start
    2      0.000D+00      0.109D-01      -230.79051214    588.300254   -0.33653    0.49973   -0.29606    1    diag
    3      0.307D-01      0.166D-01      -231.43005510    616.553017    0.34711   -0.50918    0.22319    2    diag
    4      0.223D-01      0.192D-02      -231.43498417    614.870113    0.22045   -0.29256    0.11270    3    diag
    5      0.242D-02      0.991D-03      -231.43649769    614.969353    0.23679   -0.36049    0.11552    4    diag
    6      0.830D-03      0.203D-03      -231.43655837    615.011905    0.24026   -0.35029    0.12578    5    diag
    7      0.223D-03      0.885D-04      -231.43657276    615.010313    0.24192   -0.35463    0.12844    6    diag
    8      0.736D-04      0.106D-04      -231.43657300    615.018584    0.24201   -0.35386    0.12605    7    diag
    9      0.130D-04      0.299D-05      -231.43657301    615.019820    0.24193   -0.35422    0.12683    8    diag
   10      0.378D-05      0.885D-06      -231.43657301    615.019512    0.24201   -0.35414    0.12677    0    orth

 Final occupancy:  21

 !RKS STATE 1.1 Energy               -231.436573012398
 Nuclear energy                       195.74983609
 One-electron energy                 -702.84087617
 Two-electron energy                  307.50975618
 Density functional                   -31.85528912     DIRAC=-29.20518848 VWN5= -2.65010064
 Virial quotient                       -1.00636834
 !RKS STATE 1.1 Dipole moment           0.24201310    -0.35413773     0.12676777
 Dipole moment /Debye                   0.61509565    -0.90006937     0.32219042

 Orbital energies:

         1.1          2.1          3.1          4.1          5.1          6.1          7.1          8.1          9.1         10.1
    -18.600064    -9.831062    -9.819398    -9.773599    -9.770389    -0.921813    -0.697550    -0.614290    -0.594692    -0.508644

        11.1         12.1         13.1         14.1         15.1         16.1         17.1         18.1         19.1         20.1
     -0.448025    -0.414439    -0.405575    -0.375556    -0.348968    -0.340855    -0.331519    -0.307912    -0.299369    -0.260041

        21.1         22.1         23.1
     -0.205467     0.027643     0.059620

 HOMO     21.1    -0.205467 =      -5.5910eV
 LUMO     22.1     0.027643 =       0.7522eV
 LUMO-HOMO         0.233110 =       6.3432eV


 **********************************************************************************************************************************
 DATASETS  * FILE   NREC   LENGTH (MB)   RECORD NAMES
              1      20      117.72       500      610      700      900      950      970     1000      129      960     1100   
                                          VAR    BASINP    GEOM    SYMINP    ZMAT    AOBASIS   BASIS     P2S    ABASIS      S 
                                         1400     1410     1200     1210     1080     1600     1650     1300     1700     1800   
                                           T        V       H0       H01     AOSYM     SMH    MOLCAS    ERIS     OPER     GRID   

              2       5        3.30       700     1000      520     1800     2100   
                                         GEOM     BASIS   MCVARS    GRID      RKS  

 PROGRAMS   *        TOTAL        KS       INT
 CPU TIMES  *        11.89      8.22      3.53
 REAL TIME  *        13.59 SEC
 DISK USED  *       409.85 MB      
 **********************************************************************************************************************************


 PROGRAM * Intrinsic Basis Bonding Analysis (IBBA)          Author: G. Knizia

 Molecular orbitals read from record     2100.2  Type=RKS/CANONICAL (state 1.1)
 Fock matrix read from record            2100.2  Type=RKS/TOTAL (state 1.1)
 Orbital energies read from record       2100.2  Type=RKS/CANONICAL (state 1.1)
 Density matrix read from record         2100.2  Type=RKS/CHARGE (state 1.1)

 Number of core orbitals:           5 (   5 )
 Number of closed-shell orbitals:  16 (  16 )

 Basis set MINAO-AUTO-PP generated.      Number of basis functions:   35 

 Polarized AO type:                A = (O Ot + (1-O)(1-Ot)) P12
 Orthogonalization method:         Symmetric (Loewdin)
 Localization functional:          L = sum[A,i] <i|n_A|i>^4 -> max

 Localization group 1:  21 orbitals, occupancy  2.000
 Iterative localization: IB/PM,    7 iter; Final gradient 0.28E-08

 Bond order analysis:       [THRPRINT= 0.020]

   CEN ATOM   CEN ATOM     WIBERG.BO      RENORM.BO
     1   O  -   2   C       0.997101       1.017619
     1   O  -   5   C       0.951977       0.954472
     1   O  -   4   H       0.037310       0.022421
     1   O  -  15   H       0.035443       0.021484
     1   O  -   7   C       0.034407       0.018016
     1   O  -   6   H       0.027539       0.016698

     2   C  -   1   O       0.997101       1.017619
     2   C  -   3   H       0.950737       0.976340
     2   C  -  15   H       0.942065       0.932194
     2   C  -   4   H       0.942061       0.931029

     3   H  -   2   C       0.950737       0.976340

     4   H  -   2   C       0.942061       0.931029
     4   H  -   1   O       0.037310       0.022421

     5   C  -   8   C       1.013333       1.004845
     5   C  -   7   C       1.004772       0.977032
     5   C  -   1   O       0.951977       0.954472
     5   C  -   6   H       0.917276       0.910989

     6   H  -   5   C       0.917276       0.910989
     6   H  -   1   O       0.027539       0.016698

     7   C  -   5   C       1.004772       0.977032
     7   C  -  14   H       0.955262       0.981287
     7   C  -  12   H       0.952595       0.984508
     7   C  -  13   H       0.952337       0.976618
     7   C  -   1   O       0.034407       0.018016

     8   C  -   5   C       1.013333       1.004845
     8   C  -   9   H       0.955560       0.986044
     8   C  -  10   H       0.952980       0.982128
     8   C  -  11   H       0.951544       0.976781

     9   H  -   8   C       0.955560       0.986044

    10   H  -   8   C       0.952980       0.982128

    11   H  -   8   C       0.951544       0.976781

    12   H  -   7   C       0.952595       0.984508

    13   H  -   7   C       0.952337       0.976618

    14   H  -   7   C       0.955262       0.981287

    15   H  -   2   C       0.942065       0.932194
    15   H  -   1   O       0.035443       0.021484


 Valency analysis:

   CEN ATOM   TOT.VALENCE
     1   O       2.145573
     2   C       3.856393
     3   H       0.973633
     4   H       0.985133
     5   C       3.918535
     6   H       0.987545
     7   C       3.925221
     8   C       3.923649
     9   H       0.978764
    10   H       0.976123
    11   H       0.977704
    12   H       0.977694
    13   H       0.977931
    14   H       0.979621
    15   H       0.984945

 Total charge composition:

   CEN ATOM         s          p       ELECTRONS ->P.CHARGE
     1   O       3.58660    4.77629      8.36289   -0.36289
     2   C       3.01159    3.22567      6.23726   -0.23726
     3   H       0.83762                 0.83762    0.16238
     4   H       0.87807                 0.87807    0.12193
     5   C       2.94419    2.96855      5.91274    0.08726
     6   H       0.88840                 0.88840    0.11160
     7   C       3.01841    3.43694      6.45536   -0.45536
     8   C       3.01619    3.42441      6.44059   -0.44059
     9   H       0.85427                 0.85427    0.14573
    10   H       0.84548                 0.84548    0.15452
    11   H       0.85068                 0.85068    0.14932
    12   H       0.85065                 0.85065    0.14935
    13   H       0.85145                 0.85145    0.14855
    14   H       0.85725                 0.85725    0.14275
    15   H       0.87730                 0.87730    0.12270

 Total charge composition, AO contributions:

   CEN ATOM SHL      SPHERICAL COMPONENTS
     1   O  1s       1.99746
     1   O  2s       1.58914
     1   O  2p       1.38357    1.51791    1.87481

     2   C  1s       1.99269
     2   C  2s       1.01890
     2   C  2p       0.85057    1.20295    1.17216

     3   H  1s       0.83762

     4   H  1s       0.87807

     5   C  1s       1.99328
     5   C  2s       0.95091
     5   C  2p       1.01883    0.84803    1.10169

     6   H  1s       0.88840

     7   C  1s       1.99212
     7   C  2s       1.02629
     7   C  2p       1.17367    1.13877    1.12450

     8   C  1s       1.99205
     8   C  2s       1.02413
     8   C  2p       1.05865    1.17709    1.18866

     9   H  1s       0.85427

    10   H  1s       0.84548

    11   H  1s       0.85068

    12   H  1s       0.85065

    13   H  1s       0.85145

    14   H  1s       0.85725

    15   H  1s       0.87730

 Summary of localized orbital composition:   [THRPRINT= 0.020]

   ORB  GRP  ORB.ENERGY      CENTERS/CHARGES
     1   1   -18.470073      O  1   2.000
     2   1    -9.738190      C  5   2.000
     3   1    -9.715677      C  2   2.000
     4   1    -9.665300      C  7   2.000
     5   1    -9.661338      C  8   2.000
     6   1    -0.698508      O  1   1.241   C  2   0.750
     7   1    -0.678351      O  1   1.260   C  5   0.721
     8   1    -0.522373      C  5   0.994   C  8   0.990
     9   1    -0.520505      C  7   1.005   C  5   0.985
    10   1    -0.462439      C  2   1.143   H  4   0.855
    11   1    -0.462255      C  2   1.142   H 15   0.855
    12   1    -0.460925      O  1   1.958   (other: 0.042)
    13   1    -0.460813      C  2   1.163   H  3   0.829
    14   1    -0.456260      C  5   1.118   H  6   0.861   (other: 0.021)
    15   1    -0.445955      C  7   1.140   H 12   0.841
    16   1    -0.443986      C  7   1.139   H 14   0.848
    17   1    -0.443224      C  8   1.137   H  9   0.846
    18   1    -0.439365      C  7   1.146   H 13   0.843
    19   1    -0.436681      C  8   1.146   H 11   0.842
    20   1    -0.436264      C  8   1.151   H 10   0.837
    21   1    -0.250746      O  1   1.898   C  5   0.021   (other: 0.081)

 Localized orbitals saved to record      2100.2  (orbital set 2)


 **********************************************************************************************************************************
 DATASETS  * FILE   NREC   LENGTH (MB)   RECORD NAMES
              1      20      117.72       500      610      700      900      950      970     1000      129      960     1100   
                                          VAR    BASINP    GEOM    SYMINP    ZMAT    AOBASIS   BASIS     P2S    ABASIS      S 
                                         1400     1410     1200     1210     1080     1600     1650     1300     1700     1800   
                                           T        V       H0       H01     AOSYM     SMH    MOLCAS    ERIS     OPER     GRID   

              2       5        3.42       700     1000      520     1800     2100   
                                         GEOM     BASIS   MCVARS    GRID      RKS  

 PROGRAMS   *        TOTAL      IBBA        KS       INT
 CPU TIMES  *        11.93      0.04      8.22      3.53
 REAL TIME  *        13.72 SEC
 DISK USED  *       409.85 MB      
 **********************************************************************************************************************************
 Molecular orbitals read from record     2100.2  Type=RKS/LOCAL(IBO)  
 Occupation numbers read from record     2100.2  Type=RKS/LOCAL(IBO)  
 Orbital energies read from record       2100.2  Type=RKS/LOCAL(IBO)  
 Redundancy group numbers read from rec  2100.2  Type=RKS/LOCAL(IBO)  

 IBBA/SVP energy=      0.000000000000

        KS-SCF  
   -231.43657301
 **********************************************************************************************************************************
 Molpro calculation terminated
