
 Primary working directories    : /tmp/sb13343
 Secondary working directories  : /tmp/sb13343
 Wavefunction directory         : /panfs/panasas01/chem/sb13343/wfu/
 Main file repository           : /tmp/sb13343/

 SHA1      : b4a5b34a9e711420743f49e6833241d17c61fb3c
 NAME      : 2099.9.b4a5b34
 ARCHNAME  : linux/x86_64_openmp
 FC        : /cm/shared/languages/GCC-6.1/bin/gfortran
 BLASLIB   : -lblas
 id        : simonbennie

 Nodes     nprocs
 node36-006    1

 Using customized tuning parameters: mindgm=1; mindgv=20; mindgc=4; mindgr=1; noblas=0; minvec=7
 default implementation of scratch files=df  

 memory,500,m
 geomtyp=xyz
 nosym
 noorient
 geometry={
 C          0.00000        0.00000        0.00000
 H          0.00000        0.00000        1.10056
 C          1.46209        0.00000       -0.46855
 C         -0.73105       -1.26621       -0.46855
 C         -0.73105        1.26621       -0.46855
 H          1.52118        0.00000       -1.56505
 H         -0.76059       -1.31738       -1.56505
 H         -0.76059        1.31738       -1.56505
 H          1.99755        0.88622       -0.10723
 H          1.99755       -0.88622       -0.10723
 H         -0.23129       -2.17304       -0.10723
 H         -1.76626       -1.28682       -0.10723
 H         -1.76626        1.28682       -0.10723
 H         -0.23129        2.17304       -0.10723
 }
 basis={ default,svp }
 {uks,SOGGA,direct;wf,34,1,0}
 {ibba,bonds=1}

 Variables initialized (895), CPU time= 0.00 sec
 Commands  initialized (725), CPU time= 0.02 sec, 591 directives.
 Default parameters read. Elapsed time= 4.28 sec

 Checking input...
 Passed
1


                                         ***  PROGRAM SYSTEM MOLPRO  ***
                                       Copyright, TTI GmbH Stuttgart, 2015
                                    Version 2099.9 linked May 26 2017 16:03:21


 **********************************************************************************************************************************
 LABEL *                                                                                 
  64 bit serial version                                                                  DATE: 07-Jun-17          TIME: 20:16:06  
 **********************************************************************************************************************************

 SHA1:             b4a5b34a9e711420743f49e6833241d17c61fb3c
 **********************************************************************************************************************************
 SETTING GEOMTYP        =    XYZ

 Variable memory set to  500000000 words,  buffer space 

 ZSYMEL=NOSYM

 SETTING BASIS          =    SVP


 Recomputing integrals since basis changed


 Using spherical harmonics

 Library entry C      S def2-SVP             selected for orbital group  1
 Library entry C      P def2-SVP             selected for orbital group  1
 Library entry C      D def2-SVP             selected for orbital group  1
 Library entry H      S def2-SVP             selected for orbital group  2
 Library entry H      P def2-SVP             selected for orbital group  2


 PROGRAM * SEWARD (Integral evaluation for generally contracted gaussian basis sets)     Author: Roland Lindh, 1990

 Geometry written to block  1 of record 700


 Point group  C1  



 ATOMIC COORDINATES

 NR  ATOM    CHARGE       X              Y              Z

   1  C       6.00    0.000000000    0.000000000    0.000000000
   2  H       1.00    0.000000000    0.000000000    2.079756984
   3  C       6.00    2.762949669    0.000000000   -0.885431176
   4  C       6.00   -1.381484283   -2.392790116   -0.885431176
   5  C       6.00   -1.381484283    2.392790116   -0.885431176
   6  H       1.00    2.874613586    0.000000000   -2.957515871
   7  H       1.00   -1.437306793   -2.489487402   -2.957515871
   8  H       1.00   -1.437306793    2.489487402   -2.957515871
   9  H       1.00    3.774822420    1.674713086   -0.202635332
  10  H       1.00    3.774822420   -1.674713086   -0.202635332
  11  H       1.00   -0.437074755   -4.106450458   -0.202635332
  12  H       1.00   -3.337747665   -2.431737372   -0.202635332
  13  H       1.00   -3.337747665    2.431737372   -0.202635332
  14  H       1.00   -0.437074755    4.106450458   -0.202635332

 Bond lengths in Bohr (Angstrom)

 1-2  2.079756984  1-3  2.901358172  1-4  2.901367218  1-5  2.901367218  3-6  2.075091279
     ( 1.100560000)     ( 1.535332625)     ( 1.535337412)     ( 1.535337412)     ( 1.098091015)

  3- 9  2.072380406   3-10  2.072380406   4- 7  2.075090722   4-11  2.072378172   4-12  2.072364222
       ( 1.096656483)       ( 1.096656483)       ( 1.098090721)       ( 1.096655301)       ( 1.096647919)

  5- 8  2.075090722   5-13  2.072364222   5-14  2.072378172
       ( 1.098090721)       ( 1.096647919)       ( 1.096655301)

 Bond angles

  1- 3- 6  110.85354902   1- 3- 9  111.37220114   1- 3-10  111.37220114   1- 4- 7  110.85320625

  1- 4-11  111.37204414   1- 4-12  111.37216555   1- 5- 8  110.85320625   1- 5-13  111.37216555

  1- 5-14  111.37204414   2- 1- 3  107.76888332   2- 1- 4  107.76882608   2- 1- 5  107.76882608

  3-1-4  111.11870751   3-1-5  111.11870751   4-1-5  111.11845005   6-3-9  107.62119374

  6- 3-10  107.62119374   7- 4-11  107.62125572   7- 4-12  107.62162102   8- 5-13  107.62162102

  8- 5-14  107.62125572   9- 3-10  107.82352924  11- 4-12  107.82360822  13- 5-14  107.82360822

 NUCLEAR CHARGE:                   34
 NUMBER OF PRIMITIVE AOS:         170
 NUMBER OF SYMMETRY AOS:          166
 NUMBER OF CONTRACTIONS:          106   ( 106A   )
 NUMBER OF CORE ORBITALS:           4   (   4A   )
 NUMBER OF VALENCE ORBITALS:       26   (  26A   )


 NUCLEAR REPULSION ENERGY  134.07051350


 Eigenvalues of metric

         1 0.225E-02 0.614E-02 0.614E-02 0.233E-01 0.256E-01 0.268E-01 0.268E-01 0.277E-01


 Contracted 2-electron integrals neglected if value below      1.0D-11
 AO integral compression algorithm  1   Integral accuracy      1.0D-11

     64.750 MB (compressed) written to integral file ( 46.7%)


 NUMBER OF SORTED TWO-ELECTRON INTEGRALS:   16082956.     BUFFER LENGTH:  32768
 NUMBER OF SEGMENTS:   2  SEGMENT LENGTH:   15997996      RECORD LENGTH: 524288

 Memory used in sort:      16.56 MW

 SORT1 READ    17384690. AND WROTE    14795173. INTEGRALS IN     44 RECORDS. CPU TIME:     0.22 SEC, REAL TIME:     0.44 SEC
 SORT2 READ    14795173. AND WROTE    16082956. INTEGRALS IN    247 RECORDS. CPU TIME:     0.43 SEC, REAL TIME:     0.53 SEC

 FILE SIZES:   FILE 1:    95.4 MBYTE,  FILE 4:   184.6 MBYTE,   TOTAL:    279.9 MBYTE

 OPERATOR DM      FOR CENTER  0  COORDINATES:    0.000000    0.000000    0.000000


 **********************************************************************************************************************************
 DATASETS  * FILE   NREC   LENGTH (MB)   RECORD NAMES
              1      19       87.57       500      610      700      900      950      970     1000      129      960     1100   
                                          VAR    BASINP    GEOM    SYMINP    ZMAT    AOBASIS   BASIS     P2S    ABASIS      S 
                                         1400     1410     1200     1210     1080     1600     1650     1300     1700   
                                           T        V       H0       H01     AOSYM     SMH    MOLCAS    ERIS     OPER   

 PROGRAMS   *        TOTAL       INT
 CPU TIMES  *         2.80      2.66
 REAL TIME  *         8.07 SEC
 DISK USED  *       280.45 MB      
 **********************************************************************************************************************************

 Density functional group SOGGA=XC-SOGGA
 Functional: XC-SOGGA(via MFM 1.6)                                             Gradient terms: 1
 Use grid at  1800.2

 Functional: XC-SOGGA                  Factor:  1.0000

 Generated new metagrid on record  1800.2 with target accuracy 1.0D-06 and 45620 points in CPU time    1.0
 Computed new grid on record 1800.1 in CPU time    1.2
   88342 words reserved for DFT integration

 PROGRAM * UKS-SCF (Unrestricted Kohn-Sham)     Authors: W. Meyer, H.-J. Werner, P.J. Knowles, 1993

 NUMBER OF ELECTRONS:      17+   17-    SPACE SYMMETRY=1    SPIN SYMMETRY: Singlet 
 CONVERGENCE THRESHOLDS:    1.00E-05 (Density)    1.00E-06 (Energy)
 MAX. NUMBER OF ITERATIONS:       60
 INTERPOLATION TYPE:            DIIS
 INTERPOLATION STEPS:              2 (START)      1 (STEP)
 LEVEL SHIFTS:                 -0.20 (ALPHA)  -0.20 (BETA) 



 Use fine grid record 1800.2 for energy threshold  1.0D-06
 Orbital guess generated from atomic densities. Full valence occupancy:   17

 Molecular orbital dump at record        2200.2

 Initial alpha occupation  17
 Initial beta  occupation  17

 ITERATION    DDIFF          GRAD             ENERGY        2-EL.EN.            DIPOLE MOMENTS         DIIS
    1      0.000D+00      0.000D+00      -156.93745229    433.919382   -0.00016   -0.00000   -0.02632    0
    2      0.145D-01      0.647D-02      -157.15627008    413.108195   -0.00016   -0.00000   -0.00568    1
    3      0.483D-02      0.323D-02      -157.21046056    418.959852   -0.00014   -0.00000    0.03797    2
    4      0.112D-02      0.269D-03      -157.21124992    418.739482   -0.00013   -0.00000    0.03151    3
    5      0.643D-03      0.111D-03      -157.21142870    418.696368   -0.00012   -0.00000    0.03429    4
    6      0.376D-03      0.452D-04      -157.21146356    418.656572   -0.00012   -0.00000    0.03873    5
    7      0.823D-04      0.134D-04      -157.21146575    418.659776   -0.00012   -0.00000    0.03561    6
    8      0.209D-04      0.328D-05      -157.21146589    418.659061   -0.00012   -0.00000    0.03701    6
    9      0.532D-05      0.719D-06      -157.21146590    418.659178   -0.00012   -0.00000    0.03676    6
   10      0.118D-05      0.156D-06      -157.21146590    418.659073   -0.00012   -0.00000    0.03681    7

 Final alpha occupancy:  17
 Final beta  occupancy:  17

 !UKS STATE 1.1 Energy               -157.211465902726
 Nuclear energy                       134.07051350
 One-electron energy                 -476.38783613
 Two-electron energy                  209.32953670
 Density functional                   -24.22367997     XC-SOGGA=-24.22367997
 Virial quotient                       -1.00939380
 !UKS STATE 1.1 Dipole moment          -0.00012054    -0.00000000     0.03680579
 Dipole moment /Debye                  -0.00030637    -0.00000000     0.09354486

 Orbital energies for positive spin:

         1.1          2.1          3.1          4.1          5.1          6.1          7.1          8.1          9.1         10.1
     -9.833196    -9.814891    -9.814876    -9.814844    -0.712885    -0.598493    -0.598489    -0.486438    -0.404823    -0.375210

        11.1         12.1         13.1         14.1         15.1         16.1         17.1         18.1         19.1
     -0.375199    -0.327112    -0.327105    -0.306874    -0.278997    -0.278997    -0.268584     0.038599     0.082360

 Orbital energies for negative spin:

         1.1          2.1          3.1          4.1          5.1          6.1          7.1          8.1          9.1         10.1
     -9.833196    -9.814891    -9.814876    -9.814844    -0.712885    -0.598493    -0.598489    -0.486438    -0.404823    -0.375210

        11.1         12.1         13.1         14.1         15.1         16.1         17.1         18.1         19.1
     -0.375199    -0.327112    -0.327105    -0.306874    -0.278997    -0.278997    -0.268584     0.038599     0.082360

 HOMO     17.1    -0.268584 =      -7.3085eV
 LUMO     18.1     0.038599 =       1.0503eV
 LUMO-HOMO         0.307183 =       8.3589eV

 EXPECTATION VALUE OF S**2:             0.00000000

 Natural orbitals saved to record    2200.2 (Orbital set 3)

 Orbital spaces for UNO-CAS (Min. occupation: 0.020  Max. occupation: 1.980):

 Closed:       17
 Active:        0


 **********************************************************************************************************************************
 DATASETS  * FILE   NREC   LENGTH (MB)   RECORD NAMES
              1      20       89.03       500      610      700      900      950      970     1000      129      960     1100   
                                          VAR    BASINP    GEOM    SYMINP    ZMAT    AOBASIS   BASIS     P2S    ABASIS      S 
                                         1400     1410     1200     1210     1080     1600     1650     1300     1700     1800   
                                           T        V       H0       H01     AOSYM     SMH    MOLCAS    ERIS     OPER     GRID   

              2       5        3.45       700     1000      520     1800     2200   
                                         GEOM     BASIS   MCVARS    GRID      UKS  

 PROGRAMS   *        TOTAL       UKS       INT
 CPU TIMES  *        19.04     16.24      2.66
 REAL TIME  *        26.66 SEC
 DISK USED  *       280.45 MB      
 **********************************************************************************************************************************


 PROGRAM * Intrinsic Basis Bonding Analysis (IBBA)          Author: G. Knizia

 Molecular orbitals read from record     2200.2  Type=UKS/ALPHA (state 1.1)
 Fock matrix read from record            2200.2  Type=UKS/TOTAL (state 1.1)
 Orbital energies read from record       2200.2  Type=UKS/ALPHA (state 1.1)
 Density matrix read from record         2200.2  Type=UKS/CHARGE (state 1.1)

 Number of core orbitals:           4 (   4 )
 Number of closed-shell orbitals:  13 (  13 )

 Basis set MINAO-AUTO-PP generated.      Number of basis functions:   30 

 Polarized AO type:                A = (O Ot + (1-O)(1-Ot)) P12
 Orthogonalization method:         Symmetric (Loewdin)
 Localization functional:          L = sum[A,i] <i|n_A|i>^4 -> max

 Localization group 1:  17 orbitals, occupancy  2.000
 Iterative localization: IB/PM,    7 iter; Final gradient 0.29E-08

 Bond order analysis:       [THRPRINT= 0.020]

   CEN ATOM   CEN ATOM     WIBERG.BO      RENORM.BO
     1   C  -   3   C       1.014426       1.008958
     1   C  -   5   C       1.014417       1.008943
     1   C  -   4   C       1.014417       1.008943
     1   C  -   2   H       0.926627       0.952771

     2   H  -   1   C       0.926627       0.952771

     3   C  -   1   C       1.014426       1.008958
     3   C  -   9   H       0.960012       0.981893
     3   C  -  10   H       0.960012       0.981893
     3   C  -   6   H       0.958360       0.976232

     4   C  -   1   C       1.014417       1.008943
     4   C  -  11   H       0.960024       0.981896
     4   C  -  12   H       0.960009       0.981895
     4   C  -   7   H       0.958353       0.976226

     5   C  -   1   C       1.014417       1.008943
     5   C  -  14   H       0.960024       0.981896
     5   C  -  13   H       0.960009       0.981895
     5   C  -   8   H       0.958353       0.976226

     6   H  -   3   C       0.958360       0.976232

     7   H  -   4   C       0.958353       0.976226

     8   H  -   5   C       0.958353       0.976226

     9   H  -   3   C       0.960012       0.981893

    10   H  -   3   C       0.960012       0.981893

    11   H  -   4   C       0.960024       0.981896

    12   H  -   4   C       0.960009       0.981895

    13   H  -   5   C       0.960009       0.981895

    14   H  -   5   C       0.960024       0.981896


 Valency analysis:

   CEN ATOM   TOT.VALENCE
     1   C       3.978116
     2   H       0.983181
     3   C       3.933577
     4   C       3.933573
     5   C       3.933573
     6   H       0.982014
     7   H       0.982010
     8   H       0.982010
     9   H       0.980808
    10   H       0.980808
    11   H       0.980817
    12   H       0.980801
    13   H       0.980801
    14   H       0.980817

 Total charge composition:

   CEN ATOM         s          p       ELECTRONS ->P.CHARGE
     1   C       2.94756    3.13987      6.08743   -0.08743
     2   H       0.87031                 0.87031    0.12969
     3   C       3.02242    3.40285      6.42527   -0.42527
     4   C       3.02243    3.40285      6.42528   -0.42528
     5   C       3.02243    3.40285      6.42528   -0.42528
     6   H       0.86589                 0.86589    0.13411
     7   H       0.86587                 0.86587    0.13413
     8   H       0.86587                 0.86587    0.13413
     9   H       0.86146                 0.86146    0.13854
    10   H       0.86146                 0.86146    0.13854
    11   H       0.86150                 0.86150    0.13850
    12   H       0.86144                 0.86144    0.13856
    13   H       0.86144                 0.86144    0.13856
    14   H       0.86150                 0.86150    0.13850

 Total charge composition, AO contributions:

   CEN ATOM SHL      SPHERICAL COMPONENTS
     1   C  1s       1.99221
     1   C  2s       0.95535
     1   C  2p       1.01023    1.01024    1.11940

     2   H  1s       0.87031

     3   C  1s       1.99162
     3   C  2s       1.03080
     3   C  2p       1.07251    1.17130    1.15904

     4   C  1s       1.99162
     4   C  2s       1.03080
     4   C  2p       1.14661    1.09717    1.15907

     5   C  1s       1.99162
     5   C  2s       1.03080
     5   C  2p       1.14661    1.09717    1.15907

     6   H  1s       0.86589

     7   H  1s       0.86587

     8   H  1s       0.86587

     9   H  1s       0.86146

    10   H  1s       0.86146

    11   H  1s       0.86150

    12   H  1s       0.86144

    13   H  1s       0.86144

    14   H  1s       0.86150

 Summary of localized orbital composition:   [THRPRINT= 0.020]

   ORB  GRP  ORB.ENERGY      CENTERS/CHARGES
     1   1    -9.734132      C  1   2.000
     2   1    -9.705421      C  3   2.000
     3   1    -9.705401      C  5   2.000
     4   1    -9.705401      C  4   2.000
     5   1    -0.492015      C  3   1.005   C  1   0.977
     6   1    -0.492006      C  5   1.005   C  1   0.977
     7   1    -0.492006      C  4   1.005   C  1   0.977
     8   1    -0.429898      C  3   1.137   H  9   0.853
     9   1    -0.429898      C  3   1.137   H 10   0.853
    10   1    -0.429892      C  4   1.136   H 11   0.853
    11   1    -0.429892      C  5   1.136   H 14   0.853
    12   1    -0.429885      C  5   1.137   H 13   0.853
    13   1    -0.429885      C  4   1.137   H 12   0.853
    14   1    -0.429165      C  3   1.133   H  6   0.858
    15   1    -0.429151      C  4   1.133   H  7   0.858
    16   1    -0.429151      C  5   1.133   H  8   0.858
    17   1    -0.423853      C  1   1.111   H  2   0.856   (other: 0.033)

 Localized orbitals saved to record      2200.2  (orbital set 4)


 **********************************************************************************************************************************
 DATASETS  * FILE   NREC   LENGTH (MB)   RECORD NAMES
              1      20       89.03       500      610      700      900      950      970     1000      129      960     1100   
                                          VAR    BASINP    GEOM    SYMINP    ZMAT    AOBASIS   BASIS     P2S    ABASIS      S 
                                         1400     1410     1200     1210     1080     1600     1650     1300     1700     1800   
                                           T        V       H0       H01     AOSYM     SMH    MOLCAS    ERIS     OPER     GRID   

              2       5        3.54       700     1000      520     1800     2200   
                                         GEOM     BASIS   MCVARS    GRID      UKS  

 PROGRAMS   *        TOTAL      IBBA       UKS       INT
 CPU TIMES  *        19.08      0.04     16.24      2.66
 REAL TIME  *        26.78 SEC
 DISK USED  *       280.45 MB      
 **********************************************************************************************************************************
 Molecular orbitals read from record     2200.2  Type=UKS/LOCAL(IBO)  
 Occupation numbers read from record     2200.2  Type=UKS/LOCAL(IBO)  
 Orbital energies read from record       2200.2  Type=UKS/LOCAL(IBO)  
 Redundancy group numbers read from rec  2200.2  Type=UKS/BETA (state 1.1)

 IBBA/SVP energy=      0.000000000000

        UKS-SCF 
   -157.21146590
 **********************************************************************************************************************************
 Molpro calculation terminated
