
 Primary working directories    : /tmp/sb13343
 Secondary working directories  : /tmp/sb13343
 Wavefunction directory         : /panfs/panasas01/chem/sb13343/wfu/
 Main file repository           : /tmp/sb13343/

 SHA1      : b4a5b34a9e711420743f49e6833241d17c61fb3c
 NAME      : 2099.9.b4a5b34
 ARCHNAME  : linux/x86_64_openmp
 FC        : /cm/shared/languages/GCC-6.1/bin/gfortran
 BLASLIB   : -lblas
 id        : simonbennie

 Nodes     nprocs
 node32-013    1

 Using customized tuning parameters: mindgm=1; mindgv=20; mindgc=4; mindgr=1; noblas=0; minvec=7
 default implementation of scratch files=df  

 memory,500,m
 geomtyp=xyz
 nosym
 noorient
 geometry={
 O          0.25818        0.93788        0.04074
 C          1.63656        1.04230        0.32330
 H          1.89907        2.10041        0.23555
 H          2.26234        0.47024       -0.37847
 C         -0.29581       -0.36510        0.22961
 H          0.07373       -0.77023        1.18842
 C          0.09996       -1.32219       -0.89979
 C         -1.80707       -0.17660        0.31883
 H         -2.30941       -1.13436        0.49338
 H         -2.05917        0.50650        1.13581
 H         -2.19015        0.25071       -0.61475
 H         -0.34617       -2.31074       -0.74107
 H         -0.25158       -0.93408       -1.86253
 H          1.18531       -1.45552       -0.96063
 H          1.86878        0.70360        1.34661
 }
 basis={ default,svp }
 {uks,B3LYP,direct;wf,42,1,0}
 {ibba,bonds=1}

 Variables initialized (895), CPU time= 0.00 sec
 Commands  initialized (725), CPU time= 0.01 sec, 591 directives.
 Default parameters read. Elapsed time= 0.09 sec

 Checking input...
 Passed
1


                                         ***  PROGRAM SYSTEM MOLPRO  ***
                                       Copyright, TTI GmbH Stuttgart, 2015
                                    Version 2099.9 linked May 26 2017 16:03:21


 **********************************************************************************************************************************
 LABEL *                                                                                 
  64 bit serial version                                                                  DATE: 07-Jun-17          TIME: 21:54:10  
 **********************************************************************************************************************************

 SHA1:             b4a5b34a9e711420743f49e6833241d17c61fb3c
 **********************************************************************************************************************************
 SETTING GEOMTYP        =    XYZ

 Variable memory set to  500000000 words,  buffer space 

 ZSYMEL=NOSYM

 SETTING BASIS          =    SVP


 Recomputing integrals since basis changed


 Using spherical harmonics

 Library entry O      S def2-SVP             selected for orbital group  1
 Library entry O      P def2-SVP             selected for orbital group  1
 Library entry O      D def2-SVP             selected for orbital group  1
 Library entry C      S def2-SVP             selected for orbital group  2
 Library entry C      P def2-SVP             selected for orbital group  2
 Library entry C      D def2-SVP             selected for orbital group  2
 Library entry H      S def2-SVP             selected for orbital group  3
 Library entry H      P def2-SVP             selected for orbital group  3


 PROGRAM * SEWARD (Integral evaluation for generally contracted gaussian basis sets)     Author: Roland Lindh, 1990

 Geometry written to block  1 of record 700


 Point group  C1  



 ATOMIC COORDINATES

 NR  ATOM    CHARGE       X              Y              Z

   1  O       8.00    0.487889491    1.772336338    0.076987442
   2  C       6.00    3.092650186    1.969661540    0.610948456
   3  H       1.00    3.588722191    3.969199649    0.445124989
   4  H       1.00    4.275203001    0.888624813   -0.715204646
   5  C       6.00   -0.558999885   -0.689939008    0.433900015
   6  H       1.00    0.139329507   -1.455523753    2.245788321
   7  C       6.00    0.188897023   -2.498576985   -1.700356670
   8  C       6.00   -3.414867388   -0.333725634    0.602501380
   9  H       1.00   -4.364152409   -2.143629727    0.932353075
  10  H       1.00   -3.891267344    0.957146282    2.146369830
  11  H       1.00   -4.138783672    0.473773237   -1.161709135
  12  H       1.00   -0.654166493   -4.366665745   -1.400419339
  13  H       1.00   -0.475417298   -1.765155378   -3.519671599
  14  H       1.00    2.239911273   -2.750534169   -1.815327607
  15  H       1.00    3.531482387    1.329611301    2.544724097

 Bond lengths in Bohr (Angstrom)

  1- 2  2.666238902   1- 5  2.699289504   2- 3  2.066818209   2- 4  2.079844613   2-15  2.083680934
       ( 1.410912866)       ( 1.428402491)       ( 1.093713095)       ( 1.100606371)       ( 1.102636465)

  5- 6  2.087276497   5- 7  2.895785336   5- 8  2.882931422   7-12  2.071345966   7-13  2.071020903
       ( 1.104539155)       ( 1.532383608)       ( 1.525581609)       ( 1.096109081)       ( 1.095937065)

  7-14  2.069628032   8- 9  2.070192508   8-10  2.068051501   8-11  2.070880961
       ( 1.095199989)       ( 1.095498697)       ( 1.094365725)       ( 1.095863011)

 Bond angles

  1- 2- 3  106.85884507   1- 2- 4  112.91125973   1- 2-15  111.64621834   1- 5- 6  108.63888518

  1-5-7  111.84608248   1-5-8  106.21369660   2-1-5  114.82992588   3-2-4  108.37425913

  3- 2-15  108.72850466   4- 2-15  108.20064699   5- 7-12  110.57572754   5- 7-13  110.08520206

  5- 7-14  111.89623115   5- 8- 9  110.82645738   5- 8-10  110.42517473   5- 8-11  110.16013005

  6- 5- 7  108.92239636   6- 5- 8  109.02480146   7- 5- 8  112.09364518   9- 8-10  108.73162751

  9- 8-11  108.44218100  10- 8-11  108.18344616  12- 7-13  108.42317703  12- 7-14  107.55382926

 13- 7-14  108.19151953

 NUCLEAR CHARGE:                   42
 NUMBER OF PRIMITIVE AOS:         195
 NUMBER OF SYMMETRY AOS:          190
 NUMBER OF CONTRACTIONS:          120   ( 120A   )
 NUMBER OF CORE ORBITALS:           5   (   5A   )
 NUMBER OF VALENCE ORBITALS:       30   (  30A   )


 NUCLEAR REPULSION ENERGY  195.74983609


 Eigenvalues of metric

         1 0.241E-02 0.514E-02 0.104E-01 0.150E-01 0.214E-01 0.243E-01 0.289E-01 0.305E-01


 Contracted 2-electron integrals neglected if value below      1.0D-11
 AO integral compression algorithm  1   Integral accuracy      1.0D-11

     97.518 MB (compressed) written to integral file ( 44.4%)


 NUMBER OF SORTED TWO-ELECTRON INTEGRALS:   26357430.     BUFFER LENGTH:  32768
 NUMBER OF SEGMENTS:   2  SEGMENT LENGTH:   15997996      RECORD LENGTH: 524288

 Memory used in sort:      16.56 MW

 SORT1 READ    27501115. AND WROTE    22923365. INTEGRALS IN     67 RECORDS. CPU TIME:     0.33 SEC, REAL TIME:     0.61 SEC
 SORT2 READ    22923365. AND WROTE    26357430. INTEGRALS IN    372 RECORDS. CPU TIME:     0.60 SEC, REAL TIME:     0.74 SEC

 FILE SIZES:   FILE 1:   128.3 MBYTE,  FILE 4:   281.1 MBYTE,   TOTAL:    409.3 MBYTE

 OPERATOR DM      FOR CENTER  0  COORDINATES:    0.000000    0.000000    0.000000


 **********************************************************************************************************************************
 DATASETS  * FILE   NREC   LENGTH (MB)   RECORD NAMES
              1      19      116.03       500      610      700      900      950      970     1000      129      960     1100   
                                          VAR    BASINP    GEOM    SYMINP    ZMAT    AOBASIS   BASIS     P2S    ABASIS      S 
                                         1400     1410     1200     1210     1080     1600     1650     1300     1700   
                                           T        V       H0       H01     AOSYM     SMH    MOLCAS    ERIS     OPER   

 PROGRAMS   *        TOTAL       INT
 CPU TIMES  *         3.86      3.72
 REAL TIME  *         4.86 SEC
 DISK USED  *       409.85 MB      
 **********************************************************************************************************************************

 Density functional group B3LYP=B88+DIRAC+LYP+VWN5
 Functional: B88(Automatically generated (new) B88)                            Gradient terms: 1
 Functional: DIRAC(Automatically generated (new) DIRAC)                        Gradient terms: 0
 Functional: LYP(Automatically generated (new) LYP)                            Gradient terms: 1
 Functional: VWN5(Automatically generated (new) VWN5)                          Gradient terms: 0
 Use grid at  1800.2


 Exact exchange will be calculated, factor:  0.2000

 Functional: B88                       Factor:  0.7200
 Functional: DIRAC                     Factor:  0.0800
 Functional: LYP                       Factor:  0.8100
 Functional: VWN5                      Factor:  0.1900

 Generated new metagrid on record  1800.2 with target accuracy 1.0D-06 and 52852 points in CPU time    1.3
 Computed new grid on record 1800.1 in CPU time    1.4
   99539 words reserved for DFT integration

 PROGRAM * UKS-SCF (Unrestricted Kohn-Sham)     Authors: W. Meyer, H.-J. Werner, P.J. Knowles, 1993

 NUMBER OF ELECTRONS:      21+   21-    SPACE SYMMETRY=1    SPIN SYMMETRY: Singlet 
 CONVERGENCE THRESHOLDS:    1.00E-05 (Density)    1.00E-06 (Energy)
 MAX. NUMBER OF ITERATIONS:       60
 INTERPOLATION TYPE:            DIIS
 INTERPOLATION STEPS:              2 (START)      1 (STEP)
 LEVEL SHIFTS:                 -0.20 (ALPHA)  -0.20 (BETA) 



 Use fine grid record 1800.2 for energy threshold  1.0D-06
 Orbital guess generated from atomic densities. Full valence occupancy:   21

 Molecular orbital dump at record        2200.2

 Initial alpha occupation  21
 Initial beta  occupation  21

 ITERATION    DDIFF          GRAD             ENERGY        2-EL.EN.            DIPOLE MOMENTS         DIIS
    1      0.000D+00      0.000D+00      -233.16636549    615.353807    0.48530   -0.74559    0.26873    0
    2      0.993D-02      0.459D-02      -233.31251390    598.872547    0.19963   -0.33867    0.08511    1
    3      0.295D-02      0.191D-02      -233.33336218    602.785335    0.27728   -0.42485    0.15388    2
    4      0.822D-03      0.329D-03      -233.33424090    602.501711    0.25906   -0.38667    0.14002    3
    5      0.658D-03      0.156D-03      -233.33457163    602.428504    0.25812   -0.38246    0.13811    4
    6      0.379D-03      0.459D-04      -233.33462080    602.387817    0.25721   -0.37587    0.13626    5
    7      0.772D-04      0.107D-04      -233.33462302    602.383870    0.25696   -0.37621    0.13487    6
    8      0.213D-04      0.485D-05      -233.33462331    602.382961    0.25714   -0.37578    0.13472    7
    9      0.956D-05      0.126D-05      -233.33462335    602.382692    0.25710   -0.37573    0.13469    7
   10      0.274D-05      0.388D-06      -233.33462335    602.383414    0.25711   -0.37575    0.13462    7

 Final alpha occupancy:  21
 Final beta  occupancy:  21

 !UKS STATE 1.1 Energy               -233.334623351298
 Nuclear energy                       195.74983609
 One-electron energy                 -702.91180157
 Two-electron energy                  301.19170676
 Density functional                   -27.36436464     B88=-32.50949864 DIRAC=-29.29554397 LYP= -1.36987491 VWN5= -2.65412328
 Virial quotient                       -1.01046489
 !UKS STATE 1.1 Dipole moment           0.25711393    -0.37574524     0.13461916
 Dipole moment /Debye                   0.65347562    -0.95498658     0.34214536

 Orbital energies for positive spin:

         1.1          2.1          3.1          4.1          5.1          6.1          7.1          8.1          9.1         10.1
    -19.120098   -10.228715   -10.222216   -10.173148   -10.169980    -1.009465    -0.768846    -0.681863    -0.660640    -0.567131

        11.1         12.1         13.1         14.1         15.1         16.1         17.1         18.1         19.1         20.1
     -0.490844    -0.459026    -0.450870    -0.420117    -0.392396    -0.384468    -0.374298    -0.349033    -0.341283    -0.302348

        21.1         22.1         23.1
     -0.249194     0.057169     0.085600

 Orbital energies for negative spin:

         1.1          2.1          3.1          4.1          5.1          6.1          7.1          8.1          9.1         10.1
    -19.120097   -10.228715   -10.222215   -10.173148   -10.169979    -1.009464    -0.768846    -0.681862    -0.660639    -0.567130

        11.1         12.1         13.1         14.1         15.1         16.1         17.1         18.1         19.1         20.1
     -0.490843    -0.459026    -0.450869    -0.420117    -0.392396    -0.384468    -0.374298    -0.349033    -0.341283    -0.302347

        21.1         22.1         23.1
     -0.249193     0.057169     0.085600

 HOMO    -21.1    -0.249193 =      -6.7809eV
 LUMO    -22.1     0.057169 =       1.5556eV
 LUMO-HOMO         0.306362 =       8.3365eV

 EXPECTATION VALUE OF S**2:             0.00000000

 Occupation number threshold for canonical orbitals:  1.999000 (occupied),  0.001000 (virtual)

 Number of pseudo-canonical orbitals per symmetry:   21
 Number of active natural orbitals per symmetry:      0

 Natural orbitals saved to record    2200.2 (Orbital set 3)

 Orbital spaces for UNO-CAS (Min. occupation: 0.020  Max. occupation: 1.980):

 Closed:       21
 Active:        0


 **********************************************************************************************************************************
 DATASETS  * FILE   NREC   LENGTH (MB)   RECORD NAMES
              1      20      117.72       500      610      700      900      950      970     1000      129      960     1100   
                                          VAR    BASINP    GEOM    SYMINP    ZMAT    AOBASIS   BASIS     P2S    ABASIS      S 
                                         1400     1410     1200     1210     1080     1600     1650     1300     1700     1800   
                                           T        V       H0       H01     AOSYM     SMH    MOLCAS    ERIS     OPER     GRID   

              2       5        3.59       700     1000      520     1800     2200   
                                         GEOM     BASIS   MCVARS    GRID      UKS  

 PROGRAMS   *        TOTAL       UKS       INT
 CPU TIMES  *        26.61     22.75      3.72
 REAL TIME  *        28.41 SEC
 DISK USED  *       409.85 MB      
 **********************************************************************************************************************************


 PROGRAM * Intrinsic Basis Bonding Analysis (IBBA)          Author: G. Knizia

 Molecular orbitals read from record     2200.2  Type=UKS/ALPHA (state 1.1)
 Fock matrix read from record            2200.2  Type=UKS/TOTAL (state 1.1)
 Orbital energies read from record       2200.2  Type=UKS/ALPHA (state 1.1)
 Density matrix read from record         2200.2  Type=UKS/CHARGE (state 1.1)

 Number of core orbitals:           5 (   5 )
 Number of closed-shell orbitals:  16 (  16 )

 Basis set MINAO-AUTO-PP generated.      Number of basis functions:   35 

 Polarized AO type:                A = (O Ot + (1-O)(1-Ot)) P12
 Orthogonalization method:         Symmetric (Loewdin)
 Localization functional:          L = sum[A,i] <i|n_A|i>^4 -> max

 Localization group 1:  21 orbitals, occupancy  2.000
 Iterative localization: IB/PM,    7 iter; Final gradient 0.26E-08

 Bond order analysis:       [THRPRINT= 0.020]

   CEN ATOM   CEN ATOM     WIBERG.BO      RENORM.BO
     1   O  -   2   C       0.988926       1.018347
     1   O  -   5   C       0.946285       0.963682
     1   O  -   4   H       0.033723       0.019829
     1   O  -  15   H       0.032341       0.019171
     1   O  -   7   C       0.029885       0.015555
     1   O  -   6   H       0.025226       0.015005

     2   C  -   1   O       0.988926       1.018347
     2   C  -   3   H       0.959334       0.978066
     2   C  -  15   H       0.950846       0.938168
     2   C  -   4   H       0.950830       0.937529

     3   H  -   2   C       0.959334       0.978066

     4   H  -   2   C       0.950830       0.937529
     4   H  -   1   O       0.033723       0.019829

     5   C  -   8   C       1.012657       1.005885
     5   C  -   7   C       1.004794       0.980667
     5   C  -   1   O       0.946285       0.963682
     5   C  -   6   H       0.927652       0.918807

     6   H  -   5   C       0.927652       0.918807
     6   H  -   1   O       0.025226       0.015005

     7   C  -   5   C       1.004794       0.980667
     7   C  -  14   H       0.964140       0.983997
     7   C  -  12   H       0.962174       0.986302
     7   C  -  13   H       0.961067       0.979451
     7   C  -   1   O       0.029885       0.015555

     8   C  -   5   C       1.012657       1.005885
     8   C  -   9   H       0.964649       0.987346
     8   C  -  10   H       0.961849       0.984156
     8   C  -  11   H       0.960483       0.979626

     9   H  -   8   C       0.964649       0.987346

    10   H  -   8   C       0.961849       0.984156

    11   H  -   8   C       0.960483       0.979626

    12   H  -   7   C       0.962174       0.986302

    13   H  -   7   C       0.961067       0.979451

    14   H  -   7   C       0.964140       0.983997

    15   H  -   2   C       0.950846       0.938168
    15   H  -   1   O       0.032341       0.019171


 Valency analysis:

   CEN ATOM   TOT.VALENCE
     1   O       2.108991
     2   C       3.870675
     3   H       0.979353
     4   H       0.988579
     5   C       3.917446
     6   H       0.990675
     7   C       3.943399
     8   C       3.942233
     9   H       0.984124
    10   H       0.981505
    11   H       0.982691
    12   H       0.983164
    13   H       0.982888
    14   H       0.984233
    15   H       0.988682

 Total charge composition:

   CEN ATOM         s          p       ELECTRONS ->P.CHARGE
     1   O       3.59602    4.79961      8.39563   -0.39563
     2   C       3.01244    3.15873      6.17117   -0.17117
     3   H       0.85631                 0.85631    0.14369
     4   H       0.89313                 0.89313    0.10687
     5   C       2.95110    2.92847      5.87958    0.12042
     6   H       0.90344                 0.90344    0.09656
     7   C       3.02258    3.37844      6.40102   -0.40102
     8   C       3.02021    3.36559      6.38580   -0.38580
     9   H       0.87400                 0.87400    0.12600
    10   H       0.86400                 0.86400    0.13600
    11   H       0.86843                 0.86843    0.13157
    12   H       0.87025                 0.87025    0.12975
    13   H       0.86919                 0.86919    0.13081
    14   H       0.87443                 0.87443    0.12557
    15   H       0.89361                 0.89361    0.10639

 Total charge composition, AO contributions:

   CEN ATOM SHL      SPHERICAL COMPONENTS
     1   O  1s       1.99718
     1   O  2s       1.59884
     1   O  2p       1.38953    1.52470    1.88538

     2   C  1s       1.99174
     2   C  2s       1.02070
     2   C  2p       0.83390    1.17822    1.14660

     3   H  1s       0.85631

     4   H  1s       0.89313

     5   C  1s       1.99233
     5   C  2s       0.95877
     5   C  2p       1.00986    0.83327    1.08534

     6   H  1s       0.90344

     7   C  1s       1.99110
     7   C  2s       1.03147
     7   C  2p       1.15165    1.11919    1.10759

     8   C  1s       1.99103
     8   C  2s       1.02919
     8   C  2p       1.04666    1.15395    1.16498

     9   H  1s       0.87400

    10   H  1s       0.86400

    11   H  1s       0.86843

    12   H  1s       0.87025

    13   H  1s       0.86919

    14   H  1s       0.87443

    15   H  1s       0.89361

 Summary of localized orbital composition:   [THRPRINT= 0.020]

   ORB  GRP  ORB.ENERGY      CENTERS/CHARGES
     1   1   -18.976972      O  1   2.000
     2   1   -10.130861      C  5   2.000
     3   1   -10.113342      C  2   2.000
     4   1   -10.059058      C  7   2.000
     5   1   -10.055131      C  8   2.000
     6   1    -0.753817      O  1   1.251   C  2   0.741
     7   1    -0.735819      O  1   1.269   C  5   0.713
     8   1    -0.572638      C  5   0.996   C  8   0.991
     9   1    -0.571236      C  7   1.006   C  5   0.986
    10   1    -0.534065      O  1   1.962   (other: 0.038)
    11   1    -0.515716      C  2   1.125   H  4   0.873
    12   1    -0.515140      C  2   1.124   H 15   0.874
    13   1    -0.513958      C  2   1.144   H  3   0.849
    14   1    -0.510541      C  5   1.102   H  6   0.879
    15   1    -0.498123      C  7   1.122   H 12   0.862
    16   1    -0.496285      C  7   1.122   H 14   0.867
    17   1    -0.495212      C  8   1.119   H  9   0.867
    18   1    -0.491986      C  7   1.128   H 13   0.862
    19   1    -0.488878      C  8   1.128   H 11   0.861
    20   1    -0.488627      C  8   1.132   H 10   0.857
    21   1    -0.298354      O  1   1.909   (other: 0.091)

 Localized orbitals saved to record      2200.2  (orbital set 4)


 **********************************************************************************************************************************
 DATASETS  * FILE   NREC   LENGTH (MB)   RECORD NAMES
              1      20      117.72       500      610      700      900      950      970     1000      129      960     1100   
                                          VAR    BASINP    GEOM    SYMINP    ZMAT    AOBASIS   BASIS     P2S    ABASIS      S 
                                         1400     1410     1200     1210     1080     1600     1650     1300     1700     1800   
                                           T        V       H0       H01     AOSYM     SMH    MOLCAS    ERIS     OPER     GRID   

              2       5        3.71       700     1000      520     1800     2200   
                                         GEOM     BASIS   MCVARS    GRID      UKS  

 PROGRAMS   *        TOTAL      IBBA       UKS       INT
 CPU TIMES  *        26.66      0.05     22.75      3.72
 REAL TIME  *        28.55 SEC
 DISK USED  *       409.85 MB      
 **********************************************************************************************************************************
 Molecular orbitals read from record     2200.2  Type=UKS/LOCAL(IBO)  
 Occupation numbers read from record     2200.2  Type=UKS/LOCAL(IBO)  
 Orbital energies read from record       2200.2  Type=UKS/LOCAL(IBO)  
 Redundancy group numbers read from rec  2200.2  Type=UKS/BETA (state 1.1)

 IBBA/SVP energy=      0.000000000000

        UKS-SCF 
   -233.33462335
 **********************************************************************************************************************************
 Molpro calculation terminated
