
 Primary working directories    : /tmp/sb13343
 Secondary working directories  : /tmp/sb13343
 Wavefunction directory         : /panfs/panasas01/chem/sb13343/wfu/
 Main file repository           : /tmp/sb13343/

 SHA1      : b4a5b34a9e711420743f49e6833241d17c61fb3c
 NAME      : 2099.9.b4a5b34
 ARCHNAME  : linux/x86_64_openmp
 FC        : /cm/shared/languages/GCC-6.1/bin/gfortran
 BLASLIB   : -lblas
 id        : simonbennie

 Nodes     nprocs
 node32-013    1

 Using customized tuning parameters: mindgm=1; mindgv=20; mindgc=4; mindgr=1; noblas=0; minvec=7
 default implementation of scratch files=df  

 memory,500,m
 geomtyp=xyz
 nosym
 noorient
 geometry={
 O          0.25818        0.93788        0.04074
 C          1.63656        1.04230        0.32330
 H          1.89907        2.10041        0.23555
 H          2.26234        0.47024       -0.37847
 C         -0.29581       -0.36510        0.22961
 H          0.07373       -0.77023        1.18842
 C          0.09996       -1.32219       -0.89979
 C         -1.80707       -0.17660        0.31883
 H         -2.30941       -1.13436        0.49338
 H         -2.05917        0.50650        1.13581
 H         -2.19015        0.25071       -0.61475
 H         -0.34617       -2.31074       -0.74107
 H         -0.25158       -0.93408       -1.86253
 H          1.18531       -1.45552       -0.96063
 H          1.86878        0.70360        1.34661
 }
 basis={ default,svp }
 {ks,BH-LYP,direct;wf,42,1,0}
 {ibba,bonds=1}

 Variables initialized (895), CPU time= 0.01 sec
 Commands  initialized (725), CPU time= 0.01 sec, 591 directives.
 Default parameters read. Elapsed time= 0.09 sec

 Checking input...
 Passed
1


                                         ***  PROGRAM SYSTEM MOLPRO  ***
                                       Copyright, TTI GmbH Stuttgart, 2015
                                    Version 2099.9 linked May 26 2017 16:03:21


 **********************************************************************************************************************************
 LABEL *                                                                                 
  64 bit serial version                                                                  DATE: 07-Jun-17          TIME: 21:56:50  
 **********************************************************************************************************************************

 SHA1:             b4a5b34a9e711420743f49e6833241d17c61fb3c
 **********************************************************************************************************************************
 SETTING GEOMTYP        =    XYZ

 Variable memory set to  500000000 words,  buffer space 

 ZSYMEL=NOSYM

 SETTING BASIS          =    SVP


 Recomputing integrals since basis changed


 Using spherical harmonics

 Library entry O      S def2-SVP             selected for orbital group  1
 Library entry O      P def2-SVP             selected for orbital group  1
 Library entry O      D def2-SVP             selected for orbital group  1
 Library entry C      S def2-SVP             selected for orbital group  2
 Library entry C      P def2-SVP             selected for orbital group  2
 Library entry C      D def2-SVP             selected for orbital group  2
 Library entry H      S def2-SVP             selected for orbital group  3
 Library entry H      P def2-SVP             selected for orbital group  3


 PROGRAM * SEWARD (Integral evaluation for generally contracted gaussian basis sets)     Author: Roland Lindh, 1990

 Geometry written to block  1 of record 700


 Point group  C1  



 ATOMIC COORDINATES

 NR  ATOM    CHARGE       X              Y              Z

   1  O       8.00    0.487889491    1.772336338    0.076987442
   2  C       6.00    3.092650186    1.969661540    0.610948456
   3  H       1.00    3.588722191    3.969199649    0.445124989
   4  H       1.00    4.275203001    0.888624813   -0.715204646
   5  C       6.00   -0.558999885   -0.689939008    0.433900015
   6  H       1.00    0.139329507   -1.455523753    2.245788321
   7  C       6.00    0.188897023   -2.498576985   -1.700356670
   8  C       6.00   -3.414867388   -0.333725634    0.602501380
   9  H       1.00   -4.364152409   -2.143629727    0.932353075
  10  H       1.00   -3.891267344    0.957146282    2.146369830
  11  H       1.00   -4.138783672    0.473773237   -1.161709135
  12  H       1.00   -0.654166493   -4.366665745   -1.400419339
  13  H       1.00   -0.475417298   -1.765155378   -3.519671599
  14  H       1.00    2.239911273   -2.750534169   -1.815327607
  15  H       1.00    3.531482387    1.329611301    2.544724097

 Bond lengths in Bohr (Angstrom)

  1- 2  2.666238902   1- 5  2.699289504   2- 3  2.066818209   2- 4  2.079844613   2-15  2.083680934
       ( 1.410912866)       ( 1.428402491)       ( 1.093713095)       ( 1.100606371)       ( 1.102636465)

  5- 6  2.087276497   5- 7  2.895785336   5- 8  2.882931422   7-12  2.071345966   7-13  2.071020903
       ( 1.104539155)       ( 1.532383608)       ( 1.525581609)       ( 1.096109081)       ( 1.095937065)

  7-14  2.069628032   8- 9  2.070192508   8-10  2.068051501   8-11  2.070880961
       ( 1.095199989)       ( 1.095498697)       ( 1.094365725)       ( 1.095863011)

 Bond angles

  1- 2- 3  106.85884507   1- 2- 4  112.91125973   1- 2-15  111.64621834   1- 5- 6  108.63888518

  1-5-7  111.84608248   1-5-8  106.21369660   2-1-5  114.82992588   3-2-4  108.37425913

  3- 2-15  108.72850466   4- 2-15  108.20064699   5- 7-12  110.57572754   5- 7-13  110.08520206

  5- 7-14  111.89623115   5- 8- 9  110.82645738   5- 8-10  110.42517473   5- 8-11  110.16013005

  6- 5- 7  108.92239636   6- 5- 8  109.02480146   7- 5- 8  112.09364518   9- 8-10  108.73162751

  9- 8-11  108.44218100  10- 8-11  108.18344616  12- 7-13  108.42317703  12- 7-14  107.55382926

 13- 7-14  108.19151953

 NUCLEAR CHARGE:                   42
 NUMBER OF PRIMITIVE AOS:         195
 NUMBER OF SYMMETRY AOS:          190
 NUMBER OF CONTRACTIONS:          120   ( 120A   )
 NUMBER OF CORE ORBITALS:           5   (   5A   )
 NUMBER OF VALENCE ORBITALS:       30   (  30A   )


 NUCLEAR REPULSION ENERGY  195.74983609


 Eigenvalues of metric

         1 0.241E-02 0.514E-02 0.104E-01 0.150E-01 0.214E-01 0.243E-01 0.289E-01 0.305E-01


 Contracted 2-electron integrals neglected if value below      1.0D-11
 AO integral compression algorithm  1   Integral accuracy      1.0D-11

     97.518 MB (compressed) written to integral file ( 44.4%)


 NUMBER OF SORTED TWO-ELECTRON INTEGRALS:   26357430.     BUFFER LENGTH:  32768
 NUMBER OF SEGMENTS:   2  SEGMENT LENGTH:   15997996      RECORD LENGTH: 524288

 Memory used in sort:      16.56 MW

 SORT1 READ    27501115. AND WROTE    22923365. INTEGRALS IN     67 RECORDS. CPU TIME:     0.33 SEC, REAL TIME:     0.60 SEC
 SORT2 READ    22923365. AND WROTE    26357430. INTEGRALS IN    372 RECORDS. CPU TIME:     0.56 SEC, REAL TIME:     0.68 SEC

 FILE SIZES:   FILE 1:   128.3 MBYTE,  FILE 4:   281.1 MBYTE,   TOTAL:    409.3 MBYTE

 OPERATOR DM      FOR CENTER  0  COORDINATES:    0.000000    0.000000    0.000000


 **********************************************************************************************************************************
 DATASETS  * FILE   NREC   LENGTH (MB)   RECORD NAMES
              1      19      116.03       500      610      700      900      950      970     1000      129      960     1100   
                                          VAR    BASINP    GEOM    SYMINP    ZMAT    AOBASIS   BASIS     P2S    ABASIS      S 
                                         1400     1410     1200     1210     1080     1600     1650     1300     1700   
                                           T        V       H0       H01     AOSYM     SMH    MOLCAS    ERIS     OPER   

 PROGRAMS   *        TOTAL       INT
 CPU TIMES  *         3.66      3.53
 REAL TIME  *         4.59 SEC
 DISK USED  *       409.85 MB      
 **********************************************************************************************************************************

 Density functional group BH-LYP=B88+LYP
 Functional: B88(Automatically generated (new) B88)                            Gradient terms: 1
 Functional: LYP(Automatically generated (new) LYP)                            Gradient terms: 1
 Use grid at  1800.2


 Exact exchange will be calculated, factor:  0.5000

 Functional: B88                       Factor:  0.5000
 Functional: LYP                       Factor:  1.0000

 Generated new metagrid on record  1800.2 with target accuracy 1.0D-06 and 52852 points in CPU time    1.3
 Computed new grid on record 1800.1 in CPU time    1.4
   99539 words reserved for DFT integration

 PROGRAM * RKS-SCF (Restricted closed shell Kohn-Sham)     Authors: W. Meyer, H.-J. Werner, P.J. Knowles, 1993

 NUMBER OF ELECTRONS:      21+   21-    SPACE SYMMETRY=1    SPIN SYMMETRY: Singlet 
 CONVERGENCE THRESHOLDS:    1.00E-05 (Density)    1.00E-06 (Energy)
 MAX. NUMBER OF ITERATIONS:       60
 INTERPOLATION TYPE:            DIIS
 INTERPOLATION STEPS:              2 (START)      1 (STEP)
 LEVEL SHIFTS:                  0.00 (CLOSED)  0.00 (OPEN) 



 Use fine grid record 1800.2 for energy threshold  1.0D-06
 Orbital guess generated from atomic densities. Full valence occupancy:   21

 Molecular orbital dump at record        2100.2

 Initial occupancy:  21

 ITERATION    DDIFF          GRAD             ENERGY        2-EL.EN.            DIPOLE MOMENTS         DIIS   ORB.
    1      0.000D+00      0.000D+00      -233.24850415    591.062046    0.47459   -0.76795    0.26402    0    start
    2      0.000D+00      0.631D-02      -233.28403241    575.762636    0.09492   -0.13862    0.01329    1    diag
    3      0.107D-01      0.533D-02      -233.33900027    583.044352    0.30501   -0.44891    0.17352    2    diag
    4      0.516D-02      0.656D-03      -233.33952882    582.784027    0.27804   -0.40073    0.14606    3    diag
    5      0.631D-03      0.325D-03      -233.33971375    582.774021    0.28407   -0.41975    0.14820    4    diag
    6      0.278D-03      0.453D-04      -233.33971740    582.794209    0.28452   -0.41681    0.15005    5    diag
    7      0.491D-04      0.132D-04      -233.33971773    582.790737    0.28439   -0.41709    0.14990    6    diag
    8      0.122D-04      0.232D-05      -233.33971775    582.791609    0.28441   -0.41707    0.14972    7    diag
    9      0.292D-05      0.338D-06      -233.33971775    582.791400    0.28440   -0.41706    0.14978    0    orth

 Final occupancy:  21

 !RKS STATE 1.1 Energy               -233.339717746645
 Nuclear energy                       195.74983609
 One-electron energy                 -702.85797174
 Two-electron energy                  291.39569994
 SCF exchange energy                  -32.50021099     Factor= 0.5000
 Density functional                   -17.62728204     B88=-32.51571479 LYP= -1.36942465
 Virial quotient                       -1.01038501
 !RKS STATE 1.1 Dipole moment           0.28440455    -0.41706138     0.14978424
 Dipole moment /Debye                   0.72283691    -1.05999486     0.38068863

 Orbital energies:

         1.1          2.1          3.1          4.1          5.1          6.1          7.1          8.1          9.1         10.1
    -19.670833   -10.639785   -10.633325   -10.582341   -10.578564    -1.146300    -0.880209    -0.784882    -0.760746    -0.657831

        11.1         12.1         13.1         14.1         15.1         16.1         17.1         18.1         19.1         20.1
     -0.566675    -0.534705    -0.528642    -0.492037    -0.460553    -0.452408    -0.440897    -0.414179    -0.406182    -0.370876

        21.1         22.1         23.1
     -0.320864     0.092542     0.121236

 HOMO     21.1    -0.320864 =      -8.7312eV
 LUMO     22.1     0.092542 =       2.5182eV
 LUMO-HOMO         0.413406 =      11.2494eV


 **********************************************************************************************************************************
 DATASETS  * FILE   NREC   LENGTH (MB)   RECORD NAMES
              1      20      117.72       500      610      700      900      950      970     1000      129      960     1100   
                                          VAR    BASINP    GEOM    SYMINP    ZMAT    AOBASIS   BASIS     P2S    ABASIS      S 
                                         1400     1410     1200     1210     1080     1600     1650     1300     1700     1800   
                                           T        V       H0       H01     AOSYM     SMH    MOLCAS    ERIS     OPER     GRID   

              2       5        3.30       700     1000      520     1800     2100   
                                         GEOM     BASIS   MCVARS    GRID      RKS  

 PROGRAMS   *        TOTAL        KS       INT
 CPU TIMES  *        16.74     13.06      3.53
 REAL TIME  *        18.71 SEC
 DISK USED  *       409.85 MB      
 **********************************************************************************************************************************


 PROGRAM * Intrinsic Basis Bonding Analysis (IBBA)          Author: G. Knizia

 Molecular orbitals read from record     2100.2  Type=RKS/CANONICAL (state 1.1)
 Fock matrix read from record            2100.2  Type=RKS/TOTAL (state 1.1)
 Orbital energies read from record       2100.2  Type=RKS/CANONICAL (state 1.1)
 Density matrix read from record         2100.2  Type=RKS/CHARGE (state 1.1)

 Number of core orbitals:           5 (   5 )
 Number of closed-shell orbitals:  16 (  16 )

 Basis set MINAO-AUTO-PP generated.      Number of basis functions:   35 

 Polarized AO type:                A = (O Ot + (1-O)(1-Ot)) P12
 Orthogonalization method:         Symmetric (Loewdin)
 Localization functional:          L = sum[A,i] <i|n_A|i>^4 -> max

 Localization group 1:  21 orbitals, occupancy  2.000
 Iterative localization: IB/PM,    7 iter; Final gradient 0.27E-08

 Bond order analysis:       [THRPRINT= 0.020]

   CEN ATOM   CEN ATOM     WIBERG.BO      RENORM.BO
     1   O  -   2   C       0.979543       1.016425
     1   O  -   5   C       0.940006       0.966975
     1   O  -   4   H       0.029849       0.017445
     1   O  -  15   H       0.028709       0.016923
     1   O  -   7   C       0.026339       0.013671
     1   O  -   6   H       0.022698       0.013432

     2   C  -   1   O       0.979543       1.016425
     2   C  -   3   H       0.961579       0.979897
     2   C  -  15   H       0.955661       0.945606
     2   C  -   4   H       0.955642       0.945039

     3   H  -   2   C       0.961579       0.979897

     4   H  -   2   C       0.955642       0.945039
     4   H  -   1   O       0.029849       0.017445

     5   C  -   8   C       1.011745       1.005940
     5   C  -   7   C       1.004851       0.983521
     5   C  -   1   O       0.940006       0.966975
     5   C  -   6   H       0.933774       0.926331

     6   H  -   5   C       0.933774       0.926331
     6   H  -   1   O       0.022698       0.013432

     7   C  -   5   C       1.004851       0.983521
     7   C  -  14   H       0.966656       0.985816
     7   C  -  12   H       0.965046       0.988228
     7   C  -  13   H       0.963325       0.981647
     7   C  -   1   O       0.026339       0.013671

     8   C  -   5   C       1.011745       1.005940
     8   C  -   9   H       0.967271       0.988601
     8   C  -  10   H       0.963992       0.985848
     8   C  -  11   H       0.962828       0.981814

     9   H  -   8   C       0.967271       0.988601

    10   H  -   8   C       0.963992       0.985848

    11   H  -   8   C       0.962828       0.981814

    12   H  -   7   C       0.965046       0.988228

    13   H  -   7   C       0.963325       0.981647

    14   H  -   7   C       0.966656       0.985816

    15   H  -   2   C       0.955661       0.945606
    15   H  -   1   O       0.028709       0.016923


 Valency analysis:

   CEN ATOM   TOT.VALENCE
     1   O       2.073241
     2   C       3.870664
     3   H       0.979826
     4   H       0.988765
     5   C       3.913979
     6   H       0.990938
     7   C       3.945071
     8   C       3.943808
     9   H       0.984881
    10   H       0.981927
    11   H       0.983074
    12   H       0.983777
    13   H       0.983236
    14   H       0.984802
    15   H       0.988877

 Total charge composition:

   CEN ATOM         s          p       ELECTRONS ->P.CHARGE
     1   O       3.59446    4.82948      8.42394   -0.42394
     2   C       3.01046    3.14284      6.15330   -0.15330
     3   H       0.85796                 0.85796    0.14204
     4   H       0.89401                 0.89401    0.10599
     5   C       2.94984    2.91612      5.86596    0.13404
     6   H       0.90481                 0.90481    0.09519
     7   C       3.02155    3.37246      6.39400   -0.39400
     8   C       3.01935    3.35975      6.37910   -0.37910
     9   H       0.87704                 0.87704    0.12296
    10   H       0.86557                 0.86557    0.13443
    11   H       0.86990                 0.86990    0.13010
    12   H       0.87263                 0.87263    0.12737
    13   H       0.87052                 0.87052    0.12948
    14   H       0.87672                 0.87672    0.12328
    15   H       0.89454                 0.89454    0.10546

 Total charge composition, AO contributions:

   CEN ATOM SHL      SPHERICAL COMPONENTS
     1   O  1s       1.99706
     1   O  2s       1.59740
     1   O  2p       1.39798    1.53451    1.89699

     2   C  1s       1.99136
     2   C  2s       1.01910
     2   C  2p       0.82748    1.17474    1.14062

     3   H  1s       0.85796

     4   H  1s       0.89401

     5   C  1s       1.99195
     5   C  2s       0.95789
     5   C  2p       1.00782    0.82684    1.08146

     6   H  1s       0.90481

     7   C  1s       1.99069
     7   C  2s       1.03086
     7   C  2p       1.14901    1.11731    1.10614

     8   C  1s       1.99062
     8   C  2s       1.02873
     8   C  2p       1.04506    1.15175    1.16294

     9   H  1s       0.87704

    10   H  1s       0.86557

    11   H  1s       0.86990

    12   H  1s       0.87263

    13   H  1s       0.87052

    14   H  1s       0.87672

    15   H  1s       0.89454

 Summary of localized orbital composition:   [THRPRINT= 0.020]

   ORB  GRP  ORB.ENERGY      CENTERS/CHARGES
     1   1   -19.518100      O  1   2.000
     2   1   -10.537863      C  5   2.000
     3   1   -10.519928      C  2   2.000
     4   1   -10.463379      C  7   2.000
     5   1   -10.458836      C  8   2.000
     6   1    -0.853814      O  1   1.257   C  2   0.735
     7   1    -0.836076      O  1   1.276   C  5   0.707
     8   1    -0.657798      C  5   0.997   C  8   0.990
     9   1    -0.656621      C  7   1.006   C  5   0.986
    10   1    -0.637069      O  1   1.966   (other: 0.034)
    11   1    -0.595830      C  2   1.122   H  4   0.876
    12   1    -0.594977      C  2   1.121   H 15   0.877
    13   1    -0.593343      C  2   1.142   H  3   0.851
    14   1    -0.590726      C  5   1.100   H  6   0.883
    15   1    -0.576455      C  7   1.121   H 12   0.866
    16   1    -0.574749      C  7   1.120   H 14   0.870
    17   1    -0.573075      C  8   1.117   H  9   0.871
    18   1    -0.570023      C  7   1.127   H 13   0.864
    19   1    -0.566404      C  8   1.127   H 11   0.863
    20   1    -0.566349      C  8   1.131   H 10   0.859
    21   1    -0.381418      O  1   1.921   (other: 0.079)

 Localized orbitals saved to record      2100.2  (orbital set 2)


 **********************************************************************************************************************************
 DATASETS  * FILE   NREC   LENGTH (MB)   RECORD NAMES
              1      20      117.72       500      610      700      900      950      970     1000      129      960     1100   
                                          VAR    BASINP    GEOM    SYMINP    ZMAT    AOBASIS   BASIS     P2S    ABASIS      S 
                                         1400     1410     1200     1210     1080     1600     1650     1300     1700     1800   
                                           T        V       H0       H01     AOSYM     SMH    MOLCAS    ERIS     OPER     GRID   

              2       5        3.42       700     1000      520     1800     2100   
                                         GEOM     BASIS   MCVARS    GRID      RKS  

 PROGRAMS   *        TOTAL      IBBA        KS       INT
 CPU TIMES  *        16.78      0.05     13.06      3.53
 REAL TIME  *        18.85 SEC
 DISK USED  *       409.85 MB      
 **********************************************************************************************************************************
 Molecular orbitals read from record     2100.2  Type=RKS/LOCAL(IBO)  
 Occupation numbers read from record     2100.2  Type=RKS/LOCAL(IBO)  
 Orbital energies read from record       2100.2  Type=RKS/LOCAL(IBO)  
 Redundancy group numbers read from rec  2100.2  Type=RKS/LOCAL(IBO)  

 IBBA/SVP energy=      0.000000000000

        KS-SCF  
   -233.33971775
 **********************************************************************************************************************************
 Molpro calculation terminated
