
 Primary working directories    : /tmp/sb13343
 Secondary working directories  : /tmp/sb13343
 Wavefunction directory         : /panfs/panasas01/chem/sb13343/wfu/
 Main file repository           : /tmp/sb13343/

 SHA1      : b4a5b34a9e711420743f49e6833241d17c61fb3c
 NAME      : 2099.9.b4a5b34
 ARCHNAME  : linux/x86_64_openmp
 FC        : /cm/shared/languages/GCC-6.1/bin/gfortran
 BLASLIB   : -lblas
 id        : simonbennie

 Nodes     nprocs
 node33-017    1

 Using customized tuning parameters: mindgm=1; mindgv=20; mindgc=4; mindgr=1; noblas=0; minvec=7
 default implementation of scratch files=df  

 memory,500,m
 geomtyp=xyz
 nosym
 noorient
 geometry={
 O          0.25818        0.93788        0.04074
 C          1.63656        1.04230        0.32330
 H          1.89907        2.10041        0.23555
 H          2.26234        0.47024       -0.37847
 C         -0.29581       -0.36510        0.22961
 H          0.07373       -0.77023        1.18842
 C          0.09996       -1.32219       -0.89979
 C         -1.80707       -0.17660        0.31883
 H         -2.30941       -1.13436        0.49338
 H         -2.05917        0.50650        1.13581
 H         -2.19015        0.25071       -0.61475
 H         -0.34617       -2.31074       -0.74107
 H         -0.25158       -0.93408       -1.86253
 H          1.18531       -1.45552       -0.96063
 H          1.86878        0.70360        1.34661
 }
 basis={ default,svp }
 {uks,M11-L,direct;wf,42,1,0}
 {ibba,bonds=1}

 Variables initialized (895), CPU time= 0.00 sec
 Commands  initialized (725), CPU time= 0.02 sec, 591 directives.
 Default parameters read. Elapsed time= 0.09 sec

 Checking input...
 Passed
1


                                         ***  PROGRAM SYSTEM MOLPRO  ***
                                       Copyright, TTI GmbH Stuttgart, 2015
                                    Version 2099.9 linked May 26 2017 16:03:21


 **********************************************************************************************************************************
 LABEL *                                                                                 
  64 bit serial version                                                                  DATE: 07-Jun-17          TIME: 22:06:28  
 **********************************************************************************************************************************

 SHA1:             b4a5b34a9e711420743f49e6833241d17c61fb3c
 **********************************************************************************************************************************
 SETTING GEOMTYP        =    XYZ

 Variable memory set to  500000000 words,  buffer space 

 ZSYMEL=NOSYM

 SETTING BASIS          =    SVP


 Recomputing integrals since basis changed


 Using spherical harmonics

 Library entry O      S def2-SVP             selected for orbital group  1
 Library entry O      P def2-SVP             selected for orbital group  1
 Library entry O      D def2-SVP             selected for orbital group  1
 Library entry C      S def2-SVP             selected for orbital group  2
 Library entry C      P def2-SVP             selected for orbital group  2
 Library entry C      D def2-SVP             selected for orbital group  2
 Library entry H      S def2-SVP             selected for orbital group  3
 Library entry H      P def2-SVP             selected for orbital group  3


 PROGRAM * SEWARD (Integral evaluation for generally contracted gaussian basis sets)     Author: Roland Lindh, 1990

 Geometry written to block  1 of record 700


 Point group  C1  



 ATOMIC COORDINATES

 NR  ATOM    CHARGE       X              Y              Z

   1  O       8.00    0.487889491    1.772336338    0.076987442
   2  C       6.00    3.092650186    1.969661540    0.610948456
   3  H       1.00    3.588722191    3.969199649    0.445124989
   4  H       1.00    4.275203001    0.888624813   -0.715204646
   5  C       6.00   -0.558999885   -0.689939008    0.433900015
   6  H       1.00    0.139329507   -1.455523753    2.245788321
   7  C       6.00    0.188897023   -2.498576985   -1.700356670
   8  C       6.00   -3.414867388   -0.333725634    0.602501380
   9  H       1.00   -4.364152409   -2.143629727    0.932353075
  10  H       1.00   -3.891267344    0.957146282    2.146369830
  11  H       1.00   -4.138783672    0.473773237   -1.161709135
  12  H       1.00   -0.654166493   -4.366665745   -1.400419339
  13  H       1.00   -0.475417298   -1.765155378   -3.519671599
  14  H       1.00    2.239911273   -2.750534169   -1.815327607
  15  H       1.00    3.531482387    1.329611301    2.544724097

 Bond lengths in Bohr (Angstrom)

  1- 2  2.666238902   1- 5  2.699289504   2- 3  2.066818209   2- 4  2.079844613   2-15  2.083680934
       ( 1.410912866)       ( 1.428402491)       ( 1.093713095)       ( 1.100606371)       ( 1.102636465)

  5- 6  2.087276497   5- 7  2.895785336   5- 8  2.882931422   7-12  2.071345966   7-13  2.071020903
       ( 1.104539155)       ( 1.532383608)       ( 1.525581609)       ( 1.096109081)       ( 1.095937065)

  7-14  2.069628032   8- 9  2.070192508   8-10  2.068051501   8-11  2.070880961
       ( 1.095199989)       ( 1.095498697)       ( 1.094365725)       ( 1.095863011)

 Bond angles

  1- 2- 3  106.85884507   1- 2- 4  112.91125973   1- 2-15  111.64621834   1- 5- 6  108.63888518

  1-5-7  111.84608248   1-5-8  106.21369660   2-1-5  114.82992588   3-2-4  108.37425913

  3- 2-15  108.72850466   4- 2-15  108.20064699   5- 7-12  110.57572754   5- 7-13  110.08520206

  5- 7-14  111.89623115   5- 8- 9  110.82645738   5- 8-10  110.42517473   5- 8-11  110.16013005

  6- 5- 7  108.92239636   6- 5- 8  109.02480146   7- 5- 8  112.09364518   9- 8-10  108.73162751

  9- 8-11  108.44218100  10- 8-11  108.18344616  12- 7-13  108.42317703  12- 7-14  107.55382926

 13- 7-14  108.19151953

 NUCLEAR CHARGE:                   42
 NUMBER OF PRIMITIVE AOS:         195
 NUMBER OF SYMMETRY AOS:          190
 NUMBER OF CONTRACTIONS:          120   ( 120A   )
 NUMBER OF CORE ORBITALS:           5   (   5A   )
 NUMBER OF VALENCE ORBITALS:       30   (  30A   )


 NUCLEAR REPULSION ENERGY  195.74983609


 Eigenvalues of metric

         1 0.241E-02 0.514E-02 0.104E-01 0.150E-01 0.214E-01 0.243E-01 0.289E-01 0.305E-01


 Contracted 2-electron integrals neglected if value below      1.0D-11
 AO integral compression algorithm  1   Integral accuracy      1.0D-11

     97.518 MB (compressed) written to integral file ( 44.4%)


 NUMBER OF SORTED TWO-ELECTRON INTEGRALS:   26357430.     BUFFER LENGTH:  32768
 NUMBER OF SEGMENTS:   2  SEGMENT LENGTH:   15997996      RECORD LENGTH: 524288

 Memory used in sort:      16.56 MW

 SORT1 READ    27501115. AND WROTE    22923365. INTEGRALS IN     67 RECORDS. CPU TIME:     0.39 SEC, REAL TIME:     0.73 SEC
 SORT2 READ    22923365. AND WROTE    26357430. INTEGRALS IN    372 RECORDS. CPU TIME:     0.60 SEC, REAL TIME:     0.78 SEC

 FILE SIZES:   FILE 1:   128.3 MBYTE,  FILE 4:   281.1 MBYTE,   TOTAL:    409.3 MBYTE

 OPERATOR DM      FOR CENTER  0  COORDINATES:    0.000000    0.000000    0.000000


 **********************************************************************************************************************************
 DATASETS  * FILE   NREC   LENGTH (MB)   RECORD NAMES
              1      19      116.03       500      610      700      900      950      970     1000      129      960     1100   
                                          VAR    BASINP    GEOM    SYMINP    ZMAT    AOBASIS   BASIS     P2S    ABASIS      S 
                                         1400     1410     1200     1210     1080     1600     1650     1300     1700   
                                           T        V       H0       H01     AOSYM     SMH    MOLCAS    ERIS     OPER   

 PROGRAMS   *        TOTAL       INT
 CPU TIMES  *         4.13      3.98
 REAL TIME  *         7.64 SEC
 DISK USED  *       409.85 MB      
 **********************************************************************************************************************************

 Density functional group M11-L=XC-M11-L
 Functional: XC-M11-L(via MFM 1.6)                                             Gradient terms: 1
 Use grid at  1800.2

 Functional: XC-M11-L                  Factor:  1.0000

 Generated new metagrid on record  1800.2 with target accuracy 1.0D-06 and 52852 points in CPU time    1.4
 Computed new grid on record 1800.1 in CPU time    1.6
   99539 words reserved for DFT integration

 PROGRAM * UKS-SCF (Unrestricted Kohn-Sham)     Authors: W. Meyer, H.-J. Werner, P.J. Knowles, 1993

 NUMBER OF ELECTRONS:      21+   21-    SPACE SYMMETRY=1    SPIN SYMMETRY: Singlet 
 CONVERGENCE THRESHOLDS:    1.00E-05 (Density)    1.00E-06 (Energy)
 MAX. NUMBER OF ITERATIONS:       60
 INTERPOLATION TYPE:            DIIS
 INTERPOLATION STEPS:              2 (START)      1 (STEP)
 LEVEL SHIFTS:                 -0.20 (ALPHA)  -0.20 (BETA) 



 Use fine grid record 1800.2 for energy threshold  1.0D-06
 Orbital guess generated from atomic densities. Full valence occupancy:   21

 Molecular orbital dump at record        2200.2

 Initial alpha occupation  21
 Initial beta  occupation  21

 ITERATION    DDIFF          GRAD             ENERGY        2-EL.EN.            DIPOLE MOMENTS         DIIS
    1      0.000D+00      0.000D+00      -233.15256064    629.440342    0.49786   -0.79366    0.28465    0
    2      0.989D-02      0.493D-02      -233.34500029    611.089501    0.17463   -0.33086    0.06832    1
    3      0.300D-02      0.178D-02      -233.36413812    615.246718    0.25672   -0.42865    0.15172    2
    4      0.812D-03      0.274D-03      -233.36487085    614.830204    0.23256   -0.38812    0.13220    3
    5      0.460D-03      0.134D-03      -233.36509156    614.809475    0.23406   -0.38879    0.13234    4
    6      0.400D-03      0.506D-04      -233.36514821    614.753203    0.23142   -0.37876    0.12982    5
    7      0.737D-04      0.145D-04      -233.36515078    614.746340    0.23082   -0.37919    0.12834    6
    8      0.294D-04      0.609D-05      -233.36515122    614.749533    0.23077   -0.37857    0.12775    7
    9      0.118D-04      0.126D-05      -233.36515126    614.748521    0.23074   -0.37845    0.12781    7
   10      0.284D-05      0.387D-06      -233.36515126    614.748723    0.23071   -0.37845    0.12763    7
   11      0.636D-06      0.117D-06      -233.36515126    614.748832    0.23071   -0.37845    0.12764    7

 Final alpha occupancy:  21
 Final beta  occupancy:  21

 !UKS STATE 1.1 Energy               -233.365151259152
 Nuclear energy                       195.74983609
 One-electron energy                 -702.54917961
 Two-electron energy                  307.37441583
 Density functional                   -33.94022358     XC-M11-L=-33.94022358
 Virial quotient                       -1.00656821
 !UKS STATE 1.1 Dipole moment           0.23071390    -0.37844866     0.12764360
 Dipole moment /Debye                   0.58637783    -0.96185754     0.32441641

 Orbital energies for positive spin:

         1.1          2.1          3.1          4.1          5.1          6.1          7.1          8.1          9.1         10.1
    -19.380922   -10.417436   -10.404380   -10.355587   -10.352667    -1.035891    -0.755550    -0.663375    -0.643352    -0.547379

        11.1         12.1         13.1         14.1         15.1         16.1         17.1         18.1         19.1         20.1
     -0.467124    -0.434528    -0.425926    -0.392558    -0.367731    -0.360776    -0.352089    -0.328989    -0.319870    -0.288763

        21.1         22.1         23.1
     -0.237696     0.019872     0.049143

 Orbital energies for negative spin:

         1.1          2.1          3.1          4.1          5.1          6.1          7.1          8.1          9.1         10.1
    -19.380921   -10.417436   -10.404380   -10.355587   -10.352667    -1.035890    -0.755550    -0.663375    -0.643352    -0.547379

        11.1         12.1         13.1         14.1         15.1         16.1         17.1         18.1         19.1         20.1
     -0.467124    -0.434528    -0.425926    -0.392558    -0.367731    -0.360776    -0.352088    -0.328989    -0.319870    -0.288763

        21.1         22.1         23.1
     -0.237696     0.019872     0.049143

 HOMO    -21.1    -0.237696 =      -6.4680eV
 LUMO     22.1     0.019872 =       0.5407eV
 LUMO-HOMO         0.257567 =       7.0088eV

 EXPECTATION VALUE OF S**2:             0.00000000

 Occupation number threshold for canonical orbitals:  1.999000 (occupied),  0.001000 (virtual)

 Number of pseudo-canonical orbitals per symmetry:   21
 Number of active natural orbitals per symmetry:      0

 Natural orbitals saved to record    2200.2 (Orbital set 3)

 Orbital spaces for UNO-CAS (Min. occupation: 0.020  Max. occupation: 1.980):

 Closed:       21
 Active:        0


 **********************************************************************************************************************************
 DATASETS  * FILE   NREC   LENGTH (MB)   RECORD NAMES
              1      20      117.72       500      610      700      900      950      970     1000      129      960     1100   
                                          VAR    BASINP    GEOM    SYMINP    ZMAT    AOBASIS   BASIS     P2S    ABASIS      S 
                                         1400     1410     1200     1210     1080     1600     1650     1300     1700     1800   
                                           T        V       H0       H01     AOSYM     SMH    MOLCAS    ERIS     OPER     GRID   

              2       5        3.59       700     1000      520     1800     2200   
                                         GEOM     BASIS   MCVARS    GRID      UKS  

 PROGRAMS   *        TOTAL       UKS       INT
 CPU TIMES  *        65.24     61.10      3.98
 REAL TIME  *        70.12 SEC
 DISK USED  *       409.85 MB      
 **********************************************************************************************************************************


 PROGRAM * Intrinsic Basis Bonding Analysis (IBBA)          Author: G. Knizia

 Molecular orbitals read from record     2200.2  Type=UKS/ALPHA (state 1.1)
 Fock matrix read from record            2200.2  Type=UKS/TOTAL (state 1.1)
 Orbital energies read from record       2200.2  Type=UKS/ALPHA (state 1.1)
 Density matrix read from record         2200.2  Type=UKS/CHARGE (state 1.1)

 Number of core orbitals:           5 (   5 )
 Number of closed-shell orbitals:  16 (  16 )

 Basis set MINAO-AUTO-PP generated.      Number of basis functions:   35 

 Polarized AO type:                A = (O Ot + (1-O)(1-Ot)) P12
 Orthogonalization method:         Symmetric (Loewdin)
 Localization functional:          L = sum[A,i] <i|n_A|i>^4 -> max

 Localization group 1:  21 orbitals, occupancy  2.000
 Iterative localization: IB/PM,    7 iter; Final gradient 0.26E-08

 Bond order analysis:       [THRPRINT= 0.020]

   CEN ATOM   CEN ATOM     WIBERG.BO      RENORM.BO
     1   O  -   2   C       0.983138       1.019982
     1   O  -   5   C       0.934611       0.958225
     1   O  -   4   H       0.035233       0.020839
     1   O  -  15   H       0.033602       0.020077
     1   O  -   7   C       0.030095       0.015559
     1   O  -   6   H       0.026639       0.015911

     2   C  -   1   O       0.983138       1.019982
     2   C  -   3   H       0.957736       0.975834
     2   C  -  15   H       0.949608       0.935103
     2   C  -   4   H       0.949503       0.933896

     3   H  -   2   C       0.957736       0.975834

     4   H  -   2   C       0.949503       0.933896
     4   H  -   1   O       0.035233       0.020839

     5   C  -   8   C       1.018448       1.009787
     5   C  -   7   C       1.010180       0.984239
     5   C  -   1   O       0.934611       0.958225
     5   C  -   6   H       0.921502       0.908537

     6   H  -   5   C       0.921502       0.908537
     6   H  -   1   O       0.026639       0.015911

     7   C  -   5   C       1.010180       0.984239
     7   C  -  14   H       0.961742       0.982106
     7   C  -  12   H       0.960065       0.985708
     7   C  -  13   H       0.957824       0.976822
     7   C  -   1   O       0.030095       0.015559

     8   C  -   5   C       1.018448       1.009787
     8   C  -   9   H       0.962971       0.988031
     8   C  -  10   H       0.958781       0.982521
     8   C  -  11   H       0.956985       0.977021

     9   H  -   8   C       0.962971       0.988031

    10   H  -   8   C       0.958781       0.982521

    11   H  -   8   C       0.956985       0.977021

    12   H  -   7   C       0.960065       0.985708

    13   H  -   7   C       0.957824       0.976822

    14   H  -   7   C       0.961742       0.982106

    15   H  -   2   C       0.949608       0.935103
    15   H  -   1   O       0.033602       0.020077


 Valency analysis:

   CEN ATOM   TOT.VALENCE
     1   O       2.096215
     2   C       3.862509
     3   H       0.978099
     4   H       0.988355
     5   C       3.911678
     6   H       0.991752
     7   C       3.943178
     8   C       3.941475
     9   H       0.981897
    10   H       0.979065
    11   H       0.980595
    12   H       0.981079
    13   H       0.980983
    14   H       0.982426
    15   H       0.988305

 Total charge composition:

   CEN ATOM         s          p       ELECTRONS ->P.CHARGE
     1   O       3.64110    4.78366      8.42476   -0.42476
     2   C       3.04541    3.12066      6.16607   -0.16607
     3   H       0.85201                 0.85201    0.14799
     4   H       0.89209                 0.89209    0.10791
     5   C       2.97545    2.87309      5.84854    0.15146
     6   H       0.90918                 0.90918    0.09082
     7   C       3.06156    3.36587      6.42743   -0.42743
     8   C       3.05931    3.35531      6.41462   -0.41462
     9   H       0.86545                 0.86545    0.13455
    10   H       0.85531                 0.85531    0.14469
    11   H       0.86070                 0.86070    0.13930
    12   H       0.86245                 0.86245    0.13755
    13   H       0.86210                 0.86210    0.13790
    14   H       0.86743                 0.86743    0.13257
    15   H       0.89186                 0.89186    0.10814

 Total charge composition, AO contributions:

   CEN ATOM SHL      SPHERICAL COMPONENTS
     1   O  1s       1.99671
     1   O  2s       1.64440
     1   O  2p       1.38696    1.51697    1.87973

     2   C  1s       1.98960
     2   C  2s       1.05581
     2   C  2p       0.81624    1.16913    1.13528

     3   H  1s       0.85201

     4   H  1s       0.89209

     5   C  1s       1.99022
     5   C  2s       0.98523
     5   C  2p       0.99319    0.81284    1.06706

     6   H  1s       0.90918

     7   C  1s       1.98883
     7   C  2s       1.07273
     7   C  2p       1.14687    1.11537    1.10363

     8   C  1s       1.98874
     8   C  2s       1.07057
     8   C  2p       1.04513    1.14983    1.16036

     9   H  1s       0.86545

    10   H  1s       0.85531

    11   H  1s       0.86070

    12   H  1s       0.86245

    13   H  1s       0.86210

    14   H  1s       0.86743

    15   H  1s       0.89186

 Summary of localized orbital composition:   [THRPRINT= 0.020]

   ORB  GRP  ORB.ENERGY      CENTERS/CHARGES
     1   1   -19.215946      O  1   2.000
     2   1   -10.314955      C  5   2.000
     3   1   -10.288250      C  2   2.000
     4   1   -10.233572      C  7   2.000
     5   1   -10.229842      C  8   2.000
     6   1    -0.745195      O  1   1.265   C  2   0.724
     7   1    -0.731410      O  1   1.287   C  5   0.692   (other: 0.021)
     8   1    -0.587077      O  1   1.962   (other: 0.038)
     9   1    -0.563784      C  8   0.998   C  5   0.988
    10   1    -0.562268      C  7   1.013   C  5   0.979
    11   1    -0.488876      C  2   1.128   H  4   0.871
    12   1    -0.487986      C  2   1.127   H 15   0.871
    13   1    -0.487885      C  2   1.148   H  3   0.845
    14   1    -0.485609      C  5   1.096   H  6   0.883   (other: 0.021)
    15   1    -0.475249      C  7   1.129   H 12   0.854
    16   1    -0.472650      C  7   1.128   H 14   0.860
    17   1    -0.472624      C  8   1.126   H  9   0.859
    18   1    -0.469079      C  7   1.134   H 13   0.854
    19   1    -0.466705      C  8   1.135   H 11   0.853
    20   1    -0.466117      C  8   1.140   H 10   0.848
    21   1    -0.287484      O  1   1.905   C  5   0.020   (other: 0.075)

 Localized orbitals saved to record      2200.2  (orbital set 4)


 **********************************************************************************************************************************
 DATASETS  * FILE   NREC   LENGTH (MB)   RECORD NAMES
              1      20      117.72       500      610      700      900      950      970     1000      129      960     1100   
                                          VAR    BASINP    GEOM    SYMINP    ZMAT    AOBASIS   BASIS     P2S    ABASIS      S 
                                         1400     1410     1200     1210     1080     1600     1650     1300     1700     1800   
                                           T        V       H0       H01     AOSYM     SMH    MOLCAS    ERIS     OPER     GRID   

              2       5        3.71       700     1000      520     1800     2200   
                                         GEOM     BASIS   MCVARS    GRID      UKS  

 PROGRAMS   *        TOTAL      IBBA       UKS       INT
 CPU TIMES  *        65.29      0.06     61.10      3.98
 REAL TIME  *        70.27 SEC
 DISK USED  *       409.85 MB      
 **********************************************************************************************************************************
 Molecular orbitals read from record     2200.2  Type=UKS/LOCAL(IBO)  
 Occupation numbers read from record     2200.2  Type=UKS/LOCAL(IBO)  
 Orbital energies read from record       2200.2  Type=UKS/LOCAL(IBO)  
 Redundancy group numbers read from rec  2200.2  Type=UKS/BETA (state 1.1)

 IBBA/SVP energy=      0.000000000000

        UKS-SCF 
   -233.36515126
 **********************************************************************************************************************************
 Molpro calculation terminated
