
 Primary working directories    : /tmp/sb13343
 Secondary working directories  : /tmp/sb13343
 Wavefunction directory         : /panfs/panasas01/chem/sb13343/wfu/
 Main file repository           : /tmp/sb13343/

 SHA1      : b4a5b34a9e711420743f49e6833241d17c61fb3c
 NAME      : 2099.9.b4a5b34
 ARCHNAME  : linux/x86_64_openmp
 FC        : /cm/shared/languages/GCC-6.1/bin/gfortran
 BLASLIB   : -lblas
 id        : simonbennie

 Nodes     nprocs
 node32-012    1

 Using customized tuning parameters: mindgm=1; mindgv=20; mindgc=4; mindgr=1; noblas=0; minvec=7
 default implementation of scratch files=df  

 memory,500,m
 geomtyp=xyz
 nosym
 noorient
 geometry={
 O          0.25818        0.93788        0.04074
 C          1.63656        1.04230        0.32330
 H          1.89907        2.10041        0.23555
 H          2.26234        0.47024       -0.37847
 C         -0.29581       -0.36510        0.22961
 H          0.07373       -0.77023        1.18842
 C          0.09996       -1.32219       -0.89979
 C         -1.80707       -0.17660        0.31883
 H         -2.30941       -1.13436        0.49338
 H         -2.05917        0.50650        1.13581
 H         -2.19015        0.25071       -0.61475
 H         -0.34617       -2.31074       -0.74107
 H         -0.25158       -0.93408       -1.86253
 H          1.18531       -1.45552       -0.96063
 H          1.86878        0.70360        1.34661
 }
 basis={ default,sto-3g }
 {ks,M06,direct;wf,42,1,0}
 {ibba,bonds=1}

 Variables initialized (895), CPU time= 0.00 sec
 Commands  initialized (725), CPU time= 0.02 sec, 591 directives.
 Default parameters read. Elapsed time= 0.09 sec

 Checking input...
 Passed
1


                                         ***  PROGRAM SYSTEM MOLPRO  ***
                                       Copyright, TTI GmbH Stuttgart, 2015
                                    Version 2099.9 linked May 26 2017 16:03:21


 **********************************************************************************************************************************
 LABEL *                                                                                 
  64 bit serial version                                                                  DATE: 07-Jun-17          TIME: 21:49:52  
 **********************************************************************************************************************************

 SHA1:             b4a5b34a9e711420743f49e6833241d17c61fb3c
 **********************************************************************************************************************************
 SETTING GEOMTYP        =    XYZ

 Variable memory set to  500000000 words,  buffer space 

 ZSYMEL=NOSYM

 SETTING BASIS          =    STO-3G


 Recomputing integrals since basis changed


 Using spherical harmonics

 Library entry O      S STO-3G               selected for orbital group  1
 Library entry O      P STO-3G               selected for orbital group  1
 Library entry C      S STO-3G               selected for orbital group  2
 Library entry C      P STO-3G               selected for orbital group  2
 Library entry H      S STO-3G               selected for orbital group  3


 PROGRAM * SEWARD (Integral evaluation for generally contracted gaussian basis sets)     Author: Roland Lindh, 1990

 Geometry written to block  1 of record 700


 Point group  C1  



 ATOMIC COORDINATES

 NR  ATOM    CHARGE       X              Y              Z

   1  O       8.00    0.487889491    1.772336338    0.076987442
   2  C       6.00    3.092650186    1.969661540    0.610948456
   3  H       1.00    3.588722191    3.969199649    0.445124989
   4  H       1.00    4.275203001    0.888624813   -0.715204646
   5  C       6.00   -0.558999885   -0.689939008    0.433900015
   6  H       1.00    0.139329507   -1.455523753    2.245788321
   7  C       6.00    0.188897023   -2.498576985   -1.700356670
   8  C       6.00   -3.414867388   -0.333725634    0.602501380
   9  H       1.00   -4.364152409   -2.143629727    0.932353075
  10  H       1.00   -3.891267344    0.957146282    2.146369830
  11  H       1.00   -4.138783672    0.473773237   -1.161709135
  12  H       1.00   -0.654166493   -4.366665745   -1.400419339
  13  H       1.00   -0.475417298   -1.765155378   -3.519671599
  14  H       1.00    2.239911273   -2.750534169   -1.815327607
  15  H       1.00    3.531482387    1.329611301    2.544724097

 Bond lengths in Bohr (Angstrom)

  1- 2  2.666238902   1- 5  2.699289504   2- 3  2.066818209   2- 4  2.079844613   2-15  2.083680934
       ( 1.410912866)       ( 1.428402491)       ( 1.093713095)       ( 1.100606371)       ( 1.102636465)

  5- 6  2.087276497   5- 7  2.895785336   5- 8  2.882931422   7-12  2.071345966   7-13  2.071020903
       ( 1.104539155)       ( 1.532383608)       ( 1.525581609)       ( 1.096109081)       ( 1.095937065)

  7-14  2.069628032   8- 9  2.070192508   8-10  2.068051501   8-11  2.070880961
       ( 1.095199989)       ( 1.095498697)       ( 1.094365725)       ( 1.095863011)

 Bond angles

  1- 2- 3  106.85884507   1- 2- 4  112.91125973   1- 2-15  111.64621834   1- 5- 6  108.63888518

  1-5-7  111.84608248   1-5-8  106.21369660   2-1-5  114.82992588   3-2-4  108.37425913

  3- 2-15  108.72850466   4- 2-15  108.20064699   5- 7-12  110.57572754   5- 7-13  110.08520206

  5- 7-14  111.89623115   5- 8- 9  110.82645738   5- 8-10  110.42517473   5- 8-11  110.16013005

  6- 5- 7  108.92239636   6- 5- 8  109.02480146   7- 5- 8  112.09364518   9- 8-10  108.73162751

  9- 8-11  108.44218100  10- 8-11  108.18344616  12- 7-13  108.42317703  12- 7-14  107.55382926

 13- 7-14  108.19151953

 NUCLEAR CHARGE:                   42
 NUMBER OF PRIMITIVE AOS:         105
 NUMBER OF SYMMETRY AOS:          105
 NUMBER OF CONTRACTIONS:           35   (  35A   )
 NUMBER OF CORE ORBITALS:           5   (   5A   )
 NUMBER OF VALENCE ORBITALS:       30   (  30A   )


 NUCLEAR REPULSION ENERGY  195.74983609


 Eigenvalues of metric

         1 0.208E+00 0.227E+00 0.234E+00 0.281E+00 0.352E+00 0.360E+00 0.363E+00 0.368E+00


 Contracted 2-electron integrals neglected if value below      1.0D-11
 AO integral compression algorithm  1   Integral accuracy      1.0D-11

     1.573 MB (compressed) written to integral file ( 89.1%)


 NUMBER OF SORTED TWO-ELECTRON INTEGRALS:     198765.     BUFFER LENGTH:  32768
 NUMBER OF SEGMENTS:   1  SEGMENT LENGTH:     198765      RECORD LENGTH: 524288

 Memory used in sort:       0.76 MW

 SORT1 READ      224802. AND WROTE      193897. INTEGRALS IN      1 RECORDS. CPU TIME:     0.00 SEC, REAL TIME:     0.01 SEC
 SORT2 READ      193897. AND WROTE      198765. INTEGRALS IN      6 RECORDS. CPU TIME:     0.03 SEC, REAL TIME:     0.02 SEC

 FILE SIZES:   FILE 1:    31.8 MBYTE,  FILE 4:     4.2 MBYTE,   TOTAL:     36.0 MBYTE

 OPERATOR DM      FOR CENTER  0  COORDINATES:    0.000000    0.000000    0.000000


 **********************************************************************************************************************************
 DATASETS  * FILE   NREC   LENGTH (MB)   RECORD NAMES
              1      19       31.10       500      610      700      900      950      970     1000      129      960     1100   
                                          VAR    BASINP    GEOM    SYMINP    ZMAT    AOBASIS   BASIS     P2S    ABASIS      S 
                                         1400     1410     1200     1210     1080     1600     1650     1300     1700   
                                           T        V       H0       H01     AOSYM     SMH    MOLCAS    ERIS     OPER   

 PROGRAMS   *        TOTAL       INT
 CPU TIMES  *         0.61      0.46
 REAL TIME  *         0.96 SEC
 DISK USED  *        36.55 MB      
 **********************************************************************************************************************************

 Density functional group M06=XC-M06
 Functional: XC-M06(via MFM 1.6)                                               Gradient terms: 1
 Use grid at  1800.2


 Exact exchange will be calculated, factor:  0.2700

 Functional: XC-M06                    Factor:  1.0000

 Generated new metagrid on record  1800.2 with target accuracy 1.0D-06 and 52852 points in CPU time    1.4
 Computed new grid on record 1800.1 in CPU time    1.5
   32369 words reserved for DFT integration

 PROGRAM * RKS-SCF (Restricted closed shell Kohn-Sham)     Authors: W. Meyer, H.-J. Werner, P.J. Knowles, 1993

 NUMBER OF ELECTRONS:      21+   21-    SPACE SYMMETRY=1    SPIN SYMMETRY: Singlet 
 CONVERGENCE THRESHOLDS:    1.00E-05 (Density)    1.00E-06 (Energy)
 MAX. NUMBER OF ITERATIONS:       60
 INTERPOLATION TYPE:            DIIS
 INTERPOLATION STEPS:              2 (START)      1 (STEP)
 LEVEL SHIFTS:                  0.00 (CLOSED)  0.00 (OPEN) 



 Use fine grid record 1800.2 for energy threshold  1.0D-06
 Orbital guess generated from atomic densities. Full valence occupancy:   21

 Molecular orbital dump at record        2100.2

 Initial occupancy:  21

 ITERATION    DDIFF          GRAD             ENERGY        2-EL.EN.            DIPOLE MOMENTS         DIIS   ORB.
    1      0.000D+00      0.000D+00      -230.23243873    613.717505    0.62701   -1.03106    0.33148    0    start
    2      0.000D+00      0.251D-01      -230.33934823    589.311079   -0.44909    0.26050   -0.22564    1    diag
    3      0.825D-01      0.203D-01      -230.50222001    599.196008    0.23646   -0.43821    0.16443    2    diag
    4      0.370D-01      0.210D-02      -230.50362954    599.409366    0.17570   -0.35684    0.12410    3    diag
    5      0.420D-02      0.657D-03      -230.50377786    599.396125    0.18281   -0.37797    0.12674    4    diag
    6      0.100D-02      0.676D-04      -230.50377953    599.394110    0.18387   -0.37646    0.12803    5    diag
    7      0.149D-03      0.193D-04      -230.50377968    599.393799    0.18402   -0.37714    0.12838    6    diag
    8      0.361D-04      0.199D-05      -230.50377968    599.393649    0.18395   -0.37704    0.12824    7    diag
    9      0.435D-05      0.440D-06      -230.50377968    599.393584    0.18394   -0.37704    0.12824    0    orth

 Final occupancy:  21

 !RKS STATE 1.1 Energy               -230.503779681073
 Nuclear energy                       195.74983609
 One-electron energy                 -700.89546573
 Two-electron energy                  299.69679209
 SCF exchange energy                  -32.65363264     Factor= 0.2700
 Density functional                   -25.05494213     XC-M06=-25.05494213
 Virial quotient                       -1.01561711
 !RKS STATE 1.1 Dipole moment           0.18394340    -0.37703546     0.12824127
 Dipole moment /Debye                   0.46750687    -0.95826577     0.32593545

 Orbital energies:

         1.1          2.1          3.1          4.1          5.1          6.1          7.1          8.1          9.1         10.1
    -18.962666   -10.135782   -10.121531   -10.076340   -10.073593    -0.978133    -0.751286    -0.666656    -0.642795    -0.545939

        11.1         12.1         13.1         14.1         15.1         16.1         17.1         18.1         19.1         20.1
     -0.455520    -0.431343    -0.415287    -0.394815    -0.370166    -0.362043    -0.344604    -0.320199    -0.310712    -0.204818

        21.1         22.1         23.1
     -0.132354     0.297261     0.371137

 HOMO     21.1    -0.132354 =      -3.6015eV
 LUMO     22.1     0.297261 =       8.0889eV
 LUMO-HOMO         0.429615 =      11.6904eV


 **********************************************************************************************************************************
 DATASETS  * FILE   NREC   LENGTH (MB)   RECORD NAMES
              1      20       32.79       500      610      700      900      950      970     1000      129      960     1100   
                                          VAR    BASINP    GEOM    SYMINP    ZMAT    AOBASIS   BASIS     P2S    ABASIS      S 
                                         1400     1410     1200     1210     1080     1600     1650     1300     1700     1800   
                                           T        V       H0       H01     AOSYM     SMH    MOLCAS    ERIS     OPER     GRID   

              2       5        3.02       700     1000      520     1800     2100   
                                         GEOM     BASIS   MCVARS    GRID      RKS  

 PROGRAMS   *        TOTAL        KS       INT
 CPU TIMES  *         9.42      8.81      0.46
 REAL TIME  *        10.03 SEC
 DISK USED  *        36.55 MB      
 **********************************************************************************************************************************


 PROGRAM * Intrinsic Basis Bonding Analysis (IBBA)          Author: G. Knizia

 Molecular orbitals read from record     2100.2  Type=RKS/CANONICAL (state 1.1)
 Fock matrix read from record            2100.2  Type=RKS/TOTAL (state 1.1)
 Orbital energies read from record       2100.2  Type=RKS/CANONICAL (state 1.1)
 Density matrix read from record         2100.2  Type=RKS/CHARGE (state 1.1)

 Number of core orbitals:           5 (   5 )
 Number of closed-shell orbitals:  16 (  16 )

 Basis set MINAO-AUTO-PP generated.      Number of basis functions:   35 

 Polarized AO type:                A = (O Ot + (1-O)(1-Ot)) P12
 Orthogonalization method:         Symmetric (Loewdin)
 Localization functional:          L = sum[A,i] <i|n_A|i>^4 -> max

 Localization group 1:  21 orbitals, occupancy  2.000
 Iterative localization: IB/PM,    7 iter; Final gradient 0.88E-09

 Bond order analysis:       [THRPRINT= 0.020]

   CEN ATOM   CEN ATOM     WIBERG.BO      RENORM.BO
     1   O  -   2   C       1.018194       1.017994
     1   O  -   5   C       0.987228       0.979282
     1   O  -   4   H       0.031432       0.018629
     1   O  -  15   H       0.029621       0.017651
     1   O  -   7   C       0.029049       0.015286
     1   O  -   6   H       0.022894       0.013784

     2   C  -   1   O       1.018194       1.017994
     2   C  -   3   H       0.955474       0.973832
     2   C  -  15   H       0.953185       0.945886
     2   C  -   4   H       0.952246       0.943742

     3   H  -   2   C       0.955474       0.973832

     4   H  -   2   C       0.952246       0.943742
     4   H  -   1   O       0.031432       0.018629

     5   C  -   8   C       1.002771       0.995945
     5   C  -   7   C       0.994842       0.968009
     5   C  -   1   O       0.987228       0.979282
     5   C  -   6   H       0.934939       0.930551

     6   H  -   5   C       0.934939       0.930551
     6   H  -   1   O       0.022894       0.013784

     7   C  -   5   C       0.994842       0.968009
     7   C  -  14   H       0.965513       0.987559
     7   C  -  12   H       0.964746       0.990722
     7   C  -  13   H       0.964397       0.986576
     7   C  -   1   O       0.029049       0.015286

     8   C  -   5   C       1.002771       0.995945
     8   C  -   9   H       0.965980       0.991108
     8   C  -  11   H       0.963398       0.986511
     8   C  -  10   H       0.963298       0.988213

     9   H  -   8   C       0.965980       0.991108

    10   H  -   8   C       0.963298       0.988213

    11   H  -   8   C       0.963398       0.986511

    12   H  -   7   C       0.964746       0.990722

    13   H  -   7   C       0.964397       0.986576

    14   H  -   7   C       0.965513       0.987559

    15   H  -   2   C       0.953185       0.945886
    15   H  -   1   O       0.029621       0.017651


 Valency analysis:

   CEN ATOM   TOT.VALENCE
     1   O       2.161136
     2   C       3.898419
     3   H       0.980574
     4   H       0.987527
     5   C       3.946005
     6   H       0.987793
     7   C       3.934708
     8   C       3.932473
     9   H       0.982401
    10   H       0.980864
    11   H       0.981790
    12   H       0.982059
    13   H       0.982410
    14   H       0.983450
    15   H       0.987361

 Total charge composition:

   CEN ATOM         s          p       ELECTRONS ->P.CHARGE
     1   O       3.64866    4.59246      8.24112   -0.24112
     2   C       3.00157    3.24866      6.25023   -0.25023
     3   H       0.86062                 0.86062    0.13938
     4   H       0.88832                 0.88832    0.11168
     5   C       2.95833    3.03129      5.98962    0.01038
     6   H       0.88952                 0.88952    0.11048
     7   C       2.99587    3.40665      6.40252   -0.40252
     8   C       2.99449    3.39715      6.39164   -0.39164
     9   H       0.86734                 0.86734    0.13266
    10   H       0.86167                 0.86167    0.13833
    11   H       0.86506                 0.86506    0.13494
    12   H       0.86605                 0.86605    0.13395
    13   H       0.86737                 0.86737    0.13263
    14   H       0.87135                 0.87135    0.12865
    15   H       0.88758                 0.88758    0.11242

 Total charge composition, AO contributions:

   CEN ATOM SHL      SPHERICAL COMPONENTS
     1   O  1s       1.99738
     1   O  2s       1.65128
     1   O  2p       1.29779    1.41613    1.87855

     2   C  1s       1.99258
     2   C  2s       1.00898
     2   C  2p       0.89862    1.18622    1.16383

     3   H  1s       0.86062

     4   H  1s       0.88832

     5   C  1s       1.99307
     5   C  2s       0.96526
     5   C  2p       1.03181    0.89316    1.10632

     6   H  1s       0.88952

     7   C  1s       1.99205
     7   C  2s       1.00381
     7   C  2p       1.16094    1.12917    1.11654

     8   C  1s       1.99198
     8   C  2s       1.00252
     8   C  2p       1.05400    1.16775    1.17539

     9   H  1s       0.86734

    10   H  1s       0.86167

    11   H  1s       0.86506

    12   H  1s       0.86605

    13   H  1s       0.86737

    14   H  1s       0.87135

    15   H  1s       0.88758

 Summary of localized orbital composition:   [THRPRINT= 0.020]

   ORB  GRP  ORB.ENERGY      CENTERS/CHARGES
     1   1   -18.802321      O  1   2.000
     2   1   -10.036670      C  5   2.000
     3   1   -10.013603      C  2   2.000
     4   1    -9.962983      C  8   2.000
     5   1    -9.961078      C  7   2.000
     6   1    -0.679669      O  1   1.173   C  2   0.818
     7   1    -0.657611      O  1   1.179   C  5   0.802
     8   1    -0.546306      C  5   1.002   C  8   0.982
     9   1    -0.541293      C  5   0.996   C  7   0.995
    10   1    -0.496262      C  2   1.129   H  4   0.869
    11   1    -0.495656      C  2   1.129   H 15   0.870
    12   1    -0.494795      C  2   1.140   H  3   0.851
    13   1    -0.494579      O  1   1.971   (other: 0.029)
    14   1    -0.492657      C  5   1.120   H  6   0.867
    15   1    -0.478662      C  8   1.128   H  9   0.861
    16   1    -0.478337      C  7   1.126   H 14   0.865
    17   1    -0.478119      C  7   1.129   H 12   0.859
    18   1    -0.472247      C  7   1.130   H 13   0.861
    19   1    -0.472166      C  8   1.136   H 10   0.855
    20   1    -0.470872      C  8   1.132   H 11   0.859
    21   1    -0.170698      O  1   1.910   (other: 0.090)

 Localized orbitals saved to record      2100.2  (orbital set 2)


 **********************************************************************************************************************************
 DATASETS  * FILE   NREC   LENGTH (MB)   RECORD NAMES
              1      20       32.79       500      610      700      900      950      970     1000      129      960     1100   
                                          VAR    BASINP    GEOM    SYMINP    ZMAT    AOBASIS   BASIS     P2S    ABASIS      S 
                                         1400     1410     1200     1210     1080     1600     1650     1300     1700     1800   
                                           T        V       H0       H01     AOSYM     SMH    MOLCAS    ERIS     OPER     GRID   

              2       5        3.03       700     1000      520     1800     2100   
                                         GEOM     BASIS   MCVARS    GRID      RKS  

 PROGRAMS   *        TOTAL      IBBA        KS       INT
 CPU TIMES  *         9.46      0.04      8.81      0.46
 REAL TIME  *        10.17 SEC
 DISK USED  *        36.55 MB      
 **********************************************************************************************************************************
 Molecular orbitals read from record     2100.2  Type=RKS/LOCAL(IBO)  
 Occupation numbers read from record     2100.2  Type=RKS/LOCAL(IBO)  
 Orbital energies read from record       2100.2  Type=RKS/LOCAL(IBO)  
 Redundancy group numbers read from rec  2100.2  Type=RKS/LOCAL(IBO)  

 IBBA/STO-3G energy=      0.000000000000

        KS-SCF  
   -230.50377968
 **********************************************************************************************************************************
 Molpro calculation terminated
