
 Primary working directories    : /tmp/sb13343
 Secondary working directories  : /tmp/sb13343
 Wavefunction directory         : /panfs/panasas01/chem/sb13343/wfu/
 Main file repository           : /tmp/sb13343/

 SHA1      : b4a5b34a9e711420743f49e6833241d17c61fb3c
 NAME      : 2099.9.b4a5b34
 ARCHNAME  : linux/x86_64_openmp
 FC        : /cm/shared/languages/GCC-6.1/bin/gfortran
 BLASLIB   : -lblas
 id        : simonbennie

 Nodes     nprocs
 node32-012    1

 Using customized tuning parameters: mindgm=1; mindgv=20; mindgc=4; mindgr=1; noblas=0; minvec=7
 default implementation of scratch files=df  

 memory,500,m
 geomtyp=xyz
 nosym
 noorient
 geometry={
 O          0.25818        0.93788        0.04074
 C          1.63656        1.04230        0.32330
 H          1.89907        2.10041        0.23555
 H          2.26234        0.47024       -0.37847
 C         -0.29581       -0.36510        0.22961
 H          0.07373       -0.77023        1.18842
 C          0.09996       -1.32219       -0.89979
 C         -1.80707       -0.17660        0.31883
 H         -2.30941       -1.13436        0.49338
 H         -2.05917        0.50650        1.13581
 H         -2.19015        0.25071       -0.61475
 H         -0.34617       -2.31074       -0.74107
 H         -0.25158       -0.93408       -1.86253
 H          1.18531       -1.45552       -0.96063
 H          1.86878        0.70360        1.34661
 }
 basis={ default,svp }
 {uks,M06,direct;wf,42,1,0}
 {ibba,bonds=1}

 Variables initialized (895), CPU time= 0.01 sec
 Commands  initialized (725), CPU time= 0.01 sec, 591 directives.
 Default parameters read. Elapsed time= 0.09 sec

 Checking input...
 Passed
1


                                         ***  PROGRAM SYSTEM MOLPRO  ***
                                       Copyright, TTI GmbH Stuttgart, 2015
                                    Version 2099.9 linked May 26 2017 16:03:21


 **********************************************************************************************************************************
 LABEL *                                                                                 
  64 bit serial version                                                                  DATE: 07-Jun-17          TIME: 21:58:58  
 **********************************************************************************************************************************

 SHA1:             b4a5b34a9e711420743f49e6833241d17c61fb3c
 **********************************************************************************************************************************
 SETTING GEOMTYP        =    XYZ

 Variable memory set to  500000000 words,  buffer space 

 ZSYMEL=NOSYM

 SETTING BASIS          =    SVP


 Recomputing integrals since basis changed


 Using spherical harmonics

 Library entry O      S def2-SVP             selected for orbital group  1
 Library entry O      P def2-SVP             selected for orbital group  1
 Library entry O      D def2-SVP             selected for orbital group  1
 Library entry C      S def2-SVP             selected for orbital group  2
 Library entry C      P def2-SVP             selected for orbital group  2
 Library entry C      D def2-SVP             selected for orbital group  2
 Library entry H      S def2-SVP             selected for orbital group  3
 Library entry H      P def2-SVP             selected for orbital group  3


 PROGRAM * SEWARD (Integral evaluation for generally contracted gaussian basis sets)     Author: Roland Lindh, 1990

 Geometry written to block  1 of record 700


 Point group  C1  



 ATOMIC COORDINATES

 NR  ATOM    CHARGE       X              Y              Z

   1  O       8.00    0.487889491    1.772336338    0.076987442
   2  C       6.00    3.092650186    1.969661540    0.610948456
   3  H       1.00    3.588722191    3.969199649    0.445124989
   4  H       1.00    4.275203001    0.888624813   -0.715204646
   5  C       6.00   -0.558999885   -0.689939008    0.433900015
   6  H       1.00    0.139329507   -1.455523753    2.245788321
   7  C       6.00    0.188897023   -2.498576985   -1.700356670
   8  C       6.00   -3.414867388   -0.333725634    0.602501380
   9  H       1.00   -4.364152409   -2.143629727    0.932353075
  10  H       1.00   -3.891267344    0.957146282    2.146369830
  11  H       1.00   -4.138783672    0.473773237   -1.161709135
  12  H       1.00   -0.654166493   -4.366665745   -1.400419339
  13  H       1.00   -0.475417298   -1.765155378   -3.519671599
  14  H       1.00    2.239911273   -2.750534169   -1.815327607
  15  H       1.00    3.531482387    1.329611301    2.544724097

 Bond lengths in Bohr (Angstrom)

  1- 2  2.666238902   1- 5  2.699289504   2- 3  2.066818209   2- 4  2.079844613   2-15  2.083680934
       ( 1.410912866)       ( 1.428402491)       ( 1.093713095)       ( 1.100606371)       ( 1.102636465)

  5- 6  2.087276497   5- 7  2.895785336   5- 8  2.882931422   7-12  2.071345966   7-13  2.071020903
       ( 1.104539155)       ( 1.532383608)       ( 1.525581609)       ( 1.096109081)       ( 1.095937065)

  7-14  2.069628032   8- 9  2.070192508   8-10  2.068051501   8-11  2.070880961
       ( 1.095199989)       ( 1.095498697)       ( 1.094365725)       ( 1.095863011)

 Bond angles

  1- 2- 3  106.85884507   1- 2- 4  112.91125973   1- 2-15  111.64621834   1- 5- 6  108.63888518

  1-5-7  111.84608248   1-5-8  106.21369660   2-1-5  114.82992588   3-2-4  108.37425913

  3- 2-15  108.72850466   4- 2-15  108.20064699   5- 7-12  110.57572754   5- 7-13  110.08520206

  5- 7-14  111.89623115   5- 8- 9  110.82645738   5- 8-10  110.42517473   5- 8-11  110.16013005

  6- 5- 7  108.92239636   6- 5- 8  109.02480146   7- 5- 8  112.09364518   9- 8-10  108.73162751

  9- 8-11  108.44218100  10- 8-11  108.18344616  12- 7-13  108.42317703  12- 7-14  107.55382926

 13- 7-14  108.19151953

 NUCLEAR CHARGE:                   42
 NUMBER OF PRIMITIVE AOS:         195
 NUMBER OF SYMMETRY AOS:          190
 NUMBER OF CONTRACTIONS:          120   ( 120A   )
 NUMBER OF CORE ORBITALS:           5   (   5A   )
 NUMBER OF VALENCE ORBITALS:       30   (  30A   )


 NUCLEAR REPULSION ENERGY  195.74983609


 Eigenvalues of metric

         1 0.241E-02 0.514E-02 0.104E-01 0.150E-01 0.214E-01 0.243E-01 0.289E-01 0.305E-01


 Contracted 2-electron integrals neglected if value below      1.0D-11
 AO integral compression algorithm  1   Integral accuracy      1.0D-11

     97.518 MB (compressed) written to integral file ( 44.4%)


 NUMBER OF SORTED TWO-ELECTRON INTEGRALS:   26357430.     BUFFER LENGTH:  32768
 NUMBER OF SEGMENTS:   2  SEGMENT LENGTH:   15997996      RECORD LENGTH: 524288

 Memory used in sort:      16.56 MW

 SORT1 READ    27501115. AND WROTE    22923365. INTEGRALS IN     67 RECORDS. CPU TIME:     0.37 SEC, REAL TIME:     0.75 SEC
 SORT2 READ    22923365. AND WROTE    26357430. INTEGRALS IN    372 RECORDS. CPU TIME:     0.57 SEC, REAL TIME:     3.22 SEC

 FILE SIZES:   FILE 1:   128.3 MBYTE,  FILE 4:   281.1 MBYTE,   TOTAL:    409.3 MBYTE

 OPERATOR DM      FOR CENTER  0  COORDINATES:    0.000000    0.000000    0.000000


 **********************************************************************************************************************************
 DATASETS  * FILE   NREC   LENGTH (MB)   RECORD NAMES
              1      19      116.03       500      610      700      900      950      970     1000      129      960     1100   
                                          VAR    BASINP    GEOM    SYMINP    ZMAT    AOBASIS   BASIS     P2S    ABASIS      S 
                                         1400     1410     1200     1210     1080     1600     1650     1300     1700   
                                           T        V       H0       H01     AOSYM     SMH    MOLCAS    ERIS     OPER   

 PROGRAMS   *        TOTAL       INT
 CPU TIMES  *         3.95      3.81
 REAL TIME  *         9.14 SEC
 DISK USED  *       409.85 MB      
 **********************************************************************************************************************************

 Density functional group M06=XC-M06
 Functional: XC-M06(via MFM 1.6)                                               Gradient terms: 1
 Use grid at  1800.2


 Exact exchange will be calculated, factor:  0.2700

 Functional: XC-M06                    Factor:  1.0000

 Generated new metagrid on record  1800.2 with target accuracy 1.0D-06 and 52852 points in CPU time    1.4
 Computed new grid on record 1800.1 in CPU time    1.5
   99539 words reserved for DFT integration

 PROGRAM * UKS-SCF (Unrestricted Kohn-Sham)     Authors: W. Meyer, H.-J. Werner, P.J. Knowles, 1993

 NUMBER OF ELECTRONS:      21+   21-    SPACE SYMMETRY=1    SPIN SYMMETRY: Singlet 
 CONVERGENCE THRESHOLDS:    1.00E-05 (Density)    1.00E-06 (Energy)
 MAX. NUMBER OF ITERATIONS:       60
 INTERPOLATION TYPE:            DIIS
 INTERPOLATION STEPS:              2 (START)      1 (STEP)
 LEVEL SHIFTS:                 -0.20 (ALPHA)  -0.20 (BETA) 



 Use fine grid record 1800.2 for energy threshold  1.0D-06
 Orbital guess generated from atomic densities. Full valence occupancy:   21

 Molecular orbital dump at record        2200.2

 Initial alpha occupation  21
 Initial beta  occupation  21

 ITERATION    DDIFF          GRAD             ENERGY        2-EL.EN.            DIPOLE MOMENTS         DIIS
    1      0.000D+00      0.000D+00      -233.15453823    610.317110    0.49358   -0.77698    0.27409    0
    2      0.937D-02      0.446D-02      -233.29570274    594.618417    0.20001   -0.36159    0.07612    1
    3      0.276D-02      0.178D-02      -233.31370112    598.261515    0.27205   -0.44429    0.14743    2
    4      0.795D-03      0.301D-03      -233.31449405    597.964335    0.25369   -0.40705    0.13434    3
    5      0.531D-03      0.143D-03      -233.31475877    597.925923    0.25373   -0.40544    0.13365    4
    6      0.330D-03      0.427D-04      -233.31480330    597.894859    0.25291   -0.39987    0.13210    5
    7      0.673D-04      0.995D-05      -233.31480512    597.889578    0.25235   -0.40009    0.13082    6
    8      0.182D-04      0.460D-05      -233.31480537    597.890318    0.25243   -0.39980    0.13062    7
    9      0.898D-05      0.113D-05      -233.31480540    597.889816    0.25236   -0.39977    0.13058    7
   10      0.232D-05      0.337D-06      -233.31480540    597.890391    0.25236   -0.39979    0.13051    7

 Final alpha occupancy:  21
 Final beta  occupancy:  21

 !UKS STATE 1.1 Energy               -233.314805402978
 Nuclear energy                       195.74983609
 One-electron energy                 -702.94144676
 Two-electron energy                  298.94519551
 Density functional                   -25.06839024     XC-M06=-25.06839024
 Virial quotient                       -1.01115552
 !UKS STATE 1.1 Dipole moment           0.25235959    -0.39978949     0.13050515
 Dipole moment /Debye                   0.64139210    -1.01609696     0.33168928

 Orbital energies for positive spin:

         1.1          2.1          3.1          4.1          5.1          6.1          7.1          8.1          9.1         10.1
    -19.205638   -10.296937   -10.286565   -10.237994   -10.234173    -1.037440    -0.782987    -0.694793    -0.672826    -0.579713

        11.1         12.1         13.1         14.1         15.1         16.1         17.1         18.1         19.1         20.1
     -0.503899    -0.472316    -0.465513    -0.431324    -0.403559    -0.395753    -0.385397    -0.361527    -0.353023    -0.317852

        21.1         22.1         23.1
     -0.267344     0.062799     0.090166

 Orbital energies for negative spin:

         1.1          2.1          3.1          4.1          5.1          6.1          7.1          8.1          9.1         10.1
    -19.205638   -10.296937   -10.286565   -10.237994   -10.234173    -1.037440    -0.782987    -0.694793    -0.672826    -0.579713

        11.1         12.1         13.1         14.1         15.1         16.1         17.1         18.1         19.1         20.1
     -0.503899    -0.472316    -0.465513    -0.431324    -0.403559    -0.395753    -0.385397    -0.361527    -0.353023    -0.317852

        21.1         22.1         23.1
     -0.267344     0.062799     0.090166

 HOMO     21.1    -0.267344 =      -7.2748eV
 LUMO     22.1     0.062799 =       1.7089eV
 LUMO-HOMO         0.330143 =       8.9836eV

 EXPECTATION VALUE OF S**2:            -0.00000000

 Natural orbitals saved to record    2200.2 (Orbital set 3)

 Orbital spaces for UNO-CAS (Min. occupation: 0.020  Max. occupation: 1.980):

 Closed:       21
 Active:        0


 **********************************************************************************************************************************
 DATASETS  * FILE   NREC   LENGTH (MB)   RECORD NAMES
              1      20      117.72       500      610      700      900      950      970     1000      129      960     1100   
                                          VAR    BASINP    GEOM    SYMINP    ZMAT    AOBASIS   BASIS     P2S    ABASIS      S 
                                         1400     1410     1200     1210     1080     1600     1650     1300     1700     1800   
                                           T        V       H0       H01     AOSYM     SMH    MOLCAS    ERIS     OPER     GRID   

              2       5        3.59       700     1000      520     1800     2200   
                                         GEOM     BASIS   MCVARS    GRID      UKS  

 PROGRAMS   *        TOTAL       UKS       INT
 CPU TIMES  *        59.99     56.04      3.81
 REAL TIME  *        65.57 SEC
 DISK USED  *       409.85 MB      
 **********************************************************************************************************************************


 PROGRAM * Intrinsic Basis Bonding Analysis (IBBA)          Author: G. Knizia

 Molecular orbitals read from record     2200.2  Type=UKS/ALPHA (state 1.1)
 Fock matrix read from record            2200.2  Type=UKS/TOTAL (state 1.1)
 Orbital energies read from record       2200.2  Type=UKS/ALPHA (state 1.1)
 Density matrix read from record         2200.2  Type=UKS/CHARGE (state 1.1)

 Number of core orbitals:           5 (   5 )
 Number of closed-shell orbitals:  16 (  16 )

 Basis set MINAO-AUTO-PP generated.      Number of basis functions:   35 

 Polarized AO type:                A = (O Ot + (1-O)(1-Ot)) P12
 Orthogonalization method:         Symmetric (Loewdin)
 Localization functional:          L = sum[A,i] <i|n_A|i>^4 -> max

 Localization group 1:  21 orbitals, occupancy  2.000
 Iterative localization: IB/PM,    7 iter; Final gradient 0.36E-08

 Bond order analysis:       [THRPRINT= 0.020]

   CEN ATOM   CEN ATOM     WIBERG.BO      RENORM.BO
     1   O  -   2   C       0.985071       1.018508
     1   O  -   5   C       0.940145       0.962179
     1   O  -   4   H       0.034063       0.020119
     1   O  -  15   H       0.032403       0.019287
     1   O  -   7   C       0.029061       0.015136
     1   O  -   6   H       0.025465       0.015144

     2   C  -   1   O       0.985071       1.018508
     2   C  -   3   H       0.957302       0.976841
     2   C  -  15   H       0.950187       0.938300
     2   C  -   4   H       0.949745       0.937190

     3   H  -   2   C       0.957302       0.976841

     4   H  -   2   C       0.949745       0.937190
     4   H  -   1   O       0.034063       0.020119

     5   C  -   8   C       1.012797       1.006522
     5   C  -   7   C       1.005474       0.982432
     5   C  -   1   O       0.940145       0.962179
     5   C  -   6   H       0.926758       0.917204

     6   H  -   5   C       0.926758       0.917204
     6   H  -   1   O       0.025465       0.015144

     7   C  -   5   C       1.005474       0.982432
     7   C  -  14   H       0.963154       0.984254
     7   C  -  12   H       0.961136       0.986926
     7   C  -  13   H       0.959817       0.979833
     7   C  -   1   O       0.029061       0.015136

     8   C  -   5   C       1.012797       1.006522
     8   C  -   9   H       0.963654       0.987873
     8   C  -  10   H       0.960609       0.984409
     8   C  -  11   H       0.959266       0.979995

     9   H  -   8   C       0.963654       0.987873

    10   H  -   8   C       0.960609       0.984409

    11   H  -   8   C       0.959266       0.979995

    12   H  -   7   C       0.961136       0.986926

    13   H  -   7   C       0.959817       0.979833

    14   H  -   7   C       0.963154       0.984254

    15   H  -   2   C       0.950187       0.938300
    15   H  -   1   O       0.032403       0.019287


 Valency analysis:

   CEN ATOM   TOT.VALENCE
     1   O       2.098167
     2   C       3.862683
     3   H       0.978040
     4   H       0.987686
     5   C       3.912217
     6   H       0.990744
     7   C       3.939589
     8   C       3.938376
     9   H       0.982906
    10   H       0.980126
    11   H       0.981600
    12   H       0.981902
    13   H       0.981698
    14   H       0.983163
    15   H       0.987864

 Total charge composition:

   CEN ATOM         s          p       ELECTRONS ->P.CHARGE
     1   O       3.60214    4.81190      8.41405   -0.41405
     2   C       3.01177    3.16409      6.17586   -0.17586
     3   H       0.85181                 0.85181    0.14819
     4   H       0.88903                 0.88903    0.11097
     5   C       2.94482    2.92518      5.87000    0.13000
     6   H       0.90379                 0.90379    0.09621
     7   C       3.02191    3.39164      6.41355   -0.41355
     8   C       3.02007    3.37894      6.39900   -0.39900
     9   H       0.86926                 0.86926    0.13074
    10   H       0.85903                 0.85903    0.14097
    11   H       0.86435                 0.86435    0.13565
    12   H       0.86547                 0.86547    0.13453
    13   H       0.86471                 0.86471    0.13529
    14   H       0.87024                 0.87024    0.12976
    15   H       0.88984                 0.88984    0.11016

 Total charge composition, AO contributions:

   CEN ATOM SHL      SPHERICAL COMPONENTS
     1   O  1s       1.99720
     1   O  2s       1.60494
     1   O  2p       1.39637    1.53031    1.88522

     2   C  1s       1.99192
     2   C  2s       1.01985
     2   C  2p       0.83129    1.18291    1.14988

     3   H  1s       0.85181

     4   H  1s       0.88903

     5   C  1s       1.99251
     5   C  2s       0.95230
     5   C  2p       1.01088    0.82846    1.08583

     6   H  1s       0.90379

     7   C  1s       1.99129
     7   C  2s       1.03062
     7   C  2p       1.15595    1.12343    1.11227

     8   C  1s       1.99121
     8   C  2s       1.02885
     8   C  2p       1.05216    1.15790    1.16888

     9   H  1s       0.86926

    10   H  1s       0.85903

    11   H  1s       0.86435

    12   H  1s       0.86547

    13   H  1s       0.86471

    14   H  1s       0.87024

    15   H  1s       0.88984

 Summary of localized orbital composition:   [THRPRINT= 0.020]

   ORB  GRP  ORB.ENERGY      CENTERS/CHARGES
     1   1   -19.059783      O  1   2.000
     2   1   -10.199161      C  5   2.000
     3   1   -10.177187      C  2   2.000
     4   1   -10.123503      C  7   2.000
     5   1   -10.118875      C  8   2.000
     6   1    -0.773933      O  1   1.259   C  2   0.732
     7   1    -0.756533      O  1   1.279   C  5   0.703
     8   1    -0.589220      C  5   0.995   C  8   0.991
     9   1    -0.588213      C  7   1.006   C  5   0.985
    10   1    -0.563965      O  1   1.963   (other: 0.037)
    11   1    -0.525751      C  2   1.130   H  4   0.869
    12   1    -0.524654      C  2   1.128   H 15   0.870
    13   1    -0.522725      C  2   1.149   H  3   0.844
    14   1    -0.519437      C  5   1.102   H  6   0.879
    15   1    -0.508702      C  7   1.127   H 12   0.858
    16   1    -0.507197      C  7   1.126   H 14   0.863
    17   1    -0.505786      C  8   1.124   H  9   0.862
    18   1    -0.502924      C  7   1.132   H 13   0.857
    19   1    -0.499393      C  8   1.132   H 11   0.857
    20   1    -0.498788      C  8   1.137   H 10   0.852
    21   1    -0.320697      O  1   1.909   (other: 0.091)

 Localized orbitals saved to record      2200.2  (orbital set 4)


 **********************************************************************************************************************************
 DATASETS  * FILE   NREC   LENGTH (MB)   RECORD NAMES
              1      20      117.72       500      610      700      900      950      970     1000      129      960     1100   
                                          VAR    BASINP    GEOM    SYMINP    ZMAT    AOBASIS   BASIS     P2S    ABASIS      S 
                                         1400     1410     1200     1210     1080     1600     1650     1300     1700     1800   
                                           T        V       H0       H01     AOSYM     SMH    MOLCAS    ERIS     OPER     GRID   

              2       5        3.71       700     1000      520     1800     2200   
                                         GEOM     BASIS   MCVARS    GRID      UKS  

 PROGRAMS   *        TOTAL      IBBA       UKS       INT
 CPU TIMES  *        60.03      0.04     56.04      3.81
 REAL TIME  *        65.72 SEC
 DISK USED  *       409.85 MB      
 **********************************************************************************************************************************
 Molecular orbitals read from record     2200.2  Type=UKS/LOCAL(IBO)  
 Occupation numbers read from record     2200.2  Type=UKS/LOCAL(IBO)  
 Orbital energies read from record       2200.2  Type=UKS/LOCAL(IBO)  
 Redundancy group numbers read from rec  2200.2  Type=UKS/BETA (state 1.1)

 IBBA/SVP energy=      0.000000000000

        UKS-SCF 
   -233.31480540
 **********************************************************************************************************************************
 Molpro calculation terminated
