
 Primary working directories    : /tmp/sb13343
 Secondary working directories  : /tmp/sb13343
 Wavefunction directory         : /panfs/panasas01/chem/sb13343/wfu/
 Main file repository           : /tmp/sb13343/

 SHA1      : b4a5b34a9e711420743f49e6833241d17c61fb3c
 NAME      : 2099.9.b4a5b34
 ARCHNAME  : linux/x86_64_openmp
 FC        : /cm/shared/languages/GCC-6.1/bin/gfortran
 BLASLIB   : -lblas
 id        : simonbennie

 Nodes     nprocs
 node33-017    1

 Using customized tuning parameters: mindgm=1; mindgv=20; mindgc=4; mindgr=1; noblas=0; minvec=7
 default implementation of scratch files=df  

 memory,500,m
 geomtyp=xyz
 nosym
 noorient
 geometry={
 O          0.25818        0.93788        0.04074
 C          1.63656        1.04230        0.32330
 H          1.89907        2.10041        0.23555
 H          2.26234        0.47024       -0.37847
 C         -0.29581       -0.36510        0.22961
 H          0.07373       -0.77023        1.18842
 C          0.09996       -1.32219       -0.89979
 C         -1.80707       -0.17660        0.31883
 H         -2.30941       -1.13436        0.49338
 H         -2.05917        0.50650        1.13581
 H         -2.19015        0.25071       -0.61475
 H         -0.34617       -2.31074       -0.74107
 H         -0.25158       -0.93408       -1.86253
 H          1.18531       -1.45552       -0.96063
 H          1.86878        0.70360        1.34661
 }
 basis={ default,svp }
 {ks,LYP88,direct;wf,42,1,0}
 {ibba,bonds=1}

 Variables initialized (895), CPU time= 0.00 sec
 Commands  initialized (725), CPU time= 0.02 sec, 591 directives.
 Default parameters read. Elapsed time= 0.09 sec

 Checking input...
 Passed
1


                                         ***  PROGRAM SYSTEM MOLPRO  ***
                                       Copyright, TTI GmbH Stuttgart, 2015
                                    Version 2099.9 linked May 26 2017 16:03:21


 **********************************************************************************************************************************
 LABEL *                                                                                 
  64 bit serial version                                                                  DATE: 07-Jun-17          TIME: 22:00:04  
 **********************************************************************************************************************************

 SHA1:             b4a5b34a9e711420743f49e6833241d17c61fb3c
 **********************************************************************************************************************************
 SETTING GEOMTYP        =    XYZ

 Variable memory set to  500000000 words,  buffer space 

 ZSYMEL=NOSYM

 SETTING BASIS          =    SVP


 Recomputing integrals since basis changed


 Using spherical harmonics

 Library entry O      S def2-SVP             selected for orbital group  1
 Library entry O      P def2-SVP             selected for orbital group  1
 Library entry O      D def2-SVP             selected for orbital group  1
 Library entry C      S def2-SVP             selected for orbital group  2
 Library entry C      P def2-SVP             selected for orbital group  2
 Library entry C      D def2-SVP             selected for orbital group  2
 Library entry H      S def2-SVP             selected for orbital group  3
 Library entry H      P def2-SVP             selected for orbital group  3


 PROGRAM * SEWARD (Integral evaluation for generally contracted gaussian basis sets)     Author: Roland Lindh, 1990

 Geometry written to block  1 of record 700


 Point group  C1  



 ATOMIC COORDINATES

 NR  ATOM    CHARGE       X              Y              Z

   1  O       8.00    0.487889491    1.772336338    0.076987442
   2  C       6.00    3.092650186    1.969661540    0.610948456
   3  H       1.00    3.588722191    3.969199649    0.445124989
   4  H       1.00    4.275203001    0.888624813   -0.715204646
   5  C       6.00   -0.558999885   -0.689939008    0.433900015
   6  H       1.00    0.139329507   -1.455523753    2.245788321
   7  C       6.00    0.188897023   -2.498576985   -1.700356670
   8  C       6.00   -3.414867388   -0.333725634    0.602501380
   9  H       1.00   -4.364152409   -2.143629727    0.932353075
  10  H       1.00   -3.891267344    0.957146282    2.146369830
  11  H       1.00   -4.138783672    0.473773237   -1.161709135
  12  H       1.00   -0.654166493   -4.366665745   -1.400419339
  13  H       1.00   -0.475417298   -1.765155378   -3.519671599
  14  H       1.00    2.239911273   -2.750534169   -1.815327607
  15  H       1.00    3.531482387    1.329611301    2.544724097

 Bond lengths in Bohr (Angstrom)

  1- 2  2.666238902   1- 5  2.699289504   2- 3  2.066818209   2- 4  2.079844613   2-15  2.083680934
       ( 1.410912866)       ( 1.428402491)       ( 1.093713095)       ( 1.100606371)       ( 1.102636465)

  5- 6  2.087276497   5- 7  2.895785336   5- 8  2.882931422   7-12  2.071345966   7-13  2.071020903
       ( 1.104539155)       ( 1.532383608)       ( 1.525581609)       ( 1.096109081)       ( 1.095937065)

  7-14  2.069628032   8- 9  2.070192508   8-10  2.068051501   8-11  2.070880961
       ( 1.095199989)       ( 1.095498697)       ( 1.094365725)       ( 1.095863011)

 Bond angles

  1- 2- 3  106.85884507   1- 2- 4  112.91125973   1- 2-15  111.64621834   1- 5- 6  108.63888518

  1-5-7  111.84608248   1-5-8  106.21369660   2-1-5  114.82992588   3-2-4  108.37425913

  3- 2-15  108.72850466   4- 2-15  108.20064699   5- 7-12  110.57572754   5- 7-13  110.08520206

  5- 7-14  111.89623115   5- 8- 9  110.82645738   5- 8-10  110.42517473   5- 8-11  110.16013005

  6- 5- 7  108.92239636   6- 5- 8  109.02480146   7- 5- 8  112.09364518   9- 8-10  108.73162751

  9- 8-11  108.44218100  10- 8-11  108.18344616  12- 7-13  108.42317703  12- 7-14  107.55382926

 13- 7-14  108.19151953

 NUCLEAR CHARGE:                   42
 NUMBER OF PRIMITIVE AOS:         195
 NUMBER OF SYMMETRY AOS:          190
 NUMBER OF CONTRACTIONS:          120   ( 120A   )
 NUMBER OF CORE ORBITALS:           5   (   5A   )
 NUMBER OF VALENCE ORBITALS:       30   (  30A   )


 NUCLEAR REPULSION ENERGY  195.74983609


 Eigenvalues of metric

         1 0.241E-02 0.514E-02 0.104E-01 0.150E-01 0.214E-01 0.243E-01 0.289E-01 0.305E-01


 Contracted 2-electron integrals neglected if value below      1.0D-11
 AO integral compression algorithm  1   Integral accuracy      1.0D-11

     97.518 MB (compressed) written to integral file ( 44.4%)


 NUMBER OF SORTED TWO-ELECTRON INTEGRALS:   26357430.     BUFFER LENGTH:  32768
 NUMBER OF SEGMENTS:   2  SEGMENT LENGTH:   15997996      RECORD LENGTH: 524288

 Memory used in sort:      16.56 MW

 SORT1 READ    27501115. AND WROTE    22923365. INTEGRALS IN     67 RECORDS. CPU TIME:     0.39 SEC, REAL TIME:     0.76 SEC
 SORT2 READ    22923365. AND WROTE    26357430. INTEGRALS IN    372 RECORDS. CPU TIME:     0.70 SEC, REAL TIME:     0.91 SEC

 FILE SIZES:   FILE 1:   128.3 MBYTE,  FILE 4:   281.1 MBYTE,   TOTAL:    409.3 MBYTE

 OPERATOR DM      FOR CENTER  0  COORDINATES:    0.000000    0.000000    0.000000


 **********************************************************************************************************************************
 DATASETS  * FILE   NREC   LENGTH (MB)   RECORD NAMES
              1      19      116.03       500      610      700      900      950      970     1000      129      960     1100   
                                          VAR    BASINP    GEOM    SYMINP    ZMAT    AOBASIS   BASIS     P2S    ABASIS      S 
                                         1400     1410     1200     1210     1080     1600     1650     1300     1700   
                                           T        V       H0       H01     AOSYM     SMH    MOLCAS    ERIS     OPER   

 PROGRAMS   *        TOTAL       INT
 CPU TIMES  *         4.20      4.04
 REAL TIME  *         7.64 SEC
 DISK USED  *       409.85 MB      
 **********************************************************************************************************************************

 Density functional group LYP88=LYP
 Functional: LYP(Automatically generated (new) LYP)                            Gradient terms: 1
 Use grid at  1800.2

 Functional: LYP                       Factor:  1.0000

 Generated new metagrid on record  1800.2 with target accuracy 1.0D-06 and 52852 points in CPU time    1.4
 Computed new grid on record 1800.1 in CPU time    1.6
   99539 words reserved for DFT integration

 PROGRAM * RKS-SCF (Restricted closed shell Kohn-Sham)     Authors: W. Meyer, H.-J. Werner, P.J. Knowles, 1993

 NUMBER OF ELECTRONS:      21+   21-    SPACE SYMMETRY=1    SPIN SYMMETRY: Singlet 
 CONVERGENCE THRESHOLDS:    1.00E-05 (Density)    1.00E-06 (Energy)
 MAX. NUMBER OF ITERATIONS:       60
 INTERPOLATION TYPE:            DIIS
 INTERPOLATION STEPS:              2 (START)      1 (STEP)
 LEVEL SHIFTS:                  0.00 (CLOSED)  0.00 (OPEN) 



 Use fine grid record 1800.2 for energy threshold  1.0D-06
 Orbital guess generated from atomic densities. Full valence occupancy:   21

 Molecular orbital dump at record        2100.2

 Initial occupancy:  21

 ITERATION    DDIFF          GRAD             ENERGY        2-EL.EN.            DIPOLE MOMENTS         DIIS   ORB.
    1      0.000D+00      0.000D+00      -200.29365971    554.463597    0.30031    4.57160   -0.96410    0    start
    2      0.000D+00      0.277D-01      -192.47757289    673.143972   -6.34420  -12.62867   -1.72939    1    diag
    3      0.158D+00      0.687D-01      -201.06109002    609.373581    1.09761   -1.15290    0.94025    2    diag
    4      0.505D-01      0.198D-01      -201.45253610    590.332846   -0.34633   -0.96934   -0.12834    3    diag
    5      0.274D-01      0.112D-01      -201.70362249    591.746919   -0.01793   -0.21527   -0.07300    4    diag
    6      0.160D-01      0.320D-02      -201.71804124    587.383029    0.21339    0.11660    0.10818    5    diag
    7      0.802D-02      0.185D-02      -201.72324610    588.633077    0.17993    0.15786    0.03302    6    diag
    8      0.240D-02      0.484D-03      -201.72375293    587.913717    0.09829    0.11823   -0.03111    7    diag
    9      0.125D-02      0.159D-03      -201.72379183    587.965585    0.10779    0.13862   -0.01899    8    diag
   10      0.285D-03      0.640D-04      -201.72379945    587.906625    0.11190    0.14473   -0.01720    9    orth
   11      0.101D-03      0.190D-04      -201.72380014    587.912643    0.11041    0.14382   -0.01924    9    diag
   12      0.301D-04      0.395D-05      -201.72380017    587.908861    0.11060    0.14381   -0.01902    9    diag
   13      0.103D-04      0.938D-06      -201.72380018    587.908620    0.11047    0.14398   -0.01913    9    diag
   14      0.201D-05      0.454D-06      -201.72380017    587.908349    0.11050    0.14395   -0.01913    0    orth

 Final occupancy:  21

 !RKS STATE 1.1 Energy               -201.723800174609
 Nuclear energy                       195.74983609
 One-electron energy                 -690.08585295
 Two-electron energy                  293.95417442
 Density functional                    -1.34195774     LYP=-1.34195774
 Virial quotient                       -0.92772419
 !RKS STATE 1.1 Dipole moment           0.11050017     0.14395146    -0.01912829
 Dipole moment /Debye                   0.28084501     0.36586416    -0.04861607

 Orbital energies:

         1.1          2.1          3.1          4.1          5.1          6.1          7.1          8.1          9.1         10.1
    -16.612430    -8.248226    -8.238272    -8.208785    -8.206475    -0.599264    -0.391730    -0.307384    -0.281491    -0.210606

        11.1         12.1         13.1         14.1         15.1         16.1         17.1         18.1         19.1         20.1
     -0.170349    -0.138829    -0.132416    -0.099283    -0.066374    -0.057883    -0.044509    -0.023151    -0.012513     0.030323

        21.1         22.1         23.1
      0.080955     0.192012     0.215220

 HOMO     21.1     0.080955 =       2.2029eV
 LUMO     22.1     0.192012 =       5.2249eV
 LUMO-HOMO         0.111057 =       3.0220eV


 **********************************************************************************************************************************
 DATASETS  * FILE   NREC   LENGTH (MB)   RECORD NAMES
              1      20      117.72       500      610      700      900      950      970     1000      129      960     1100   
                                          VAR    BASINP    GEOM    SYMINP    ZMAT    AOBASIS   BASIS     P2S    ABASIS      S 
                                         1400     1410     1200     1210     1080     1600     1650     1300     1700     1800   
                                           T        V       H0       H01     AOSYM     SMH    MOLCAS    ERIS     OPER     GRID   

              2       5        3.30       700     1000      520     1800     2100   
                                         GEOM     BASIS   MCVARS    GRID      RKS  

 PROGRAMS   *        TOTAL        KS       INT
 CPU TIMES  *        21.87     17.67      4.04
 REAL TIME  *        26.67 SEC
 DISK USED  *       409.85 MB      
 **********************************************************************************************************************************


 PROGRAM * Intrinsic Basis Bonding Analysis (IBBA)          Author: G. Knizia

 Molecular orbitals read from record     2100.2  Type=RKS/CANONICAL (state 1.1)
 Fock matrix read from record            2100.2  Type=RKS/TOTAL (state 1.1)
 Orbital energies read from record       2100.2  Type=RKS/CANONICAL (state 1.1)
 Density matrix read from record         2100.2  Type=RKS/CHARGE (state 1.1)

 Number of core orbitals:           5 (   5 )
 Number of closed-shell orbitals:  16 (  16 )

 Basis set MINAO-AUTO-PP generated.      Number of basis functions:   35 

 Polarized AO type:                A = (O Ot + (1-O)(1-Ot)) P12
 Orthogonalization method:         Symmetric (Loewdin)
 Localization functional:          L = sum[A,i] <i|n_A|i>^4 -> max

 Localization group 1:  21 orbitals, occupancy  2.000
 Iterative localization: IB/PM,    7 iter; Final gradient 0.79E-08

 Bond order analysis:       [THRPRINT= 0.020]

   CEN ATOM   CEN ATOM     WIBERG.BO      RENORM.BO
     1   O  -   2   C       1.091653       1.052400
     1   O  -   5   C       1.013202       0.969462
     1   O  -   4   H       0.062397       0.034528
     1   O  -  15   H       0.059065       0.033334
     1   O  -   7   C       0.053705       0.029668
     1   O  -   6   H       0.047859       0.026730
     1   O  -   8   C       0.040311       0.023676
     1   O  -  12   H       0.026580       0.020138
     1   O  -   9   H       0.023303       0.017352

     2   C  -   1   O       1.091653       1.052400
     2   C  -   3   H       0.960002       0.961790
     2   C  -   4   H       0.918746       0.871998
     2   C  -  15   H       0.913423       0.865013

     3   H  -   2   C       0.960002       0.961790

     4   H  -   2   C       0.918746       0.871998
     4   H  -   1   O       0.062397       0.034528

     5   C  -   8   C       1.016273       1.012852
     5   C  -   1   O       1.013202       0.969462
     5   C  -   7   C       1.006571       0.985349
     5   C  -   6   H       0.860247       0.827785

     6   H  -   5   C       0.860247       0.827785
     6   H  -   1   O       0.047859       0.026730
     6   H  -  13   H       0.030891       0.031714
     6   H  -  11   H       0.030459       0.031288

     7   C  -   5   C       1.006571       0.985349
     7   C  -  12   H       0.948261       0.962872
     7   C  -  14   H       0.947921       0.960119
     7   C  -  13   H       0.942672       0.942390
     7   C  -   1   O       0.053705       0.029668
     7   C  -  10   H       0.022412       0.023042

     8   C  -   5   C       1.016273       1.012852
     8   C  -  10   H       0.953562       0.960593
     8   C  -   9   H       0.953482       0.965776
     8   C  -  11   H       0.943319       0.943692
     8   C  -   1   O       0.040311       0.023676

     9   H  -   8   C       0.953482       0.965776
     9   H  -   1   O       0.023303       0.017352

    10   H  -   8   C       0.953562       0.960593
    10   H  -   7   C       0.022412       0.023042

    11   H  -   8   C       0.943319       0.943692
    11   H  -   6   H       0.030459       0.031288

    12   H  -   7   C       0.948261       0.962872
    12   H  -   1   O       0.026580       0.020138

    13   H  -   7   C       0.942672       0.942390
    13   H  -   6   H       0.030891       0.031714

    14   H  -   7   C       0.947921       0.960119

    15   H  -   2   C       0.913423       0.865013
    15   H  -   1   O       0.059065       0.033334


 Valency analysis:

   CEN ATOM   TOT.VALENCE
     1   O       2.450239
     2   C       3.930051
     3   H       0.997727
     4   H       0.999929
     5   C       3.947469
     6   H       0.999783
     7   C       3.959432
     8   C       3.964615
     9   H       0.997667
    10   H       0.997955
    11   H       0.998349
    12   H       0.997192
    13   H       0.998393
    14   H       0.997421
    15   H       0.999969

 Total charge composition:

   CEN ATOM         s          p       ELECTRONS ->P.CHARGE
     1   O       3.47730    4.61967      8.09696   -0.09696
     2   C       2.89209    3.13946      6.03155   -0.03155
     3   H       0.95232                 0.95232    0.04768
     4   H       0.99159                 0.99159    0.00841
     5   C       2.85940    2.97465      5.83405    0.16595
     6   H       1.01472                 1.01472   -0.01472
     7   C       2.90334    3.29196      6.19530   -0.19530
     8   C       2.90364    3.26346      6.16710   -0.16710
     9   H       0.95170                 0.95170    0.04830
    10   H       0.95478                 0.95478    0.04522
    11   H       0.95937                 0.95937    0.04063
    12   H       0.94701                 0.94701    0.05299
    13   H       0.95992                 0.95992    0.04008
    14   H       0.94921                 0.94921    0.05079
    15   H       0.99441                 0.99441    0.00559

 Total charge composition, AO contributions:

   CEN ATOM SHL      SPHERICAL COMPONENTS
     1   O  1s       1.99899
     1   O  2s       1.47831
     1   O  2p       1.34793    1.48862    1.78311

     2   C  1s       1.99802
     2   C  2s       0.89408
     2   C  2p       0.89089    1.12866    1.11991

     3   H  1s       0.95232

     4   H  1s       0.99159

     5   C  1s       1.99824
     5   C  2s       0.86117
     5   C  2p       1.02800    0.88615    1.06050

     6   H  1s       1.01472

     7   C  1s       1.99786
     7   C  2s       0.90548
     7   C  2p       1.11503    1.09797    1.07896

     8   C  1s       1.99783
     8   C  2s       0.90582
     8   C  2p       1.05028    1.10400    1.10918

     9   H  1s       0.95170

    10   H  1s       0.95478

    11   H  1s       0.95937

    12   H  1s       0.94701

    13   H  1s       0.95992

    14   H  1s       0.94921

    15   H  1s       0.99441

 Summary of localized orbital composition:   [THRPRINT= 0.020]

   ORB  GRP  ORB.ENERGY      CENTERS/CHARGES
     1   1   -16.526252      O  1   2.000
     2   1    -8.172815      C  2   2.000
     3   1    -8.167073      C  5   2.000
     4   1    -8.129435      C  7   2.000
     5   1    -8.126456      C  8   2.000
     6   1    -0.400577      O  1   1.173   C  2   0.815
     7   1    -0.380452      O  1   1.199   C  5   0.775   (other: 0.027)
     8   1    -0.224211      C  7   1.021   C  5   0.963
     9   1    -0.224109      C  8   1.005   C  5   0.974   (other: 0.020)
    10   1    -0.158885      C  2   1.050   H  3   0.939
    11   1    -0.158720      C  2   1.041   H  4   0.952
    12   1    -0.158369      C  2   1.036   H 15   0.955
    13   1    -0.157001      C  5   0.979   H  6   0.973   (other: 0.048)
    14   1    -0.146558      C  7   1.036   H 13   0.942   (other: 0.022)
    15   1    -0.146291      C  7   1.043   H 12   0.931   (other: 0.026)
    16   1    -0.145836      C  7   1.045   H 14   0.932   (other: 0.022)
    17   1    -0.144356      C  8   1.037   H 11   0.941   (other: 0.021)
    18   1    -0.143741      C  8   1.041   H  9   0.937   (other: 0.022)
    19   1    -0.141828      C  8   1.041   H 10   0.940
    20   1    -0.105222      O  1   1.911   (other: 0.089)
    21   1     0.019493      O  1   1.804   C  2   0.047   C  5   0.043   H 15   0.028   H  4   0.023   C  7   0.021   (other: 0.033)

 Localized orbitals saved to record      2100.2  (orbital set 2)


 **********************************************************************************************************************************
 DATASETS  * FILE   NREC   LENGTH (MB)   RECORD NAMES
              1      20      117.72       500      610      700      900      950      970     1000      129      960     1100   
                                          VAR    BASINP    GEOM    SYMINP    ZMAT    AOBASIS   BASIS     P2S    ABASIS      S 
                                         1400     1410     1200     1210     1080     1600     1650     1300     1700     1800   
                                           T        V       H0       H01     AOSYM     SMH    MOLCAS    ERIS     OPER     GRID   

              2       5        3.42       700     1000      520     1800     2100   
                                         GEOM     BASIS   MCVARS    GRID      RKS  

 PROGRAMS   *        TOTAL      IBBA        KS       INT
 CPU TIMES  *        21.93      0.05     17.67      4.04
 REAL TIME  *        26.81 SEC
 DISK USED  *       409.85 MB      
 **********************************************************************************************************************************
 Molecular orbitals read from record     2100.2  Type=RKS/LOCAL(IBO)  
 Occupation numbers read from record     2100.2  Type=RKS/LOCAL(IBO)  
 Orbital energies read from record       2100.2  Type=RKS/LOCAL(IBO)  
 Redundancy group numbers read from rec  2100.2  Type=RKS/LOCAL(IBO)  

 IBBA/SVP energy=      0.000000000000

        KS-SCF  
   -201.72380017
 **********************************************************************************************************************************
 Molpro calculation terminated
