
 Primary working directories    : /tmp/sb13343
 Secondary working directories  : /tmp/sb13343
 Wavefunction directory         : /panfs/panasas01/chem/sb13343/wfu/
 Main file repository           : /tmp/sb13343/

 SHA1      : b4a5b34a9e711420743f49e6833241d17c61fb3c
 NAME      : 2099.9.b4a5b34
 ARCHNAME  : linux/x86_64_openmp
 FC        : /cm/shared/languages/GCC-6.1/bin/gfortran
 BLASLIB   : -lblas
 id        : simonbennie

 Nodes     nprocs
 node35-044    1

 Using customized tuning parameters: mindgm=1; mindgv=20; mindgc=4; mindgr=1; noblas=0; minvec=7
 default implementation of scratch files=df  

 memory,500,m
 geomtyp=xyz
 nosym
 noorient
 geometry={
 C          0.00000        0.00000        0.00000
 H          0.00000        0.00000        1.10056
 C          1.46209        0.00000       -0.46855
 C         -0.73105       -1.26621       -0.46855
 C         -0.73105        1.26621       -0.46855
 H          1.52118        0.00000       -1.56505
 H         -0.76059       -1.31738       -1.56505
 H         -0.76059        1.31738       -1.56505
 H          1.99755        0.88622       -0.10723
 H          1.99755       -0.88622       -0.10723
 H         -0.23129       -2.17304       -0.10723
 H         -1.76626       -1.28682       -0.10723
 H         -1.76626        1.28682       -0.10723
 H         -0.23129        2.17304       -0.10723
 }
 basis={ default,svp }
 {ks,MM06-L,direct;wf,34,1,0}
 {ibba,bonds=1}

 Variables initialized (895), CPU time= 0.00 sec
 Commands  initialized (725), CPU time= 0.02 sec, 591 directives.
 Default parameters read. Elapsed time= 2.49 sec

 Checking input...
 Passed
1


                                         ***  PROGRAM SYSTEM MOLPRO  ***
                                       Copyright, TTI GmbH Stuttgart, 2015
                                    Version 2099.9 linked May 26 2017 16:03:21


 **********************************************************************************************************************************
 LABEL *                                                                                 
  64 bit serial version                                                                  DATE: 07-Jun-17          TIME: 18:42:34  
 **********************************************************************************************************************************

 SHA1:             b4a5b34a9e711420743f49e6833241d17c61fb3c
 **********************************************************************************************************************************
 SETTING GEOMTYP        =    XYZ

 Variable memory set to  500000000 words,  buffer space 

 ZSYMEL=NOSYM

 SETTING BASIS          =    SVP


 Recomputing integrals since basis changed


 Using spherical harmonics

 Library entry C      S def2-SVP             selected for orbital group  1
 Library entry C      P def2-SVP             selected for orbital group  1
 Library entry C      D def2-SVP             selected for orbital group  1
 Library entry H      S def2-SVP             selected for orbital group  2
 Library entry H      P def2-SVP             selected for orbital group  2


 PROGRAM * SEWARD (Integral evaluation for generally contracted gaussian basis sets)     Author: Roland Lindh, 1990

 Geometry written to block  1 of record 700


 Point group  C1  



 ATOMIC COORDINATES

 NR  ATOM    CHARGE       X              Y              Z

   1  C       6.00    0.000000000    0.000000000    0.000000000
   2  H       1.00    0.000000000    0.000000000    2.079756984
   3  C       6.00    2.762949669    0.000000000   -0.885431176
   4  C       6.00   -1.381484283   -2.392790116   -0.885431176
   5  C       6.00   -1.381484283    2.392790116   -0.885431176
   6  H       1.00    2.874613586    0.000000000   -2.957515871
   7  H       1.00   -1.437306793   -2.489487402   -2.957515871
   8  H       1.00   -1.437306793    2.489487402   -2.957515871
   9  H       1.00    3.774822420    1.674713086   -0.202635332
  10  H       1.00    3.774822420   -1.674713086   -0.202635332
  11  H       1.00   -0.437074755   -4.106450458   -0.202635332
  12  H       1.00   -3.337747665   -2.431737372   -0.202635332
  13  H       1.00   -3.337747665    2.431737372   -0.202635332
  14  H       1.00   -0.437074755    4.106450458   -0.202635332

 Bond lengths in Bohr (Angstrom)

 1-2  2.079756984  1-3  2.901358172  1-4  2.901367218  1-5  2.901367218  3-6  2.075091279
     ( 1.100560000)     ( 1.535332625)     ( 1.535337412)     ( 1.535337412)     ( 1.098091015)

  3- 9  2.072380406   3-10  2.072380406   4- 7  2.075090722   4-11  2.072378172   4-12  2.072364222
       ( 1.096656483)       ( 1.096656483)       ( 1.098090721)       ( 1.096655301)       ( 1.096647919)

  5- 8  2.075090722   5-13  2.072364222   5-14  2.072378172
       ( 1.098090721)       ( 1.096647919)       ( 1.096655301)

 Bond angles

  1- 3- 6  110.85354902   1- 3- 9  111.37220114   1- 3-10  111.37220114   1- 4- 7  110.85320625

  1- 4-11  111.37204414   1- 4-12  111.37216555   1- 5- 8  110.85320625   1- 5-13  111.37216555

  1- 5-14  111.37204414   2- 1- 3  107.76888332   2- 1- 4  107.76882608   2- 1- 5  107.76882608

  3-1-4  111.11870751   3-1-5  111.11870751   4-1-5  111.11845005   6-3-9  107.62119374

  6- 3-10  107.62119374   7- 4-11  107.62125572   7- 4-12  107.62162102   8- 5-13  107.62162102

  8- 5-14  107.62125572   9- 3-10  107.82352924  11- 4-12  107.82360822  13- 5-14  107.82360822

 NUCLEAR CHARGE:                   34
 NUMBER OF PRIMITIVE AOS:         170
 NUMBER OF SYMMETRY AOS:          166
 NUMBER OF CONTRACTIONS:          106   ( 106A   )
 NUMBER OF CORE ORBITALS:           4   (   4A   )
 NUMBER OF VALENCE ORBITALS:       26   (  26A   )


 NUCLEAR REPULSION ENERGY  134.07051350


 Eigenvalues of metric

         1 0.225E-02 0.614E-02 0.614E-02 0.233E-01 0.256E-01 0.268E-01 0.268E-01 0.277E-01


 Contracted 2-electron integrals neglected if value below      1.0D-11
 AO integral compression algorithm  1   Integral accuracy      1.0D-11

     64.750 MB (compressed) written to integral file ( 46.7%)


 NUMBER OF SORTED TWO-ELECTRON INTEGRALS:   16082956.     BUFFER LENGTH:  32768
 NUMBER OF SEGMENTS:   2  SEGMENT LENGTH:   15997996      RECORD LENGTH: 524288

 Memory used in sort:      16.56 MW

 SORT1 READ    17384690. AND WROTE    14795173. INTEGRALS IN     44 RECORDS. CPU TIME:     0.22 SEC, REAL TIME:     0.41 SEC
 SORT2 READ    14795173. AND WROTE    16082956. INTEGRALS IN    247 RECORDS. CPU TIME:     0.43 SEC, REAL TIME:     0.55 SEC

 FILE SIZES:   FILE 1:    95.4 MBYTE,  FILE 4:   184.6 MBYTE,   TOTAL:    279.9 MBYTE

 OPERATOR DM      FOR CENTER  0  COORDINATES:    0.000000    0.000000    0.000000


 **********************************************************************************************************************************
 DATASETS  * FILE   NREC   LENGTH (MB)   RECORD NAMES
              1      19       87.57       500      610      700      900      950      970     1000      129      960     1100   
                                          VAR    BASINP    GEOM    SYMINP    ZMAT    AOBASIS   BASIS     P2S    ABASIS      S 
                                         1400     1410     1200     1210     1080     1600     1650     1300     1700   
                                           T        V       H0       H01     AOSYM     SMH    MOLCAS    ERIS     OPER   

 PROGRAMS   *        TOTAL       INT
 CPU TIMES  *         2.66      2.51
 REAL TIME  *         6.63 SEC
 DISK USED  *       280.45 MB      
 **********************************************************************************************************************************

 Density functional group MM06-L=M06LX+M06LC
 Functional: M06LX(Automatically generated (new) M06LX)                        Gradient terms: 2
 Functional: M06LC(Automatically generated (new) M06LC)                        Gradient terms: 2
 Use grid at  1800.2

 Functional: M06LX                     Factor:  1.0000
 Functional: M06LC                     Factor:  1.0000

 Generated new metagrid on record  1800.2 with target accuracy 1.0D-06 and 45620 points in CPU time    1.0
 Computed new grid on record 1800.1 in CPU time    1.2
  169114 words reserved for DFT integration

 PROGRAM * RKS-SCF (Restricted closed shell Kohn-Sham)     Authors: W. Meyer, H.-J. Werner, P.J. Knowles, 1993

 NUMBER OF ELECTRONS:      17+   17-    SPACE SYMMETRY=1    SPIN SYMMETRY: Singlet 
 CONVERGENCE THRESHOLDS:    1.00E-05 (Density)    1.00E-06 (Energy)
 MAX. NUMBER OF ITERATIONS:       60
 INTERPOLATION TYPE:            DIIS
 INTERPOLATION STEPS:              2 (START)      1 (STEP)
 LEVEL SHIFTS:                  0.00 (CLOSED)  0.00 (OPEN) 



 Use fine grid record 1800.2 for energy threshold  1.0D-06
 Orbital guess generated from atomic densities. Full valence occupancy:   17

 Molecular orbital dump at record        2100.2

 Initial occupancy:  17

 ITERATION    DDIFF          GRAD             ENERGY        2-EL.EN.            DIPOLE MOMENTS         DIIS   ORB.
    1      0.000D+00      0.000D+00      -158.10144283    432.094172   -0.00015   -0.00000   -0.01758    0    start
    2      0.000D+00      0.110D-01      -157.89034217    400.744098   -0.03879   -0.00000   -0.03024    1    diag
    3      0.237D-01      0.159D-01      -158.31387410    419.156830   -0.00429   -0.00000    0.08429    2    diag
    4      0.154D-01      0.102D-02      -158.31508357    418.824940   -0.00838   -0.00000    0.01142    3    diag
    5      0.124D-02      0.502D-03      -158.31543509    418.921884   -0.00822   -0.00000    0.01469    4    diag
    6      0.469D-03      0.967D-04      -158.31544817    418.887221   -0.00758   -0.00000    0.03407    5    diag
    7      0.118D-03      0.296D-04      -158.31544968    418.883366   -0.00782   -0.00000    0.02486    6    diag
    8      0.368D-04      0.451D-05      -158.31544972    418.881956   -0.00783   -0.00000    0.02638    7    diag
    9      0.681D-05      0.646D-06      -158.31544972    418.882104   -0.00782   -0.00000    0.02612    0    orth

 Final occupancy:  17

 !RKS STATE 1.1 Energy               -158.315449721735
 Nuclear energy                       134.07051350
 One-electron energy                 -476.40905231
 Two-electron energy                  209.44105196
 Density functional                   -25.41796287     M06LX=-24.26604392 M06LC= -1.15191895
 Virial quotient                       -1.01262682
 !RKS STATE 1.1 Dipole moment          -0.00781784    -0.00000000     0.02611640
 Dipole moment /Debye                  -0.01986967    -0.00000000     0.06637691

 Orbital energies:

         1.1          2.1          3.1          4.1          5.1          6.1          7.1          8.1          9.1         10.1
    -10.060774   -10.046896   -10.046889   -10.046831    -0.753379    -0.634506    -0.634453    -0.514158    -0.420755    -0.391113

        11.1         12.1         13.1         14.1         15.1         16.1         17.1         18.1         19.1
     -0.391111    -0.345239    -0.345022    -0.326058    -0.295575    -0.295075    -0.285221     0.067514     0.102684

 HOMO     17.1    -0.285221 =      -7.7613eV
 LUMO     18.1     0.067514 =       1.8371eV
 LUMO-HOMO         0.352735 =       9.5984eV


 **********************************************************************************************************************************
 DATASETS  * FILE   NREC   LENGTH (MB)   RECORD NAMES
              1      20       89.03       500      610      700      900      950      970     1000      129      960     1100   
                                          VAR    BASINP    GEOM    SYMINP    ZMAT    AOBASIS   BASIS     P2S    ABASIS      S 
                                         1400     1410     1200     1210     1080     1600     1650     1300     1700     1800   
                                           T        V       H0       H01     AOSYM     SMH    MOLCAS    ERIS     OPER     GRID   

              2       5        3.22       700     1000      520     1800     2100   
                                         GEOM     BASIS   MCVARS    GRID      RKS  

 PROGRAMS   *        TOTAL        KS       INT
 CPU TIMES  *        31.88     29.22      2.51
 REAL TIME  *        36.15 SEC
 DISK USED  *       280.45 MB      
 **********************************************************************************************************************************


 PROGRAM * Intrinsic Basis Bonding Analysis (IBBA)          Author: G. Knizia

 Molecular orbitals read from record     2100.2  Type=RKS/CANONICAL (state 1.1)
 Fock matrix read from record            2100.2  Type=RKS/TOTAL (state 1.1)
 Orbital energies read from record       2100.2  Type=RKS/CANONICAL (state 1.1)
 Density matrix read from record         2100.2  Type=RKS/CHARGE (state 1.1)

 Number of core orbitals:           4 (   4 )
 Number of closed-shell orbitals:  13 (  13 )

 Basis set MINAO-AUTO-PP generated.      Number of basis functions:   30 

 Polarized AO type:                A = (O Ot + (1-O)(1-Ot)) P12
 Orthogonalization method:         Symmetric (Loewdin)
 Localization functional:          L = sum[A,i] <i|n_A|i>^4 -> max

 Localization group 1:  17 orbitals, occupancy  2.000
 Iterative localization: IB/PM,    7 iter; Final gradient 0.26E-08

 Bond order analysis:       [THRPRINT= 0.020]

   CEN ATOM   CEN ATOM     WIBERG.BO      RENORM.BO
     1   C  -   3   C       1.015794       1.010741
     1   C  -   4   C       1.015612       1.010629
     1   C  -   5   C       1.015612       1.010629
     1   C  -   2   H       0.932056       0.951361

     2   H  -   1   C       0.932056       0.951361

     3   C  -   1   C       1.015794       1.010741
     3   C  -   9   H       0.965438       0.983074
     3   C  -  10   H       0.965438       0.983074
     3   C  -   6   H       0.963728       0.978323

     4   C  -   1   C       1.015612       1.010629
     4   C  -  11   H       0.965462       0.983044
     4   C  -  12   H       0.965312       0.983217
     4   C  -   7   H       0.963812       0.978288

     5   C  -   1   C       1.015612       1.010629
     5   C  -  14   H       0.965462       0.983044
     5   C  -  13   H       0.965312       0.983217
     5   C  -   8   H       0.963812       0.978288

     6   H  -   3   C       0.963728       0.978323

     7   H  -   4   C       0.963812       0.978288

     8   H  -   5   C       0.963812       0.978288

     9   H  -   3   C       0.965438       0.983074

    10   H  -   3   C       0.965438       0.983074

    11   H  -   4   C       0.965462       0.983044

    12   H  -   4   C       0.965312       0.983217

    13   H  -   5   C       0.965312       0.983217

    14   H  -   5   C       0.965462       0.983044


 Valency analysis:

   CEN ATOM   TOT.VALENCE
     1   C       3.984486
     2   H       0.987133
     3   C       3.946072
     4   C       3.946074
     5   C       3.946074
     6   H       0.984613
     7   H       0.984704
     8   H       0.984704
     9   H       0.983664
    10   H       0.983664
    11   H       0.983750
    12   H       0.983473
    13   H       0.983473
    14   H       0.983750

 Total charge composition:

   CEN ATOM         s          p       ELECTRONS ->P.CHARGE
     1   C       2.96175    3.10142      6.06317   -0.06317
     2   H       0.88657                 0.88657    0.11343
     3   C       3.03639    3.36027      6.39666   -0.39666
     4   C       3.03631    3.36004      6.39635   -0.39635
     5   C       3.03631    3.36004      6.39635   -0.39635
     6   H       0.87595                 0.87595    0.12405
     7   H       0.87632                 0.87632    0.12368
     8   H       0.87632                 0.87632    0.12368
     9   H       0.87219                 0.87219    0.12781
    10   H       0.87219                 0.87219    0.12781
    11   H       0.87252                 0.87252    0.12748
    12   H       0.87144                 0.87144    0.12856
    13   H       0.87144                 0.87144    0.12856
    14   H       0.87252                 0.87252    0.12748

 Total charge composition, AO contributions:

   CEN ATOM SHL      SPHERICAL COMPONENTS
     1   C  1s       1.99144
     1   C  2s       0.97031
     1   C  2p       1.00088    1.00075    1.09979

     2   H  1s       0.88657

     3   C  1s       1.99083
     3   C  2s       1.04555
     3   C  2p       1.06695    1.15207    1.14125

     4   C  1s       1.99083
     4   C  2s       1.04548
     4   C  2p       1.13158    1.08766    1.14080

     5   C  1s       1.99083
     5   C  2s       1.04548
     5   C  2p       1.13158    1.08766    1.14080

     6   H  1s       0.87595

     7   H  1s       0.87632

     8   H  1s       0.87632

     9   H  1s       0.87219

    10   H  1s       0.87219

    11   H  1s       0.87252

    12   H  1s       0.87144

    13   H  1s       0.87144

    14   H  1s       0.87252

 Summary of localized orbital composition:   [THRPRINT= 0.020]

   ORB  GRP  ORB.ENERGY      CENTERS/CHARGES
     1   1    -9.957738      C  1   2.000
     2   1    -9.932632      C  5   2.000
     3   1    -9.932632      C  4   2.000
     4   1    -9.932559      C  3   2.000
     5   1    -0.517339      C  3   1.009   C  1   0.975
     6   1    -0.517082      C  4   1.009   C  1   0.975
     7   1    -0.517082      C  5   1.009   C  1   0.975
     8   1    -0.453901      C  5   1.127   H 13   0.864
     9   1    -0.453901      C  4   1.127   H 12   0.864
    10   1    -0.453351      C  5   1.122   H  8   0.869
    11   1    -0.453351      C  4   1.122   H  7   0.869
    12   1    -0.453265      C  3   1.122   H  6   0.869
    13   1    -0.452972      C  3   1.126   H  9   0.865
    14   1    -0.452972      C  3   1.126   H 10   0.865
    15   1    -0.452782      C  4   1.125   H 11   0.865
    16   1    -0.452782      C  5   1.125   H 14   0.865
    17   1    -0.446713      C  1   1.096   H  2   0.873   (other: 0.031)

 Localized orbitals saved to record      2100.2  (orbital set 2)


 **********************************************************************************************************************************
 DATASETS  * FILE   NREC   LENGTH (MB)   RECORD NAMES
              1      20       89.03       500      610      700      900      950      970     1000      129      960     1100   
                                          VAR    BASINP    GEOM    SYMINP    ZMAT    AOBASIS   BASIS     P2S    ABASIS      S 
                                         1400     1410     1200     1210     1080     1600     1650     1300     1700     1800   
                                           T        V       H0       H01     AOSYM     SMH    MOLCAS    ERIS     OPER     GRID   

              2       5        3.31       700     1000      520     1800     2100   
                                         GEOM     BASIS   MCVARS    GRID      RKS  

 PROGRAMS   *        TOTAL      IBBA        KS       INT
 CPU TIMES  *        31.91      0.03     29.22      2.51
 REAL TIME  *        36.28 SEC
 DISK USED  *       280.45 MB      
 **********************************************************************************************************************************
 Molecular orbitals read from record     2100.2  Type=RKS/LOCAL(IBO)  
 Occupation numbers read from record     2100.2  Type=RKS/LOCAL(IBO)  
 Orbital energies read from record       2100.2  Type=RKS/LOCAL(IBO)  
 Redundancy group numbers read from rec  2100.2  Type=RKS/LOCAL(IBO)  

 IBBA/SVP energy=      0.000000000000

        KS-SCF  
   -158.31544972
 **********************************************************************************************************************************
 Molpro calculation terminated
