
 Primary working directories    : /tmp/sb13343
 Secondary working directories  : /tmp/sb13343
 Wavefunction directory         : /panfs/panasas01/chem/sb13343/wfu/
 Main file repository           : /tmp/sb13343/

 SHA1      : b4a5b34a9e711420743f49e6833241d17c61fb3c
 NAME      : 2099.9.b4a5b34
 ARCHNAME  : linux/x86_64_openmp
 FC        : /cm/shared/languages/GCC-6.1/bin/gfortran
 BLASLIB   : -lblas
 id        : simonbennie

 Nodes     nprocs
 node35-002    1

 Using customized tuning parameters: mindgm=1; mindgv=20; mindgc=4; mindgr=1; noblas=0; minvec=7
 default implementation of scratch files=df  

 memory,500,m
 geomtyp=xyz
 nosym
 noorient
 geometry={
 C          0.00000        0.00000        0.00000
 H          0.00000        0.00000        1.10056
 C          1.46209        0.00000       -0.46855
 C         -0.73105       -1.26621       -0.46855
 C         -0.73105        1.26621       -0.46855
 H          1.52118        0.00000       -1.56505
 H         -0.76059       -1.31738       -1.56505
 H         -0.76059        1.31738       -1.56505
 H          1.99755        0.88622       -0.10723
 H          1.99755       -0.88622       -0.10723
 H         -0.23129       -2.17304       -0.10723
 H         -1.76626       -1.28682       -0.10723
 H         -1.76626        1.28682       -0.10723
 H         -0.23129        2.17304       -0.10723
 }
 basis={ default,svp }
 {uks,HFS,direct;wf,34,1,0}
 {ibba,bonds=1}

 Variables initialized (895), CPU time= 0.00 sec
 Commands  initialized (725), CPU time= 0.02 sec, 591 directives.
 Default parameters read. Elapsed time= 3.82 sec

 Checking input...
 Passed
1


                                         ***  PROGRAM SYSTEM MOLPRO  ***
                                       Copyright, TTI GmbH Stuttgart, 2015
                                    Version 2099.9 linked May 26 2017 16:03:21


 **********************************************************************************************************************************
 LABEL *                                                                                 
  64 bit serial version                                                                  DATE: 07-Jun-17          TIME: 19:43:29  
 **********************************************************************************************************************************

 SHA1:             b4a5b34a9e711420743f49e6833241d17c61fb3c
 **********************************************************************************************************************************
 SETTING GEOMTYP        =    XYZ

 Variable memory set to  500000000 words,  buffer space 

 ZSYMEL=NOSYM

 SETTING BASIS          =    SVP


 Recomputing integrals since basis changed


 Using spherical harmonics

 Library entry C      S def2-SVP             selected for orbital group  1
 Library entry C      P def2-SVP             selected for orbital group  1
 Library entry C      D def2-SVP             selected for orbital group  1
 Library entry H      S def2-SVP             selected for orbital group  2
 Library entry H      P def2-SVP             selected for orbital group  2


 PROGRAM * SEWARD (Integral evaluation for generally contracted gaussian basis sets)     Author: Roland Lindh, 1990

 Geometry written to block  1 of record 700


 Point group  C1  



 ATOMIC COORDINATES

 NR  ATOM    CHARGE       X              Y              Z

   1  C       6.00    0.000000000    0.000000000    0.000000000
   2  H       1.00    0.000000000    0.000000000    2.079756984
   3  C       6.00    2.762949669    0.000000000   -0.885431176
   4  C       6.00   -1.381484283   -2.392790116   -0.885431176
   5  C       6.00   -1.381484283    2.392790116   -0.885431176
   6  H       1.00    2.874613586    0.000000000   -2.957515871
   7  H       1.00   -1.437306793   -2.489487402   -2.957515871
   8  H       1.00   -1.437306793    2.489487402   -2.957515871
   9  H       1.00    3.774822420    1.674713086   -0.202635332
  10  H       1.00    3.774822420   -1.674713086   -0.202635332
  11  H       1.00   -0.437074755   -4.106450458   -0.202635332
  12  H       1.00   -3.337747665   -2.431737372   -0.202635332
  13  H       1.00   -3.337747665    2.431737372   -0.202635332
  14  H       1.00   -0.437074755    4.106450458   -0.202635332

 Bond lengths in Bohr (Angstrom)

 1-2  2.079756984  1-3  2.901358172  1-4  2.901367218  1-5  2.901367218  3-6  2.075091279
     ( 1.100560000)     ( 1.535332625)     ( 1.535337412)     ( 1.535337412)     ( 1.098091015)

  3- 9  2.072380406   3-10  2.072380406   4- 7  2.075090722   4-11  2.072378172   4-12  2.072364222
       ( 1.096656483)       ( 1.096656483)       ( 1.098090721)       ( 1.096655301)       ( 1.096647919)

  5- 8  2.075090722   5-13  2.072364222   5-14  2.072378172
       ( 1.098090721)       ( 1.096647919)       ( 1.096655301)

 Bond angles

  1- 3- 6  110.85354902   1- 3- 9  111.37220114   1- 3-10  111.37220114   1- 4- 7  110.85320625

  1- 4-11  111.37204414   1- 4-12  111.37216555   1- 5- 8  110.85320625   1- 5-13  111.37216555

  1- 5-14  111.37204414   2- 1- 3  107.76888332   2- 1- 4  107.76882608   2- 1- 5  107.76882608

  3-1-4  111.11870751   3-1-5  111.11870751   4-1-5  111.11845005   6-3-9  107.62119374

  6- 3-10  107.62119374   7- 4-11  107.62125572   7- 4-12  107.62162102   8- 5-13  107.62162102

  8- 5-14  107.62125572   9- 3-10  107.82352924  11- 4-12  107.82360822  13- 5-14  107.82360822

 NUCLEAR CHARGE:                   34
 NUMBER OF PRIMITIVE AOS:         170
 NUMBER OF SYMMETRY AOS:          166
 NUMBER OF CONTRACTIONS:          106   ( 106A   )
 NUMBER OF CORE ORBITALS:           4   (   4A   )
 NUMBER OF VALENCE ORBITALS:       26   (  26A   )


 NUCLEAR REPULSION ENERGY  134.07051350


 Eigenvalues of metric

         1 0.225E-02 0.614E-02 0.614E-02 0.233E-01 0.256E-01 0.268E-01 0.268E-01 0.277E-01


 Contracted 2-electron integrals neglected if value below      1.0D-11
 AO integral compression algorithm  1   Integral accuracy      1.0D-11

     64.750 MB (compressed) written to integral file ( 46.7%)


 NUMBER OF SORTED TWO-ELECTRON INTEGRALS:   16082956.     BUFFER LENGTH:  32768
 NUMBER OF SEGMENTS:   2  SEGMENT LENGTH:   15997996      RECORD LENGTH: 524288

 Memory used in sort:      16.56 MW

 SORT1 READ    17384690. AND WROTE    14795173. INTEGRALS IN     44 RECORDS. CPU TIME:     0.21 SEC, REAL TIME:     0.43 SEC
 SORT2 READ    14795173. AND WROTE    16082956. INTEGRALS IN    247 RECORDS. CPU TIME:     0.39 SEC, REAL TIME:     0.52 SEC

 FILE SIZES:   FILE 1:    95.4 MBYTE,  FILE 4:   184.6 MBYTE,   TOTAL:    279.9 MBYTE

 OPERATOR DM      FOR CENTER  0  COORDINATES:    0.000000    0.000000    0.000000


 **********************************************************************************************************************************
 DATASETS  * FILE   NREC   LENGTH (MB)   RECORD NAMES
              1      19       87.57       500      610      700      900      950      970     1000      129      960     1100   
                                          VAR    BASINP    GEOM    SYMINP    ZMAT    AOBASIS   BASIS     P2S    ABASIS      S 
                                         1400     1410     1200     1210     1080     1600     1650     1300     1700   
                                           T        V       H0       H01     AOSYM     SMH    MOLCAS    ERIS     OPER   

 PROGRAMS   *        TOTAL       INT
 CPU TIMES  *         2.64      2.49
 REAL TIME  *         7.94 SEC
 DISK USED  *       280.45 MB      
 **********************************************************************************************************************************

 Density functional group HFS=DIRAC
 Functional: DIRAC(Automatically generated (new) DIRAC)                        Gradient terms: 0
 Use grid at  1800.2

 Functional: DIRAC                     Factor:  1.0000

 Generated new metagrid on record  1800.2 with target accuracy 1.0D-06 and 45620 points in CPU time    1.0
 Computed new grid on record 1800.1 in CPU time    1.2
   47956 words reserved for DFT integration

 PROGRAM * UKS-SCF (Unrestricted Kohn-Sham)     Authors: W. Meyer, H.-J. Werner, P.J. Knowles, 1993

 NUMBER OF ELECTRONS:      17+   17-    SPACE SYMMETRY=1    SPIN SYMMETRY: Singlet 
 CONVERGENCE THRESHOLDS:    1.00E-05 (Density)    1.00E-06 (Energy)
 MAX. NUMBER OF ITERATIONS:       60
 INTERPOLATION TYPE:            DIIS
 INTERPOLATION STEPS:              2 (START)      1 (STEP)
 LEVEL SHIFTS:                 -0.20 (ALPHA)  -0.20 (BETA) 



 Use fine grid record 1800.2 for energy threshold  1.0D-06
 Orbital guess generated from atomic densities. Full valence occupancy:   17

 Molecular orbital dump at record        2200.2

 Initial alpha occupation  17
 Initial beta  occupation  17

 ITERATION    DDIFF          GRAD             ENERGY        2-EL.EN.            DIPOLE MOMENTS         DIIS
    1      0.000D+00      0.000D+00      -154.43089266    433.525880   -0.00014   -0.00000   -0.02083    0
    2      0.153D-01      0.671D-02      -154.65918805    411.355159   -0.00018   -0.00000    0.00357    1
    3      0.524D-02      0.354D-02      -154.72516664    417.913938   -0.00017   -0.00000    0.04648    2
    4      0.122D-02      0.282D-03      -154.72605020    417.685913   -0.00018   -0.00000    0.03977    3
    5      0.737D-03      0.120D-03      -154.72626218    417.635736   -0.00018   -0.00000    0.04299    4
    6      0.440D-03      0.501D-04      -154.72630606    417.590300   -0.00018   -0.00000    0.04795    5
    7      0.103D-03      0.155D-04      -154.72630916    417.593978   -0.00018   -0.00000    0.04463    6
    8      0.300D-04      0.388D-05      -154.72630940    417.593099   -0.00019   -0.00000    0.04633    7
    9      0.622D-05      0.884D-06      -154.72630941    417.592767   -0.00019   -0.00000    0.04600    6
   10      0.180D-05      0.225D-06      -154.72630941    417.593109   -0.00019   -0.00000    0.04606    7

 Final alpha occupancy:  17
 Final beta  occupancy:  17

 !UKS STATE 1.1 Energy               -154.726309409212
 Nuclear energy                       134.07051350
 One-electron energy                 -475.93826110
 Two-electron energy                  208.79655438
 Density functional                   -21.65511618     DIRAC=-21.65511618
 Virial quotient                       -0.99728981
 !UKS STATE 1.1 Dipole moment          -0.00018524    -0.00000000     0.04605843
 Dipole moment /Debye                  -0.00047081    -0.00000000     0.11706117

 Orbital energies for positive spin:

         1.1          2.1          3.1          4.1          5.1          6.1          7.1          8.1          9.1         10.1
     -9.715659    -9.698694    -9.698685    -9.698621    -0.666968    -0.552955    -0.552954    -0.442729    -0.365378    -0.335487

        11.1         12.1         13.1         14.1         15.1         16.1         17.1         18.1         19.1
     -0.335479    -0.286621    -0.286617    -0.265475    -0.239385    -0.239384    -0.228295     0.059552     0.105397

 Orbital energies for negative spin:

         1.1          2.1          3.1          4.1          5.1          6.1          7.1          8.1          9.1         10.1
     -9.715659    -9.698694    -9.698685    -9.698621    -0.666968    -0.552955    -0.552954    -0.442729    -0.365378    -0.335487

        11.1         12.1         13.1         14.1         15.1         16.1         17.1         18.1         19.1
     -0.335479    -0.286621    -0.286617    -0.265475    -0.239385    -0.239384    -0.228295     0.059552     0.105397

 HOMO     17.1    -0.228295 =      -6.2122eV
 LUMO     18.1     0.059552 =       1.6205eV
 LUMO-HOMO         0.287847 =       7.8327eV

 EXPECTATION VALUE OF S**2:            -0.00000000

 Natural orbitals saved to record    2200.2 (Orbital set 3)

 Orbital spaces for UNO-CAS (Min. occupation: 0.020  Max. occupation: 1.980):

 Closed:       17
 Active:        0


 **********************************************************************************************************************************
 DATASETS  * FILE   NREC   LENGTH (MB)   RECORD NAMES
              1      20       89.03       500      610      700      900      950      970     1000      129      960     1100   
                                          VAR    BASINP    GEOM    SYMINP    ZMAT    AOBASIS   BASIS     P2S    ABASIS      S 
                                         1400     1410     1200     1210     1080     1600     1650     1300     1700     1800   
                                           T        V       H0       H01     AOSYM     SMH    MOLCAS    ERIS     OPER     GRID   

              2       5        3.45       700     1000      520     1800     2200   
                                         GEOM     BASIS   MCVARS    GRID      UKS  

 PROGRAMS   *        TOTAL       UKS       INT
 CPU TIMES  *        11.95      9.31      2.49
 REAL TIME  *        20.66 SEC
 DISK USED  *       280.45 MB      
 **********************************************************************************************************************************


 PROGRAM * Intrinsic Basis Bonding Analysis (IBBA)          Author: G. Knizia

 Molecular orbitals read from record     2200.2  Type=UKS/ALPHA (state 1.1)
 Fock matrix read from record            2200.2  Type=UKS/TOTAL (state 1.1)
 Orbital energies read from record       2200.2  Type=UKS/ALPHA (state 1.1)
 Density matrix read from record         2200.2  Type=UKS/CHARGE (state 1.1)

 Number of core orbitals:           4 (   4 )
 Number of closed-shell orbitals:  13 (  13 )

 Basis set MINAO-AUTO-PP generated.      Number of basis functions:   30 

 Polarized AO type:                A = (O Ot + (1-O)(1-Ot)) P12
 Orthogonalization method:         Symmetric (Loewdin)
 Localization functional:          L = sum[A,i] <i|n_A|i>^4 -> max

 Localization group 1:  17 orbitals, occupancy  2.000
 Iterative localization: IB/PM,    7 iter; Final gradient 0.18E-08

 Bond order analysis:       [THRPRINT= 0.020]

   CEN ATOM   CEN ATOM     WIBERG.BO      RENORM.BO
     1   C  -   3   C       1.014089       1.009387
     1   C  -   5   C       1.014080       1.009374
     1   C  -   4   C       1.014080       1.009374
     1   C  -   2   H       0.926016       0.952565

     2   H  -   1   C       0.926016       0.952565

     3   C  -   1   C       1.014089       1.009387
     3   C  -   9   H       0.959835       0.981389
     3   C  -  10   H       0.959835       0.981389
     3   C  -   6   H       0.957518       0.974574

     4   C  -   1   C       1.014080       1.009374
     4   C  -  11   H       0.959844       0.981392
     4   C  -  12   H       0.959831       0.981393
     4   C  -   7   H       0.957512       0.974569

     5   C  -   1   C       1.014080       1.009374
     5   C  -  14   H       0.959844       0.981392
     5   C  -  13   H       0.959831       0.981393
     5   C  -   8   H       0.957512       0.974569

     6   H  -   3   C       0.957518       0.974574

     7   H  -   4   C       0.957512       0.974569

     8   H  -   5   C       0.957512       0.974569

     9   H  -   3   C       0.959835       0.981389

    10   H  -   3   C       0.959835       0.981389

    11   H  -   4   C       0.959844       0.981392

    12   H  -   4   C       0.959831       0.981393

    13   H  -   5   C       0.959831       0.981393

    14   H  -   5   C       0.959844       0.981392


 Valency analysis:

   CEN ATOM   TOT.VALENCE
     1   C       3.977863
     2   H       0.984650
     3   C       3.934213
     4   C       3.934206
     5   C       3.934206
     6   H       0.983113
     7   H       0.983110
     8   H       0.983110
     9   H       0.981812
    10   H       0.981812
    11   H       0.981819
    12   H       0.981804
    13   H       0.981804
    14   H       0.981819

 Total charge composition:

   CEN ATOM         s          p       ELECTRONS ->P.CHARGE
     1   C       2.93529    3.13935      6.07464   -0.07464
     2   H       0.87610                 0.87610    0.12390
     3   C       3.01031    3.40579      6.41609   -0.41609
     4   C       3.01031    3.40580      6.41611   -0.41611
     5   C       3.01031    3.40580      6.41611   -0.41611
     6   H       0.87005                 0.87005    0.12995
     7   H       0.87004                 0.87004    0.12996
     8   H       0.87004                 0.87004    0.12996
     9   H       0.86514                 0.86514    0.13486
    10   H       0.86514                 0.86514    0.13486
    11   H       0.86516                 0.86516    0.13484
    12   H       0.86511                 0.86511    0.13489
    13   H       0.86511                 0.86511    0.13489
    14   H       0.86516                 0.86516    0.13484

 Total charge composition, AO contributions:

   CEN ATOM SHL      SPHERICAL COMPONENTS
     1   C  1s       1.99285
     1   C  2s       0.94244
     1   C  2p       1.01139    1.01139    1.11657

     2   H  1s       0.87610

     3   C  1s       1.99228
     3   C  2s       1.01803
     3   C  2p       1.07523    1.17143    1.15912

     4   C  1s       1.99228
     4   C  2s       1.01803
     4   C  2p       1.14740    1.09926    1.15914

     5   C  1s       1.99228
     5   C  2s       1.01803
     5   C  2p       1.14740    1.09926    1.15914

     6   H  1s       0.87005

     7   H  1s       0.87004

     8   H  1s       0.87004

     9   H  1s       0.86514

    10   H  1s       0.86514

    11   H  1s       0.86516

    12   H  1s       0.86511

    13   H  1s       0.86511

    14   H  1s       0.86516

 Summary of localized orbital composition:   [THRPRINT= 0.020]

   ORB  GRP  ORB.ENERGY      CENTERS/CHARGES
     1   1    -9.618854      C  1   2.000
     2   1    -9.591988      C  3   2.000
     3   1    -9.591975      C  4   2.000
     4   1    -9.591975      C  5   2.000
     5   1    -0.450135      C  3   1.006   C  1   0.975
     6   1    -0.450129      C  4   1.006   C  1   0.975
     7   1    -0.450129      C  5   1.006   C  1   0.975
     8   1    -0.387199      C  3   1.133   H  9   0.857
     9   1    -0.387199      C  3   1.133   H 10   0.857
    10   1    -0.387196      C  5   1.133   H 14   0.857
    11   1    -0.387196      C  4   1.133   H 11   0.857
    12   1    -0.387189      C  5   1.133   H 13   0.856
    13   1    -0.387189      C  4   1.133   H 12   0.856
    14   1    -0.386735      C  3   1.129   H  6   0.861
    15   1    -0.386726      C  5   1.129   H  8   0.861
    16   1    -0.386726      C  4   1.129   H  7   0.861
    17   1    -0.380779      C  1   1.104   H  2   0.862   (other: 0.035)

 Localized orbitals saved to record      2200.2  (orbital set 4)


 **********************************************************************************************************************************
 DATASETS  * FILE   NREC   LENGTH (MB)   RECORD NAMES
              1      20       89.03       500      610      700      900      950      970     1000      129      960     1100   
                                          VAR    BASINP    GEOM    SYMINP    ZMAT    AOBASIS   BASIS     P2S    ABASIS      S 
                                         1400     1410     1200     1210     1080     1600     1650     1300     1700     1800   
                                           T        V       H0       H01     AOSYM     SMH    MOLCAS    ERIS     OPER     GRID   

              2       5        3.54       700     1000      520     1800     2200   
                                         GEOM     BASIS   MCVARS    GRID      UKS  

 PROGRAMS   *        TOTAL      IBBA       UKS       INT
 CPU TIMES  *        11.99      0.04      9.31      2.49
 REAL TIME  *        20.81 SEC
 DISK USED  *       280.45 MB      
 **********************************************************************************************************************************
 Molecular orbitals read from record     2200.2  Type=UKS/LOCAL(IBO)  
 Occupation numbers read from record     2200.2  Type=UKS/LOCAL(IBO)  
 Orbital energies read from record       2200.2  Type=UKS/LOCAL(IBO)  
 Redundancy group numbers read from rec  2200.2  Type=UKS/BETA (state 1.1)

 IBBA/SVP energy=      0.000000000000

        UKS-SCF 
   -154.72630941
 **********************************************************************************************************************************
 Molpro calculation terminated
