
 Primary working directories    : /tmp/sb13343
 Secondary working directories  : /tmp/sb13343
 Wavefunction directory         : /panfs/panasas01/chem/sb13343/wfu/
 Main file repository           : /tmp/sb13343/

 SHA1      : b4a5b34a9e711420743f49e6833241d17c61fb3c
 NAME      : 2099.9.b4a5b34
 ARCHNAME  : linux/x86_64_openmp
 FC        : /cm/shared/languages/GCC-6.1/bin/gfortran
 BLASLIB   : -lblas
 id        : simonbennie

 Nodes     nprocs
 node35-002    1

 Using customized tuning parameters: mindgm=1; mindgv=20; mindgc=4; mindgr=1; noblas=0; minvec=7
 default implementation of scratch files=df  

 memory,500,m
 geomtyp=xyz
 nosym
 noorient
 geometry={
 O          0.25818        0.93788        0.04074
 C          1.63656        1.04230        0.32330
 H          1.89907        2.10041        0.23555
 H          2.26234        0.47024       -0.37847
 C         -0.29581       -0.36510        0.22961
 H          0.07373       -0.77023        1.18842
 C          0.09996       -1.32219       -0.89979
 C         -1.80707       -0.17660        0.31883
 H         -2.30941       -1.13436        0.49338
 H         -2.05917        0.50650        1.13581
 H         -2.19015        0.25071       -0.61475
 H         -0.34617       -2.31074       -0.74107
 H         -0.25158       -0.93408       -1.86253
 H          1.18531       -1.45552       -0.96063
 H          1.86878        0.70360        1.34661
 }
 basis={ default,svp }
 {ks,M08-SO,direct;wf,42,1,0}
 {ibba,bonds=1}

 Variables initialized (895), CPU time= 0.01 sec
 Commands  initialized (725), CPU time= 0.01 sec, 591 directives.
 Default parameters read. Elapsed time= 0.21 sec

 Checking input...
 Passed
1


                                         ***  PROGRAM SYSTEM MOLPRO  ***
                                       Copyright, TTI GmbH Stuttgart, 2015
                                    Version 2099.9 linked May 26 2017 16:03:21


 **********************************************************************************************************************************
 LABEL *                                                                                 
  64 bit serial version                                                                  DATE: 07-Jun-17          TIME: 22:03:16  
 **********************************************************************************************************************************

 SHA1:             b4a5b34a9e711420743f49e6833241d17c61fb3c
 **********************************************************************************************************************************
 SETTING GEOMTYP        =    XYZ

 Variable memory set to  500000000 words,  buffer space 

 ZSYMEL=NOSYM

 SETTING BASIS          =    SVP


 Recomputing integrals since basis changed


 Using spherical harmonics

 Library entry O      S def2-SVP             selected for orbital group  1
 Library entry O      P def2-SVP             selected for orbital group  1
 Library entry O      D def2-SVP             selected for orbital group  1
 Library entry C      S def2-SVP             selected for orbital group  2
 Library entry C      P def2-SVP             selected for orbital group  2
 Library entry C      D def2-SVP             selected for orbital group  2
 Library entry H      S def2-SVP             selected for orbital group  3
 Library entry H      P def2-SVP             selected for orbital group  3


 PROGRAM * SEWARD (Integral evaluation for generally contracted gaussian basis sets)     Author: Roland Lindh, 1990

 Geometry written to block  1 of record 700


 Point group  C1  



 ATOMIC COORDINATES

 NR  ATOM    CHARGE       X              Y              Z

   1  O       8.00    0.487889491    1.772336338    0.076987442
   2  C       6.00    3.092650186    1.969661540    0.610948456
   3  H       1.00    3.588722191    3.969199649    0.445124989
   4  H       1.00    4.275203001    0.888624813   -0.715204646
   5  C       6.00   -0.558999885   -0.689939008    0.433900015
   6  H       1.00    0.139329507   -1.455523753    2.245788321
   7  C       6.00    0.188897023   -2.498576985   -1.700356670
   8  C       6.00   -3.414867388   -0.333725634    0.602501380
   9  H       1.00   -4.364152409   -2.143629727    0.932353075
  10  H       1.00   -3.891267344    0.957146282    2.146369830
  11  H       1.00   -4.138783672    0.473773237   -1.161709135
  12  H       1.00   -0.654166493   -4.366665745   -1.400419339
  13  H       1.00   -0.475417298   -1.765155378   -3.519671599
  14  H       1.00    2.239911273   -2.750534169   -1.815327607
  15  H       1.00    3.531482387    1.329611301    2.544724097

 Bond lengths in Bohr (Angstrom)

  1- 2  2.666238902   1- 5  2.699289504   2- 3  2.066818209   2- 4  2.079844613   2-15  2.083680934
       ( 1.410912866)       ( 1.428402491)       ( 1.093713095)       ( 1.100606371)       ( 1.102636465)

  5- 6  2.087276497   5- 7  2.895785336   5- 8  2.882931422   7-12  2.071345966   7-13  2.071020903
       ( 1.104539155)       ( 1.532383608)       ( 1.525581609)       ( 1.096109081)       ( 1.095937065)

  7-14  2.069628032   8- 9  2.070192508   8-10  2.068051501   8-11  2.070880961
       ( 1.095199989)       ( 1.095498697)       ( 1.094365725)       ( 1.095863011)

 Bond angles

  1- 2- 3  106.85884507   1- 2- 4  112.91125973   1- 2-15  111.64621834   1- 5- 6  108.63888518

  1-5-7  111.84608248   1-5-8  106.21369660   2-1-5  114.82992588   3-2-4  108.37425913

  3- 2-15  108.72850466   4- 2-15  108.20064699   5- 7-12  110.57572754   5- 7-13  110.08520206

  5- 7-14  111.89623115   5- 8- 9  110.82645738   5- 8-10  110.42517473   5- 8-11  110.16013005

  6- 5- 7  108.92239636   6- 5- 8  109.02480146   7- 5- 8  112.09364518   9- 8-10  108.73162751

  9- 8-11  108.44218100  10- 8-11  108.18344616  12- 7-13  108.42317703  12- 7-14  107.55382926

 13- 7-14  108.19151953

 NUCLEAR CHARGE:                   42
 NUMBER OF PRIMITIVE AOS:         195
 NUMBER OF SYMMETRY AOS:          190
 NUMBER OF CONTRACTIONS:          120   ( 120A   )
 NUMBER OF CORE ORBITALS:           5   (   5A   )
 NUMBER OF VALENCE ORBITALS:       30   (  30A   )


 NUCLEAR REPULSION ENERGY  195.74983609


 Eigenvalues of metric

         1 0.241E-02 0.514E-02 0.104E-01 0.150E-01 0.214E-01 0.243E-01 0.289E-01 0.305E-01


 Contracted 2-electron integrals neglected if value below      1.0D-11
 AO integral compression algorithm  1   Integral accuracy      1.0D-11

     97.518 MB (compressed) written to integral file ( 44.4%)


 NUMBER OF SORTED TWO-ELECTRON INTEGRALS:   26357430.     BUFFER LENGTH:  32768
 NUMBER OF SEGMENTS:   2  SEGMENT LENGTH:   15997996      RECORD LENGTH: 524288

 Memory used in sort:      16.56 MW

 SORT1 READ    27501115. AND WROTE    22923365. INTEGRALS IN     67 RECORDS. CPU TIME:     0.32 SEC, REAL TIME:     0.64 SEC
 SORT2 READ    22923365. AND WROTE    26357430. INTEGRALS IN    372 RECORDS. CPU TIME:     0.62 SEC, REAL TIME:     4.41 SEC

 FILE SIZES:   FILE 1:   128.3 MBYTE,  FILE 4:   281.1 MBYTE,   TOTAL:    409.3 MBYTE

 OPERATOR DM      FOR CENTER  0  COORDINATES:    0.000000    0.000000    0.000000


 **********************************************************************************************************************************
 DATASETS  * FILE   NREC   LENGTH (MB)   RECORD NAMES
              1      19      116.03       500      610      700      900      950      970     1000      129      960     1100   
                                          VAR    BASINP    GEOM    SYMINP    ZMAT    AOBASIS   BASIS     P2S    ABASIS      S 
                                         1400     1410     1200     1210     1080     1600     1650     1300     1700   
                                           T        V       H0       H01     AOSYM     SMH    MOLCAS    ERIS     OPER   

 PROGRAMS   *        TOTAL       INT
 CPU TIMES  *         3.93      3.77
 REAL TIME  *         8.81 SEC
 DISK USED  *       409.85 MB      
 **********************************************************************************************************************************

 Density functional group M08-SO=XC-M08-SO
 Functional: XC-M08-SO(via MFM 1.6)                                            Gradient terms: 1
 Use grid at  1800.2


 Exact exchange will be calculated, factor:  0.5679

 Functional: XC-M08-SO                 Factor:  1.0000

 Generated new metagrid on record  1800.2 with target accuracy 1.0D-06 and 52852 points in CPU time    1.3
 Computed new grid on record 1800.1 in CPU time    1.5
   99539 words reserved for DFT integration

 PROGRAM * RKS-SCF (Restricted closed shell Kohn-Sham)     Authors: W. Meyer, H.-J. Werner, P.J. Knowles, 1993

 NUMBER OF ELECTRONS:      21+   21-    SPACE SYMMETRY=1    SPIN SYMMETRY: Singlet 
 CONVERGENCE THRESHOLDS:    1.00E-05 (Density)    1.00E-06 (Energy)
 MAX. NUMBER OF ITERATIONS:       60
 INTERPOLATION TYPE:            DIIS
 INTERPOLATION STEPS:              2 (START)      1 (STEP)
 LEVEL SHIFTS:                  0.00 (CLOSED)  0.00 (OPEN) 



 Use fine grid record 1800.2 for energy threshold  1.0D-06
 Orbital guess generated from atomic densities. Full valence occupancy:   21

 Molecular orbital dump at record        2100.2

 Initial occupancy:  21

 ITERATION    DDIFF          GRAD             ENERGY        2-EL.EN.            DIPOLE MOMENTS         DIIS   ORB.
    1      0.000D+00      0.000D+00      -233.24035220    585.890913    0.46101   -0.73956    0.25607    0    start
    2      0.000D+00      0.619D-02      -233.27149905    570.620706    0.08647   -0.14508    0.00238    1    diag
    3      0.109D-01      0.544D-02      -233.32994757    578.028170    0.28940   -0.42964    0.16248    2    diag
    4      0.521D-02      0.634D-03      -233.33043547    577.719808    0.26353   -0.38590    0.13523    3    diag
    5      0.628D-03      0.330D-03      -233.33061850    577.749976    0.27028   -0.40676    0.13798    4    diag
    6      0.289D-03      0.535D-04      -233.33062380    577.769951    0.27084   -0.40306    0.13977    5    diag
    7      0.652D-04      0.156D-04      -233.33062427    577.766575    0.27067   -0.40346    0.13955    6    diag
    8      0.153D-04      0.319D-05      -233.33062430    577.767490    0.27070   -0.40343    0.13933    7    diag
    9      0.392D-05      0.439D-06      -233.33062430    577.767144    0.27069   -0.40341    0.13940    0    orth

 Final occupancy:  21

 !RKS STATE 1.1 Energy               -233.330624297094
 Nuclear energy                       195.74983609
 One-electron energy                 -702.57795382
 Two-electron energy                  288.88357214
 SCF exchange energy                  -32.41850895     Factor= 0.5679
 Density functional                   -15.38607872     XC-M08-SO=-15.38607872
 Virial quotient                       -1.01262540
 !RKS STATE 1.1 Dipole moment           0.27069243    -0.40340706     0.13940457
 Dipole moment /Debye                   0.68798647    -1.02529132     0.35430787

 Orbital energies:

         1.1          2.1          3.1          4.1          5.1          6.1          7.1          8.1          9.1         10.1
    -19.571597   -10.560865   -10.552787   -10.504051   -10.500108    -1.127624    -0.871986    -0.778358    -0.754687    -0.656445

        11.1         12.1         13.1         14.1         15.1         16.1         17.1         18.1         19.1         20.1
     -0.572909    -0.540728    -0.536396    -0.497834    -0.465543    -0.457788    -0.446097    -0.419817    -0.412104    -0.378864

        21.1         22.1         23.1
     -0.331013     0.079212     0.108026

 HOMO     21.1    -0.331013 =      -9.0073eV
 LUMO     22.1     0.079212 =       2.1555eV
 LUMO-HOMO         0.410225 =      11.1628eV


 **********************************************************************************************************************************
 DATASETS  * FILE   NREC   LENGTH (MB)   RECORD NAMES
              1      20      117.72       500      610      700      900      950      970     1000      129      960     1100   
                                          VAR    BASINP    GEOM    SYMINP    ZMAT    AOBASIS   BASIS     P2S    ABASIS      S 
                                         1400     1410     1200     1210     1080     1600     1650     1300     1700     1800   
                                           T        V       H0       H01     AOSYM     SMH    MOLCAS    ERIS     OPER     GRID   

              2       5        3.30       700     1000      520     1800     2100   
                                         GEOM     BASIS   MCVARS    GRID      RKS  

 PROGRAMS   *        TOTAL        KS       INT
 CPU TIMES  *        30.80     26.87      3.77
 REAL TIME  *        36.17 SEC
 DISK USED  *       409.85 MB      
 **********************************************************************************************************************************


 PROGRAM * Intrinsic Basis Bonding Analysis (IBBA)          Author: G. Knizia

 Molecular orbitals read from record     2100.2  Type=RKS/CANONICAL (state 1.1)
 Fock matrix read from record            2100.2  Type=RKS/TOTAL (state 1.1)
 Orbital energies read from record       2100.2  Type=RKS/CANONICAL (state 1.1)
 Density matrix read from record         2100.2  Type=RKS/CHARGE (state 1.1)

 Number of core orbitals:           5 (   5 )
 Number of closed-shell orbitals:  16 (  16 )

 Basis set MINAO-AUTO-PP generated.      Number of basis functions:   35 

 Polarized AO type:                A = (O Ot + (1-O)(1-Ot)) P12
 Orthogonalization method:         Symmetric (Loewdin)
 Localization functional:          L = sum[A,i] <i|n_A|i>^4 -> max

 Localization group 1:  21 orbitals, occupancy  2.000
 Iterative localization: IB/PM,    7 iter; Final gradient 0.34E-08

 Bond order analysis:       [THRPRINT= 0.020]

   CEN ATOM   CEN ATOM     WIBERG.BO      RENORM.BO
     1   O  -   2   C       0.985194       1.016875
     1   O  -   5   C       0.945198       0.965316
     1   O  -   4   H       0.030881       0.018094
     1   O  -  15   H       0.029727       0.017543
     1   O  -   7   C       0.027489       0.014341
     1   O  -   6   H       0.023538       0.013940

     2   C  -   1   O       0.985194       1.016875
     2   C  -   3   H       0.959771       0.978541
     2   C  -  15   H       0.953982       0.943629
     2   C  -   4   H       0.953837       0.943242

     3   H  -   2   C       0.959771       0.978541

     4   H  -   2   C       0.953837       0.943242
     4   H  -   1   O       0.030881       0.018094

     5   C  -   8   C       1.011090       1.005268
     5   C  -   7   C       1.004266       0.982563
     5   C  -   1   O       0.945198       0.965316
     5   C  -   6   H       0.931134       0.923626

     6   H  -   5   C       0.931134       0.923626
     6   H  -   1   O       0.023538       0.013940

     7   C  -   5   C       1.004266       0.982563
     7   C  -  14   H       0.964709       0.985058
     7   C  -  12   H       0.963086       0.987879
     7   C  -  13   H       0.961647       0.981192
     7   C  -   1   O       0.027489       0.014341

     8   C  -   5   C       1.011090       1.005268
     8   C  -   9   H       0.965358       0.988087
     8   C  -  10   H       0.962251       0.985132
     8   C  -  11   H       0.961191       0.981327

     9   H  -   8   C       0.965358       0.988087

    10   H  -   8   C       0.962251       0.985132

    11   H  -   8   C       0.961191       0.981327

    12   H  -   7   C       0.963086       0.987879

    13   H  -   7   C       0.961647       0.981192

    14   H  -   7   C       0.964709       0.985058

    15   H  -   2   C       0.953982       0.943629
    15   H  -   1   O       0.029727       0.017543


 Valency analysis:

   CEN ATOM   TOT.VALENCE
     1   O       2.091161
     2   C       3.871705
     3   H       0.979493
     4   H       0.988531
     5   C       3.917128
     6   H       0.990717
     7   C       3.941336
     8   C       3.940263
     9   H       0.984333
    10   H       0.981606
    11   H       0.982778
    12   H       0.983250
    13   H       0.982835
    14   H       0.984473
    15   H       0.988811

 Total charge composition:

   CEN ATOM         s          p       ELECTRONS ->P.CHARGE
     1   O       3.57958    4.82386      8.40343   -0.40343
     2   C       3.00254    3.16319      6.16573   -0.16573
     3   H       0.85680                 0.85680    0.14320
     4   H       0.89290                 0.89290    0.10710
     5   C       2.94175    2.93857      5.88032    0.11968
     6   H       0.90365                 0.90365    0.09635
     7   C       3.00997    3.38794      6.39790   -0.39790
     8   C       3.00810    3.37402      6.38211   -0.38211
     9   H       0.87483                 0.87483    0.12517
    10   H       0.86438                 0.86438    0.13562
    11   H       0.86877                 0.86877    0.13123
    12   H       0.87058                 0.87058    0.12942
    13   H       0.86898                 0.86898    0.13102
    14   H       0.87539                 0.87539    0.12461
    15   H       0.89422                 0.89422    0.10578

 Total charge composition, AO contributions:

   CEN ATOM SHL      SPHERICAL COMPONENTS
     1   O  1s       1.99718
     1   O  2s       1.58239
     1   O  2p       1.39661    1.53329    1.89395

     2   C  1s       1.99171
     2   C  2s       1.01083
     2   C  2p       0.83661    1.18031    1.14626

     3   H  1s       0.85680

     4   H  1s       0.89290

     5   C  1s       1.99229
     5   C  2s       0.94945
     5   C  2p       1.01441    0.83639    1.08777

     6   H  1s       0.90365

     7   C  1s       1.99108
     7   C  2s       1.01889
     7   C  2p       1.15417    1.12242    1.11135

     8   C  1s       1.99101
     8   C  2s       1.01709
     8   C  2p       1.04924    1.15708    1.16770

     9   H  1s       0.87483

    10   H  1s       0.86438

    11   H  1s       0.86877

    12   H  1s       0.87058

    13   H  1s       0.86898

    14   H  1s       0.87539

    15   H  1s       0.89422

 Summary of localized orbital composition:   [THRPRINT= 0.020]

   ORB  GRP  ORB.ENERGY      CENTERS/CHARGES
     1   1   -19.427187      O  1   2.000
     2   1   -10.461024      C  5   2.000
     3   1   -10.441847      C  2   2.000
     4   1   -10.388001      C  7   2.000
     5   1   -10.383275      C  8   2.000
     6   1    -0.854724      O  1   1.250   C  2   0.742
     7   1    -0.835575      O  1   1.267   C  5   0.716
     8   1    -0.657763      C  5   0.998   C  8   0.988
     9   1    -0.656590      C  7   1.005   C  5   0.986
    10   1    -0.627213      O  1   1.964   (other: 0.036)
    11   1    -0.596755      C  2   1.124   H  4   0.875
    12   1    -0.595352      C  2   1.122   H 15   0.876
    13   1    -0.593386      C  2   1.144   H  3   0.849
    14   1    -0.590973      C  5   1.102   H  6   0.881
    15   1    -0.577134      C  7   1.122   H 12   0.863
    16   1    -0.575979      C  7   1.121   H 14   0.868
    17   1    -0.574061      C  8   1.119   H  9   0.868
    18   1    -0.571161      C  7   1.128   H 13   0.862
    19   1    -0.567618      C  8   1.128   H 11   0.862
    20   1    -0.567237      C  8   1.132   H 10   0.857
    21   1    -0.394749      O  1   1.917   (other: 0.083)

 Localized orbitals saved to record      2100.2  (orbital set 2)


 **********************************************************************************************************************************
 DATASETS  * FILE   NREC   LENGTH (MB)   RECORD NAMES
              1      20      117.72       500      610      700      900      950      970     1000      129      960     1100   
                                          VAR    BASINP    GEOM    SYMINP    ZMAT    AOBASIS   BASIS     P2S    ABASIS      S 
                                         1400     1410     1200     1210     1080     1600     1650     1300     1700     1800   
                                           T        V       H0       H01     AOSYM     SMH    MOLCAS    ERIS     OPER     GRID   

              2       5        3.42       700     1000      520     1800     2100   
                                         GEOM     BASIS   MCVARS    GRID      RKS  

 PROGRAMS   *        TOTAL      IBBA        KS       INT
 CPU TIMES  *        30.85      0.05     26.87      3.77
 REAL TIME  *        36.31 SEC
 DISK USED  *       409.85 MB      
 **********************************************************************************************************************************
 Molecular orbitals read from record     2100.2  Type=RKS/LOCAL(IBO)  
 Occupation numbers read from record     2100.2  Type=RKS/LOCAL(IBO)  
 Orbital energies read from record       2100.2  Type=RKS/LOCAL(IBO)  
 Redundancy group numbers read from rec  2100.2  Type=RKS/LOCAL(IBO)  

 IBBA/SVP energy=      0.000000000000

        KS-SCF  
   -233.33062430
 **********************************************************************************************************************************
 Molpro calculation terminated
