
 Primary working directories    : /tmp/sb13343
 Secondary working directories  : /tmp/sb13343
 Wavefunction directory         : /panfs/panasas01/chem/sb13343/wfu/
 Main file repository           : /tmp/sb13343/

 SHA1      : b4a5b34a9e711420743f49e6833241d17c61fb3c
 NAME      : 2099.9.b4a5b34
 ARCHNAME  : linux/x86_64_openmp
 FC        : /cm/shared/languages/GCC-6.1/bin/gfortran
 BLASLIB   : -lblas
 id        : simonbennie

 Nodes     nprocs
 node46-012    1

 Using customized tuning parameters: mindgm=1; mindgv=20; mindgc=4; mindgr=1; noblas=0; minvec=7
 default implementation of scratch files=df  

 memory,500,m
 geomtyp=xyz
 nosym
 noorient
 geometry={
 O          0.25818        0.93788        0.04074
 C          1.63656        1.04230        0.32330
 H          1.89907        2.10041        0.23555
 H          2.26234        0.47024       -0.37847
 C         -0.29581       -0.36510        0.22961
 H          0.07373       -0.77023        1.18842
 C          0.09996       -1.32219       -0.89979
 C         -1.80707       -0.17660        0.31883
 H         -2.30941       -1.13436        0.49338
 H         -2.05917        0.50650        1.13581
 H         -2.19015        0.25071       -0.61475
 H         -0.34617       -2.31074       -0.74107
 H         -0.25158       -0.93408       -1.86253
 H          1.18531       -1.45552       -0.96063
 H          1.86878        0.70360        1.34661
 }
 basis={ default,svp }
 {uks,SOGGA11,direct;wf,42,1,0}
 {ibba,bonds=1}

 Variables initialized (895), CPU time= 0.00 sec
 Commands  initialized (725), CPU time= 0.02 sec, 591 directives.
 Default parameters read. Elapsed time= 0.15 sec

 Checking input...
 Passed
1


                                         ***  PROGRAM SYSTEM MOLPRO  ***
                                       Copyright, TTI GmbH Stuttgart, 2015
                                    Version 2099.9 linked May 26 2017 16:03:21


 **********************************************************************************************************************************
 LABEL *                                                                                 
  64 bit serial version                                                                  DATE: 07-Jun-17          TIME: 22:08:37  
 **********************************************************************************************************************************

 SHA1:             b4a5b34a9e711420743f49e6833241d17c61fb3c
 **********************************************************************************************************************************
 SETTING GEOMTYP        =    XYZ

 Variable memory set to  500000000 words,  buffer space 

 ZSYMEL=NOSYM

 SETTING BASIS          =    SVP


 Recomputing integrals since basis changed


 Using spherical harmonics

 Library entry O      S def2-SVP             selected for orbital group  1
 Library entry O      P def2-SVP             selected for orbital group  1
 Library entry O      D def2-SVP             selected for orbital group  1
 Library entry C      S def2-SVP             selected for orbital group  2
 Library entry C      P def2-SVP             selected for orbital group  2
 Library entry C      D def2-SVP             selected for orbital group  2
 Library entry H      S def2-SVP             selected for orbital group  3
 Library entry H      P def2-SVP             selected for orbital group  3


 PROGRAM * SEWARD (Integral evaluation for generally contracted gaussian basis sets)     Author: Roland Lindh, 1990

 Geometry written to block  1 of record 700


 Point group  C1  



 ATOMIC COORDINATES

 NR  ATOM    CHARGE       X              Y              Z

   1  O       8.00    0.487889491    1.772336338    0.076987442
   2  C       6.00    3.092650186    1.969661540    0.610948456
   3  H       1.00    3.588722191    3.969199649    0.445124989
   4  H       1.00    4.275203001    0.888624813   -0.715204646
   5  C       6.00   -0.558999885   -0.689939008    0.433900015
   6  H       1.00    0.139329507   -1.455523753    2.245788321
   7  C       6.00    0.188897023   -2.498576985   -1.700356670
   8  C       6.00   -3.414867388   -0.333725634    0.602501380
   9  H       1.00   -4.364152409   -2.143629727    0.932353075
  10  H       1.00   -3.891267344    0.957146282    2.146369830
  11  H       1.00   -4.138783672    0.473773237   -1.161709135
  12  H       1.00   -0.654166493   -4.366665745   -1.400419339
  13  H       1.00   -0.475417298   -1.765155378   -3.519671599
  14  H       1.00    2.239911273   -2.750534169   -1.815327607
  15  H       1.00    3.531482387    1.329611301    2.544724097

 Bond lengths in Bohr (Angstrom)

  1- 2  2.666238902   1- 5  2.699289504   2- 3  2.066818209   2- 4  2.079844613   2-15  2.083680934
       ( 1.410912866)       ( 1.428402491)       ( 1.093713095)       ( 1.100606371)       ( 1.102636465)

  5- 6  2.087276497   5- 7  2.895785336   5- 8  2.882931422   7-12  2.071345966   7-13  2.071020903
       ( 1.104539155)       ( 1.532383608)       ( 1.525581609)       ( 1.096109081)       ( 1.095937065)

  7-14  2.069628032   8- 9  2.070192508   8-10  2.068051501   8-11  2.070880961
       ( 1.095199989)       ( 1.095498697)       ( 1.094365725)       ( 1.095863011)

 Bond angles

  1- 2- 3  106.85884507   1- 2- 4  112.91125973   1- 2-15  111.64621834   1- 5- 6  108.63888518

  1-5-7  111.84608248   1-5-8  106.21369660   2-1-5  114.82992588   3-2-4  108.37425913

  3- 2-15  108.72850466   4- 2-15  108.20064699   5- 7-12  110.57572754   5- 7-13  110.08520206

  5- 7-14  111.89623115   5- 8- 9  110.82645738   5- 8-10  110.42517473   5- 8-11  110.16013005

  6- 5- 7  108.92239636   6- 5- 8  109.02480146   7- 5- 8  112.09364518   9- 8-10  108.73162751

  9- 8-11  108.44218100  10- 8-11  108.18344616  12- 7-13  108.42317703  12- 7-14  107.55382926

 13- 7-14  108.19151953

 NUCLEAR CHARGE:                   42
 NUMBER OF PRIMITIVE AOS:         195
 NUMBER OF SYMMETRY AOS:          190
 NUMBER OF CONTRACTIONS:          120   ( 120A   )
 NUMBER OF CORE ORBITALS:           5   (   5A   )
 NUMBER OF VALENCE ORBITALS:       30   (  30A   )


 NUCLEAR REPULSION ENERGY  195.74983609


 Eigenvalues of metric

         1 0.241E-02 0.514E-02 0.104E-01 0.150E-01 0.214E-01 0.243E-01 0.289E-01 0.305E-01


 Contracted 2-electron integrals neglected if value below      1.0D-11
 AO integral compression algorithm  1   Integral accuracy      1.0D-11

     97.518 MB (compressed) written to integral file ( 44.4%)


 NUMBER OF SORTED TWO-ELECTRON INTEGRALS:   26357430.     BUFFER LENGTH:  32768
 NUMBER OF SEGMENTS:   2  SEGMENT LENGTH:   15997996      RECORD LENGTH: 524288

 Memory used in sort:      16.56 MW

 SORT1 READ    27501115. AND WROTE    22923365. INTEGRALS IN     67 RECORDS. CPU TIME:     0.34 SEC, REAL TIME:     0.65 SEC
 SORT2 READ    22923365. AND WROTE    26357430. INTEGRALS IN    372 RECORDS. CPU TIME:     0.59 SEC, REAL TIME:     4.18 SEC

 FILE SIZES:   FILE 1:   128.3 MBYTE,  FILE 4:   281.1 MBYTE,   TOTAL:    409.3 MBYTE

 OPERATOR DM      FOR CENTER  0  COORDINATES:    0.000000    0.000000    0.000000


 **********************************************************************************************************************************
 DATASETS  * FILE   NREC   LENGTH (MB)   RECORD NAMES
              1      19      116.03       500      610      700      900      950      970     1000      129      960     1100   
                                          VAR    BASINP    GEOM    SYMINP    ZMAT    AOBASIS   BASIS     P2S    ABASIS      S 
                                         1400     1410     1200     1210     1080     1600     1650     1300     1700   
                                           T        V       H0       H01     AOSYM     SMH    MOLCAS    ERIS     OPER   

 PROGRAMS   *        TOTAL       INT
 CPU TIMES  *         4.00      3.84
 REAL TIME  *         8.69 SEC
 DISK USED  *       409.85 MB      
 **********************************************************************************************************************************

 Density functional group SOGGA11=XC-SOGGA11
 Functional: XC-SOGGA11(via MFM 1.6)                                           Gradient terms: 1
 Use grid at  1800.2

 Functional: XC-SOGGA11                Factor:  1.0000

 Generated new metagrid on record  1800.2 with target accuracy 1.0D-06 and 52852 points in CPU time    1.4
 Computed new grid on record 1800.1 in CPU time    1.5
   99539 words reserved for DFT integration

 PROGRAM * UKS-SCF (Unrestricted Kohn-Sham)     Authors: W. Meyer, H.-J. Werner, P.J. Knowles, 1993

 NUMBER OF ELECTRONS:      21+   21-    SPACE SYMMETRY=1    SPIN SYMMETRY: Singlet 
 CONVERGENCE THRESHOLDS:    1.00E-05 (Density)    1.00E-06 (Energy)
 MAX. NUMBER OF ITERATIONS:       60
 INTERPOLATION TYPE:            DIIS
 INTERPOLATION STEPS:              2 (START)      1 (STEP)
 LEVEL SHIFTS:                 -0.20 (ALPHA)  -0.20 (BETA) 



 Use fine grid record 1800.2 for energy threshold  1.0D-06
 Orbital guess generated from atomic densities. Full valence occupancy:   21

 Molecular orbital dump at record        2200.2

 Initial alpha occupation  21
 Initial beta  occupation  21

 ITERATION    DDIFF          GRAD             ENERGY        2-EL.EN.            DIPOLE MOMENTS         DIIS
    1      0.000D+00      0.000D+00      -233.23190543    633.170589    0.49703   -0.73016    0.26766    0
    2      0.131D-01      0.575D-02      -233.43773315    610.849717    0.16807   -0.26381    0.06069    1
    3      0.449D-02      0.281D-02      -233.48586229    617.104667    0.28046   -0.40911    0.15931    2
    4      0.156D-02      0.465D-03      -233.48784352    616.700681    0.24783   -0.35627    0.13526    3
    5      0.159D-02      0.272D-03      -233.48902873    616.598940    0.24268   -0.35183    0.13171    4
    6      0.192D-02      0.129D-03      -233.48957398    616.339117    0.22996   -0.31908    0.12401    5
    7      0.527D-03      0.404D-04      -233.48961152    616.309900    0.22861   -0.31705    0.12085    6
    8      0.142D-03      0.206D-04      -233.48961675    616.308927    0.22978   -0.31422    0.12150    7
    9      0.620D-04      0.524D-05      -233.48961739    616.305908    0.23008   -0.31344    0.12235    8
   10      0.202D-04      0.192D-05      -233.48961747    616.306149    0.23042   -0.31327    0.12226    7
   11      0.118D-04      0.103D-05      -233.48961749    616.306189    0.23063   -0.31308    0.12249    8
   12      0.425D-05      0.336D-06      -233.48961749    616.306530    0.23072   -0.31304    0.12260    9
   13      0.138D-05      0.135D-06      -233.48961750    616.306287    0.23074   -0.31303    0.12261    8

 Final alpha occupancy:  21
 Final beta  occupancy:  21

 !UKS STATE 1.1 Energy               -233.489617495092
 Nuclear energy                       195.74983609
 One-electron energy                 -703.36132329
 Two-electron energy                  308.15314352
 Density functional                   -34.03127382     XC-SOGGA11=-34.03127382
 Virial quotient                       -1.01105481
 !UKS STATE 1.1 Dipole moment           0.23074010    -0.31302638     0.12260815
 Dipole moment /Debye                   0.58644442    -0.79558158     0.31161842

 Orbital energies for positive spin:

         1.1          2.1          3.1          4.1          5.1          6.1          7.1          8.1          9.1         10.1
    -18.754226    -9.954567    -9.944036    -9.895256    -9.893130    -0.917996    -0.695974    -0.613498    -0.594874    -0.507188

        11.1         12.1         13.1         14.1         15.1         16.1         17.1         18.1         19.1         20.1
     -0.443051    -0.409960    -0.400283    -0.373257    -0.348373    -0.340206    -0.331119    -0.307153    -0.299532    -0.256720

        21.1         22.1         23.1
     -0.201143     0.023142     0.058508

 Orbital energies for negative spin:

         1.1          2.1          3.1          4.1          5.1          6.1          7.1          8.1          9.1         10.1
    -18.754226    -9.954567    -9.944036    -9.895256    -9.893130    -0.917996    -0.695974    -0.613498    -0.594874    -0.507188

        11.1         12.1         13.1         14.1         15.1         16.1         17.1         18.1         19.1         20.1
     -0.443051    -0.409960    -0.400283    -0.373257    -0.348373    -0.340206    -0.331119    -0.307153    -0.299532    -0.256720

        21.1         22.1         23.1
     -0.201143     0.023142     0.058508

 HOMO     21.1    -0.201143 =      -5.4734eV
 LUMO     22.1     0.023142 =       0.6297eV
 LUMO-HOMO         0.224285 =       6.1031eV

 EXPECTATION VALUE OF S**2:             0.00000000

 Natural orbitals saved to record    2200.2 (Orbital set 3)

 Orbital spaces for UNO-CAS (Min. occupation: 0.020  Max. occupation: 1.980):

 Closed:       21
 Active:        0


 **********************************************************************************************************************************
 DATASETS  * FILE   NREC   LENGTH (MB)   RECORD NAMES
              1      20      117.72       500      610      700      900      950      970     1000      129      960     1100   
                                          VAR    BASINP    GEOM    SYMINP    ZMAT    AOBASIS   BASIS     P2S    ABASIS      S 
                                         1400     1410     1200     1210     1080     1600     1650     1300     1700     1800   
                                           T        V       H0       H01     AOSYM     SMH    MOLCAS    ERIS     OPER     GRID   

              2       5        3.59       700     1000      520     1800     2200   
                                         GEOM     BASIS   MCVARS    GRID      UKS  

 PROGRAMS   *        TOTAL       UKS       INT
 CPU TIMES  *        31.40     27.40      3.84
 REAL TIME  *        36.61 SEC
 DISK USED  *       409.85 MB      
 **********************************************************************************************************************************


 PROGRAM * Intrinsic Basis Bonding Analysis (IBBA)          Author: G. Knizia

 Molecular orbitals read from record     2200.2  Type=UKS/ALPHA (state 1.1)
 Fock matrix read from record            2200.2  Type=UKS/TOTAL (state 1.1)
 Orbital energies read from record       2200.2  Type=UKS/ALPHA (state 1.1)
 Density matrix read from record         2200.2  Type=UKS/CHARGE (state 1.1)

 Number of core orbitals:           5 (   5 )
 Number of closed-shell orbitals:  16 (  16 )

 Basis set MINAO-AUTO-PP generated.      Number of basis functions:   35 

 Polarized AO type:                A = (O Ot + (1-O)(1-Ot)) P12
 Orthogonalization method:         Symmetric (Loewdin)
 Localization functional:          L = sum[A,i] <i|n_A|i>^4 -> max

 Localization group 1:  21 orbitals, occupancy  2.000
 Iterative localization: IB/PM,    7 iter; Final gradient 0.18E-08

 Bond order analysis:       [THRPRINT= 0.020]

   CEN ATOM   CEN ATOM     WIBERG.BO      RENORM.BO
     1   O  -   2   C       0.997586       1.018853
     1   O  -   5   C       0.954612       0.961599
     1   O  -   4   H       0.036919       0.022107
     1   O  -  15   H       0.035777       0.021565
     1   O  -   7   C       0.033158       0.017262
     1   O  -   6   H       0.028304       0.017097

     2   C  -   1   O       0.997586       1.018853
     2   C  -   3   H       0.952030       0.977733
     2   C  -   4   H       0.943767       0.932065
     2   C  -  15   H       0.943240       0.931527

     3   H  -   2   C       0.952030       0.977733

     4   H  -   2   C       0.943767       0.932065
     4   H  -   1   O       0.036919       0.022107

     5   C  -   8   C       1.012087       1.003435
     5   C  -   7   C       1.003644       0.975397
     5   C  -   1   O       0.954612       0.961599
     5   C  -   6   H       0.919534       0.911850

     6   H  -   5   C       0.919534       0.911850
     6   H  -   1   O       0.028304       0.017097

     7   C  -   5   C       1.003644       0.975397
     7   C  -  14   H       0.958482       0.983019
     7   C  -  12   H       0.956213       0.985413
     7   C  -  13   H       0.955001       0.977382
     7   C  -   1   O       0.033158       0.017262

     8   C  -   5   C       1.012087       1.003435
     8   C  -   9   H       0.958569       0.987124
     8   C  -  10   H       0.955384       0.984086
     8   C  -  11   H       0.954099       0.977599

     9   H  -   8   C       0.958569       0.987124

    10   H  -   8   C       0.955384       0.984086

    11   H  -   8   C       0.954099       0.977599

    12   H  -   7   C       0.956213       0.985413

    13   H  -   7   C       0.955001       0.977382

    14   H  -   7   C       0.958482       0.983019

    15   H  -   2   C       0.943240       0.931527
    15   H  -   1   O       0.035777       0.021565


 Valency analysis:

   CEN ATOM   TOT.VALENCE
     1   O       2.143449
     2   C       3.858848
     3   H       0.973721
     4   H       0.985653
     5   C       3.917958
     6   H       0.988052
     7   C       3.929649
     8   C       3.927055
     9   H       0.979822
    10   H       0.976615
    11   H       0.978554
    12   H       0.979177
    13   H       0.979114
    14   H       0.980360
    15   H       0.985986

 Total charge composition:

   CEN ATOM         s          p       ELECTRONS ->P.CHARGE
     1   O       3.59442    4.77055      8.36497   -0.36497
     2   C       3.01449    3.21553      6.23002   -0.23002
     3   H       0.83789                 0.83789    0.16211
     4   H       0.88022                 0.88022    0.11978
     5   C       2.95101    2.95086      5.90187    0.09813
     6   H       0.89069                 0.89069    0.10931
     7   C       3.02457    3.42253      6.44710   -0.44710
     8   C       3.02169    3.41431      6.43600   -0.43600
     9   H       0.85795                 0.85795    0.14205
    10   H       0.84708                 0.84708    0.15292
    11   H       0.85356                 0.85356    0.14644
    12   H       0.85570                 0.85570    0.14430
    13   H       0.85548                 0.85548    0.14452
    14   H       0.85986                 0.85986    0.14014
    15   H       0.88162                 0.88162    0.11838

 Total charge composition, AO contributions:

   CEN ATOM SHL      SPHERICAL COMPONENTS
     1   O  1s       1.99734
     1   O  2s       1.59708
     1   O  2p       1.38056    1.51564    1.87436

     2   C  1s       1.99214
     2   C  2s       1.02235
     2   C  2p       0.84785    1.20038    1.16730

     3   H  1s       0.83789

     4   H  1s       0.88022

     5   C  1s       1.99272
     5   C  2s       0.95829
     5   C  2p       1.01228    0.84240    1.09619

     6   H  1s       0.89069

     7   C  1s       1.99155
     7   C  2s       1.03302
     7   C  2p       1.16957    1.13348    1.11948

     8   C  1s       1.99147
     8   C  2s       1.03021
     8   C  2p       1.05497    1.17417    1.18517

     9   H  1s       0.85795

    10   H  1s       0.84708

    11   H  1s       0.85356

    12   H  1s       0.85570

    13   H  1s       0.85548

    14   H  1s       0.85986

    15   H  1s       0.88162

 Summary of localized orbital composition:   [THRPRINT= 0.020]

   ORB  GRP  ORB.ENERGY      CENTERS/CHARGES
     1   1   -18.619018      O  1   2.000
     2   1    -9.859587      C  5   2.000
     3   1    -9.838222      C  2   2.000
     4   1    -9.784498      C  7   2.000
     5   1    -9.781662      C  8   2.000
     6   1    -0.690115      O  1   1.241   C  2   0.750
     7   1    -0.671991      O  1   1.262   C  5   0.720
     8   1    -0.519995      C  8   0.993   C  5   0.992
     9   1    -0.518185      C  7   1.008   C  5   0.984
    10   1    -0.464228      O  1   1.958   (other: 0.042)
    11   1    -0.463028      C  2   1.140   H  4   0.858
    12   1    -0.462917      C  2   1.138   H 15   0.859
    13   1    -0.461030      C  2   1.162   H  3   0.830
    14   1    -0.457640      C  5   1.116   H  6   0.864   (other: 0.020)
    15   1    -0.445595      C  7   1.136   H 12   0.847
    16   1    -0.443646      C  7   1.136   H 14   0.852
    17   1    -0.443352      C  8   1.134   H  9   0.850
    18   1    -0.439905      C  7   1.142   H 13   0.847
    19   1    -0.437107      C  8   1.143   H 11   0.845
    20   1    -0.436700      C  8   1.149   H 10   0.839
    21   1    -0.243170      O  1   1.899   C  5   0.021   (other: 0.080)

 Localized orbitals saved to record      2200.2  (orbital set 4)


 **********************************************************************************************************************************
 DATASETS  * FILE   NREC   LENGTH (MB)   RECORD NAMES
              1      20      117.72       500      610      700      900      950      970     1000      129      960     1100   
                                          VAR    BASINP    GEOM    SYMINP    ZMAT    AOBASIS   BASIS     P2S    ABASIS      S 
                                         1400     1410     1200     1210     1080     1600     1650     1300     1700     1800   
                                           T        V       H0       H01     AOSYM     SMH    MOLCAS    ERIS     OPER     GRID   

              2       5        3.71       700     1000      520     1800     2200   
                                         GEOM     BASIS   MCVARS    GRID      UKS  

 PROGRAMS   *        TOTAL      IBBA       UKS       INT
 CPU TIMES  *        31.45      0.05     27.40      3.84
 REAL TIME  *        36.80 SEC
 DISK USED  *       409.85 MB      
 **********************************************************************************************************************************
 Molecular orbitals read from record     2200.2  Type=UKS/LOCAL(IBO)  
 Occupation numbers read from record     2200.2  Type=UKS/LOCAL(IBO)  
 Orbital energies read from record       2200.2  Type=UKS/LOCAL(IBO)  
 Redundancy group numbers read from rec  2200.2  Type=UKS/BETA (state 1.1)

 IBBA/SVP energy=      0.000000000000

        UKS-SCF 
   -233.48961750
 **********************************************************************************************************************************
 Molpro calculation terminated
