
 Primary working directories    : /tmp/sb13343
 Secondary working directories  : /tmp/sb13343
 Wavefunction directory         : /panfs/panasas01/chem/sb13343/wfu/
 Main file repository           : /tmp/sb13343/

 SHA1      : b4a5b34a9e711420743f49e6833241d17c61fb3c
 NAME      : 2099.9.b4a5b34
 ARCHNAME  : linux/x86_64_openmp
 FC        : /cm/shared/languages/GCC-6.1/bin/gfortran
 BLASLIB   : -lblas
 id        : simonbennie

 Nodes     nprocs
 node32-020    1

 Using customized tuning parameters: mindgm=1; mindgv=20; mindgc=4; mindgr=1; noblas=0; minvec=7
 default implementation of scratch files=df  

 memory,500,m
 geomtyp=xyz
 nosym
 noorient
 geometry={
 O          0.25818        0.93788        0.04074
 C          1.63656        1.04230        0.32330
 H          1.89907        2.10041        0.23555
 H          2.26234        0.47024       -0.37847
 C         -0.29581       -0.36510        0.22961
 H          0.07373       -0.77023        1.18842
 C          0.09996       -1.32219       -0.89979
 C         -1.80707       -0.17660        0.31883
 H         -2.30941       -1.13436        0.49338
 H         -2.05917        0.50650        1.13581
 H         -2.19015        0.25071       -0.61475
 H         -0.34617       -2.31074       -0.74107
 H         -0.25158       -0.93408       -1.86253
 H          1.18531       -1.45552       -0.96063
 H          1.86878        0.70360        1.34661
 }
 basis={ default,sto-3g }
 {uks,SLATER,direct;wf,42,1,0}
 {ibba,bonds=1}

 Variables initialized (895), CPU time= 0.00 sec
 Commands  initialized (725), CPU time= 0.02 sec, 591 directives.
 Default parameters read. Elapsed time= 0.09 sec

 Checking input...
 Passed
1


                                         ***  PROGRAM SYSTEM MOLPRO  ***
                                       Copyright, TTI GmbH Stuttgart, 2015
                                    Version 2099.9 linked May 26 2017 16:03:21


 **********************************************************************************************************************************
 LABEL *                                                                                 
  64 bit serial version                                                                  DATE: 07-Jun-17          TIME: 21:46:40  
 **********************************************************************************************************************************

 SHA1:             b4a5b34a9e711420743f49e6833241d17c61fb3c
 **********************************************************************************************************************************
 SETTING GEOMTYP        =    XYZ

 Variable memory set to  500000000 words,  buffer space 

 ZSYMEL=NOSYM

 SETTING BASIS          =    STO-3G


 Recomputing integrals since basis changed


 Using spherical harmonics

 Library entry O      S STO-3G               selected for orbital group  1
 Library entry O      P STO-3G               selected for orbital group  1
 Library entry C      S STO-3G               selected for orbital group  2
 Library entry C      P STO-3G               selected for orbital group  2
 Library entry H      S STO-3G               selected for orbital group  3


 PROGRAM * SEWARD (Integral evaluation for generally contracted gaussian basis sets)     Author: Roland Lindh, 1990

 Geometry written to block  1 of record 700


 Point group  C1  



 ATOMIC COORDINATES

 NR  ATOM    CHARGE       X              Y              Z

   1  O       8.00    0.487889491    1.772336338    0.076987442
   2  C       6.00    3.092650186    1.969661540    0.610948456
   3  H       1.00    3.588722191    3.969199649    0.445124989
   4  H       1.00    4.275203001    0.888624813   -0.715204646
   5  C       6.00   -0.558999885   -0.689939008    0.433900015
   6  H       1.00    0.139329507   -1.455523753    2.245788321
   7  C       6.00    0.188897023   -2.498576985   -1.700356670
   8  C       6.00   -3.414867388   -0.333725634    0.602501380
   9  H       1.00   -4.364152409   -2.143629727    0.932353075
  10  H       1.00   -3.891267344    0.957146282    2.146369830
  11  H       1.00   -4.138783672    0.473773237   -1.161709135
  12  H       1.00   -0.654166493   -4.366665745   -1.400419339
  13  H       1.00   -0.475417298   -1.765155378   -3.519671599
  14  H       1.00    2.239911273   -2.750534169   -1.815327607
  15  H       1.00    3.531482387    1.329611301    2.544724097

 Bond lengths in Bohr (Angstrom)

  1- 2  2.666238902   1- 5  2.699289504   2- 3  2.066818209   2- 4  2.079844613   2-15  2.083680934
       ( 1.410912866)       ( 1.428402491)       ( 1.093713095)       ( 1.100606371)       ( 1.102636465)

  5- 6  2.087276497   5- 7  2.895785336   5- 8  2.882931422   7-12  2.071345966   7-13  2.071020903
       ( 1.104539155)       ( 1.532383608)       ( 1.525581609)       ( 1.096109081)       ( 1.095937065)

  7-14  2.069628032   8- 9  2.070192508   8-10  2.068051501   8-11  2.070880961
       ( 1.095199989)       ( 1.095498697)       ( 1.094365725)       ( 1.095863011)

 Bond angles

  1- 2- 3  106.85884507   1- 2- 4  112.91125973   1- 2-15  111.64621834   1- 5- 6  108.63888518

  1-5-7  111.84608248   1-5-8  106.21369660   2-1-5  114.82992588   3-2-4  108.37425913

  3- 2-15  108.72850466   4- 2-15  108.20064699   5- 7-12  110.57572754   5- 7-13  110.08520206

  5- 7-14  111.89623115   5- 8- 9  110.82645738   5- 8-10  110.42517473   5- 8-11  110.16013005

  6- 5- 7  108.92239636   6- 5- 8  109.02480146   7- 5- 8  112.09364518   9- 8-10  108.73162751

  9- 8-11  108.44218100  10- 8-11  108.18344616  12- 7-13  108.42317703  12- 7-14  107.55382926

 13- 7-14  108.19151953

 NUCLEAR CHARGE:                   42
 NUMBER OF PRIMITIVE AOS:         105
 NUMBER OF SYMMETRY AOS:          105
 NUMBER OF CONTRACTIONS:           35   (  35A   )
 NUMBER OF CORE ORBITALS:           5   (   5A   )
 NUMBER OF VALENCE ORBITALS:       30   (  30A   )


 NUCLEAR REPULSION ENERGY  195.74983609


 Eigenvalues of metric

         1 0.208E+00 0.227E+00 0.234E+00 0.281E+00 0.352E+00 0.360E+00 0.363E+00 0.368E+00


 Contracted 2-electron integrals neglected if value below      1.0D-11
 AO integral compression algorithm  1   Integral accuracy      1.0D-11

     1.573 MB (compressed) written to integral file ( 89.1%)


 NUMBER OF SORTED TWO-ELECTRON INTEGRALS:     198765.     BUFFER LENGTH:  32768
 NUMBER OF SEGMENTS:   1  SEGMENT LENGTH:     198765      RECORD LENGTH: 524288

 Memory used in sort:       0.76 MW

 SORT1 READ      224802. AND WROTE      193897. INTEGRALS IN      1 RECORDS. CPU TIME:     0.01 SEC, REAL TIME:     0.01 SEC
 SORT2 READ      193897. AND WROTE      198765. INTEGRALS IN      6 RECORDS. CPU TIME:     0.02 SEC, REAL TIME:     0.02 SEC

 FILE SIZES:   FILE 1:    31.8 MBYTE,  FILE 4:     4.2 MBYTE,   TOTAL:     36.0 MBYTE

 OPERATOR DM      FOR CENTER  0  COORDINATES:    0.000000    0.000000    0.000000


 **********************************************************************************************************************************
 DATASETS  * FILE   NREC   LENGTH (MB)   RECORD NAMES
              1      19       31.10       500      610      700      900      950      970     1000      129      960     1100   
                                          VAR    BASINP    GEOM    SYMINP    ZMAT    AOBASIS   BASIS     P2S    ABASIS      S 
                                         1400     1410     1200     1210     1080     1600     1650     1300     1700   
                                           T        V       H0       H01     AOSYM     SMH    MOLCAS    ERIS     OPER   

 PROGRAMS   *        TOTAL       INT
 CPU TIMES  *         0.64      0.49
 REAL TIME  *         1.01 SEC
 DISK USED  *        36.55 MB      
 **********************************************************************************************************************************

 Density functional group SLATER=DIRAC
 Functional: DIRAC(Automatically generated (new) DIRAC)                        Gradient terms: 0
 Use grid at  1800.2

 Functional: DIRAC                     Factor:  1.0000

 Generated new metagrid on record  1800.2 with target accuracy 1.0D-06 and 52852 points in CPU time    1.4
 Computed new grid on record 1800.1 in CPU time    1.5
   19034 words reserved for DFT integration

 PROGRAM * UKS-SCF (Unrestricted Kohn-Sham)     Authors: W. Meyer, H.-J. Werner, P.J. Knowles, 1993

 NUMBER OF ELECTRONS:      21+   21-    SPACE SYMMETRY=1    SPIN SYMMETRY: Singlet 
 CONVERGENCE THRESHOLDS:    1.00E-05 (Density)    1.00E-06 (Energy)
 MAX. NUMBER OF ITERATIONS:       60
 INTERPOLATION TYPE:            DIIS
 INTERPOLATION STEPS:              2 (START)      1 (STEP)
 LEVEL SHIFTS:                 -0.20 (ALPHA)  -0.20 (BETA) 



 Use fine grid record 1800.2 for energy threshold  1.0D-06
 Orbital guess generated from atomic densities. Full valence occupancy:   21

 Molecular orbital dump at record        2200.2

 Initial alpha occupation  21
 Initial beta  occupation  21

 ITERATION    DDIFF          GRAD             ENERGY        2-EL.EN.            DIPOLE MOMENTS         DIIS
    1      0.000D+00      0.000D+00      -225.67511448    632.887237    0.60671   -0.93835    0.30771    0
    2      0.602D-01      0.192D-01      -225.97830297    614.252605    0.00654   -0.18700    0.01897    1
    3      0.109D-01      0.456D-02      -225.99396374    617.275189    0.14539   -0.33192    0.11013    2
    4      0.128D-02      0.429D-03      -225.99416962    617.246636    0.14649   -0.33610    0.11373    3
    5      0.459D-03      0.154D-03      -225.99419901    617.233582    0.14894   -0.33654    0.11484    4
    6      0.199D-03      0.381D-04      -225.99420176    617.231244    0.14868   -0.33406    0.11403    5
    7      0.456D-04      0.183D-04      -225.99420204    617.232575    0.14924   -0.33521    0.11444    6
    8      0.128D-04      0.357D-05      -225.99420205    617.232382    0.14915   -0.33496    0.11434    6
    9      0.228D-05      0.546D-06      -225.99420205    617.232448    0.14916   -0.33497    0.11434    6
   10      0.910D-06      0.290D-06      -225.99420205    617.232423    0.14916   -0.33497    0.11434    7

 Final alpha occupancy:  21
 Final beta  occupancy:  21

 !UKS STATE 1.1 Energy               -225.994202051113
 Nuclear energy                       195.74983609
 One-electron energy                 -701.01957572
 Two-electron energy                  308.61621137
 Density functional                   -29.34067380     DIRAC=-29.34067380
 Virial quotient                       -0.99701429
 !UKS STATE 1.1 Dipole moment           0.14915634    -0.33496765     0.11434168
 Dipole moment /Debye                   0.37909276    -0.85134708     0.29060853

 Orbital energies for positive spin:

         1.1          2.1          3.1          4.1          5.1          6.1          7.1          8.1          9.1         10.1
    -18.233773    -9.548249    -9.531341    -9.491851    -9.488077    -0.802955    -0.595819    -0.516770    -0.494251    -0.405076

        11.1         12.1         13.1         14.1         15.1         16.1         17.1         18.1         19.1         20.1
     -0.329186    -0.305089    -0.287370    -0.268294    -0.243849    -0.235881    -0.219941    -0.196943    -0.187267    -0.073013

        21.1         22.1         23.1
      0.000971     0.306889     0.384794

 Orbital energies for negative spin:

         1.1          2.1          3.1          4.1          5.1          6.1          7.1          8.1          9.1         10.1
    -18.233773    -9.548249    -9.531341    -9.491851    -9.488077    -0.802955    -0.595819    -0.516770    -0.494251    -0.405076

        11.1         12.1         13.1         14.1         15.1         16.1         17.1         18.1         19.1         20.1
     -0.329186    -0.305089    -0.287370    -0.268294    -0.243849    -0.235881    -0.219941    -0.196943    -0.187267    -0.073013

        21.1         22.1         23.1
      0.000971     0.306889     0.384794

 HOMO     21.1     0.000971 =       0.0264eV
 LUMO     22.1     0.306889 =       8.3509eV
 LUMO-HOMO         0.305918 =       8.3244eV

 EXPECTATION VALUE OF S**2:            -0.00000000

 Natural orbitals saved to record    2200.2 (Orbital set 3)

 Orbital spaces for UNO-CAS (Min. occupation: 0.020  Max. occupation: 1.980):

 Closed:       21
 Active:        0


 **********************************************************************************************************************************
 DATASETS  * FILE   NREC   LENGTH (MB)   RECORD NAMES
              1      20       32.79       500      610      700      900      950      970     1000      129      960     1100   
                                          VAR    BASINP    GEOM    SYMINP    ZMAT    AOBASIS   BASIS     P2S    ABASIS      S 
                                         1400     1410     1200     1210     1080     1600     1650     1300     1700     1800   
                                           T        V       H0       H01     AOSYM     SMH    MOLCAS    ERIS     OPER     GRID   

              2       5        3.05       700     1000      520     1800     2200   
                                         GEOM     BASIS   MCVARS    GRID      UKS  

 PROGRAMS   *        TOTAL       UKS       INT
 CPU TIMES  *         4.40      3.76      0.49
 REAL TIME  *         4.89 SEC
 DISK USED  *        36.55 MB      
 **********************************************************************************************************************************


 PROGRAM * Intrinsic Basis Bonding Analysis (IBBA)          Author: G. Knizia

 Molecular orbitals read from record     2200.2  Type=UKS/ALPHA (state 1.1)
 Fock matrix read from record            2200.2  Type=UKS/TOTAL (state 1.1)
 Orbital energies read from record       2200.2  Type=UKS/ALPHA (state 1.1)
 Density matrix read from record         2200.2  Type=UKS/CHARGE (state 1.1)

 Number of core orbitals:           5 (   5 )
 Number of closed-shell orbitals:  16 (  16 )

 Basis set MINAO-AUTO-PP generated.      Number of basis functions:   35 

 Polarized AO type:                A = (O Ot + (1-O)(1-Ot)) P12
 Orthogonalization method:         Symmetric (Loewdin)
 Localization functional:          L = sum[A,i] <i|n_A|i>^4 -> max

 Localization group 1:  21 orbitals, occupancy  2.000
 Iterative localization: IB/PM,    7 iter; Final gradient 0.42E-08

 Bond order analysis:       [THRPRINT= 0.020]

   CEN ATOM   CEN ATOM     WIBERG.BO      RENORM.BO
     1   O  -   2   C       1.029019       1.019289
     1   O  -   5   C       0.996662       0.976472
     1   O  -   4   H       0.035461       0.021305
     1   O  -   7   C       0.033675       0.017816
     1   O  -  15   H       0.033423       0.020190
     1   O  -   6   H       0.025505       0.015561

     2   C  -   1   O       1.029019       1.019289
     2   C  -   3   H       0.950135       0.971792
     2   C  -  15   H       0.946464       0.938880
     2   C  -   4   H       0.945623       0.936478

     3   H  -   2   C       0.950135       0.971792

     4   H  -   2   C       0.945623       0.936478
     4   H  -   1   O       0.035461       0.021305

     5   C  -   8   C       1.001801       0.993374
     5   C  -   1   O       0.996662       0.976472
     5   C  -   7   C       0.992589       0.961544
     5   C  -   6   H       0.927850       0.923791

     6   H  -   5   C       0.927850       0.923791
     6   H  -   1   O       0.025505       0.015561

     7   C  -   5   C       0.992589       0.961544
     7   C  -  14   H       0.960423       0.985914
     7   C  -  13   H       0.959867       0.985328
     7   C  -  12   H       0.959533       0.989480
     7   C  -   1   O       0.033675       0.017816

     8   C  -   5   C       1.001801       0.993374
     8   C  -   9   H       0.960532       0.990253
     8   C  -  11   H       0.958642       0.985338
     8   C  -  10   H       0.958562       0.987386

     9   H  -   8   C       0.960532       0.990253

    10   H  -   8   C       0.958562       0.987386

    11   H  -   8   C       0.958642       0.985338

    12   H  -   7   C       0.959533       0.989480

    13   H  -   7   C       0.959867       0.985328

    14   H  -   7   C       0.960423       0.985914

    15   H  -   2   C       0.946464       0.938880
    15   H  -   1   O       0.033423       0.020190


 Valency analysis:

   CEN ATOM   TOT.VALENCE
     1   O       2.203291
     2   C       3.893223
     3   H       0.978005
     4   H       0.986194
     5   C       3.948480
     6   H       0.986131
     7   C       3.924557
     8   C       3.921719
     9   H       0.979572
    10   H       0.978176
    11   H       0.979241
    12   H       0.979475
    13   H       0.980036
    14   H       0.981137
    15   H       0.985820

 Total charge composition:

   CEN ATOM         s          p       ELECTRONS ->P.CHARGE
     1   O       3.64760    4.54296      8.19056   -0.19056
     2   C       3.00197    3.29458      6.29656   -0.29656
     3   H       0.85169                 0.85169    0.14831
     4   H       0.88250                 0.88250    0.11750
     5   C       2.95803    3.06363      6.02165   -0.02165
     6   H       0.88224                 0.88224    0.11776
     7   C       2.99180    3.43842      6.43022   -0.43022
     8   C       2.99031    3.42998      6.42030   -0.42030
     9   H       0.85707                 0.85707    0.14293
    10   H       0.85227                 0.85227    0.14773
    11   H       0.85592                 0.85592    0.14408
    12   H       0.85673                 0.85673    0.14327
    13   H       0.85870                 0.85870    0.14130
    14   H       0.86266                 0.86266    0.13734
    15   H       0.88092                 0.88092    0.11908

 Total charge composition, AO contributions:

   CEN ATOM SHL      SPHERICAL COMPONENTS
     1   O  1s       1.99759
     1   O  2s       1.65001
     1   O  2p       1.28039    1.39731    1.86525

     2   C  1s       1.99343
     2   C  2s       1.00854
     2   C  2p       0.91612    1.19942    1.17904

     3   H  1s       0.85169

     4   H  1s       0.88250

     5   C  1s       1.99390
     5   C  2s       0.96413
     5   C  2p       1.03746    0.90938    1.11679

     6   H  1s       0.88224

     7   C  1s       1.99296
     7   C  2s       0.99884
     7   C  2p       1.17291    1.13969    1.12583

     8   C  1s       1.99289
     8   C  2s       0.99742
     8   C  2p       1.06106    1.18100    1.18792

     9   H  1s       0.85707

    10   H  1s       0.85227

    11   H  1s       0.85592

    12   H  1s       0.85673

    13   H  1s       0.85870

    14   H  1s       0.86266

    15   H  1s       0.88092

 Summary of localized orbital composition:   [THRPRINT= 0.020]

   ORB  GRP  ORB.ENERGY      CENTERS/CHARGES
     1   1   -18.086809      O  1   2.000
     2   1    -9.454006      C  5   2.000
     3   1    -9.428928      C  2   2.000
     4   1    -9.384625      C  8   2.000
     5   1    -9.381659      C  7   2.000
     6   1    -0.534577      O  1   1.155   C  2   0.835
     7   1    -0.512108      O  1   1.161   C  5   0.819
     8   1    -0.410467      C  5   1.001   C  8   0.982
     9   1    -0.404779      C  5   0.996   C  7   0.994
    10   1    -0.362215      C  2   1.150   H  3   0.841
    11   1    -0.360368      C  2   1.137   H  4   0.861
    12   1    -0.360152      C  2   1.138   H 15   0.860
    13   1    -0.356587      C  5   1.128   H  6   0.857
    14   1    -0.345954      C  8   1.138   H  9   0.850
    15   1    -0.344510      C  7   1.134   H 14   0.855
    16   1    -0.344309      C  7   1.138   H 12   0.849
    17   1    -0.340312      C  8   1.145   H 10   0.845
    18   1    -0.338566      C  7   1.139   H 13   0.852
    19   1    -0.338519      C  8   1.141   H 11   0.849
    20   1    -0.331776      O  1   1.968   (other: 0.032)
    21   1    -0.032800      O  1   1.897   C  5   0.023   C  2   0.020   (other: 0.060)

 Localized orbitals saved to record      2200.2  (orbital set 4)


 **********************************************************************************************************************************
 DATASETS  * FILE   NREC   LENGTH (MB)   RECORD NAMES
              1      20       32.79       500      610      700      900      950      970     1000      129      960     1100   
                                          VAR    BASINP    GEOM    SYMINP    ZMAT    AOBASIS   BASIS     P2S    ABASIS      S 
                                         1400     1410     1200     1210     1080     1600     1650     1300     1700     1800   
                                           T        V       H0       H01     AOSYM     SMH    MOLCAS    ERIS     OPER     GRID   

              2       5        3.06       700     1000      520     1800     2200   
                                         GEOM     BASIS   MCVARS    GRID      UKS  

 PROGRAMS   *        TOTAL      IBBA       UKS       INT
 CPU TIMES  *         4.45      0.04      3.76      0.49
 REAL TIME  *         5.27 SEC
 DISK USED  *        36.55 MB      
 **********************************************************************************************************************************
 Molecular orbitals read from record     2200.2  Type=UKS/LOCAL(IBO)  
 Occupation numbers read from record     2200.2  Type=UKS/LOCAL(IBO)  
 Orbital energies read from record       2200.2  Type=UKS/LOCAL(IBO)  
 Redundancy group numbers read from rec  2200.2  Type=UKS/BETA (state 1.1)

 IBBA/STO-3G energy=      0.000000000000

        UKS-SCF 
   -225.99420205
 **********************************************************************************************************************************
 Molpro calculation terminated
