
 Primary working directories    : /tmp/sb13343
 Secondary working directories  : /tmp/sb13343
 Wavefunction directory         : /panfs/panasas01/chem/sb13343/wfu/
 Main file repository           : /tmp/sb13343/

 SHA1      : b4a5b34a9e711420743f49e6833241d17c61fb3c
 NAME      : 2099.9.b4a5b34
 ARCHNAME  : linux/x86_64_openmp
 FC        : /cm/shared/languages/GCC-6.1/bin/gfortran
 BLASLIB   : -lblas
 id        : simonbennie

 Nodes     nprocs
 node32-020    1

 Using customized tuning parameters: mindgm=1; mindgv=20; mindgc=4; mindgr=1; noblas=0; minvec=7
 default implementation of scratch files=df  

 memory,500,m
 geomtyp=xyz
 nosym
 noorient
 geometry={
 O          0.25818        0.93788        0.04074
 C          1.63656        1.04230        0.32330
 H          1.89907        2.10041        0.23555
 H          2.26234        0.47024       -0.37847
 C         -0.29581       -0.36510        0.22961
 H          0.07373       -0.77023        1.18842
 C          0.09996       -1.32219       -0.89979
 C         -1.80707       -0.17660        0.31883
 H         -2.30941       -1.13436        0.49338
 H         -2.05917        0.50650        1.13581
 H         -2.19015        0.25071       -0.61475
 H         -0.34617       -2.31074       -0.74107
 H         -0.25158       -0.93408       -1.86253
 H          1.18531       -1.45552       -0.96063
 H          1.86878        0.70360        1.34661
 }
 basis={ default,svp }
 {ks,MM06-HF,direct;wf,42,1,0}
 {ibba,bonds=1}

 Variables initialized (895), CPU time= 0.00 sec
 Commands  initialized (725), CPU time= 0.01 sec, 591 directives.
 Default parameters read. Elapsed time= 0.08 sec

 Checking input...
 Passed
1


                                         ***  PROGRAM SYSTEM MOLPRO  ***
                                       Copyright, TTI GmbH Stuttgart, 2015
                                    Version 2099.9 linked May 26 2017 16:03:21


 **********************************************************************************************************************************
 LABEL *                                                                                 
  64 bit serial version                                                                  DATE: 07-Jun-17          TIME: 21:55:46  
 **********************************************************************************************************************************

 SHA1:             b4a5b34a9e711420743f49e6833241d17c61fb3c
 **********************************************************************************************************************************
 SETTING GEOMTYP        =    XYZ

 Variable memory set to  500000000 words,  buffer space 

 ZSYMEL=NOSYM

 SETTING BASIS          =    SVP


 Recomputing integrals since basis changed


 Using spherical harmonics

 Library entry O      S def2-SVP             selected for orbital group  1
 Library entry O      P def2-SVP             selected for orbital group  1
 Library entry O      D def2-SVP             selected for orbital group  1
 Library entry C      S def2-SVP             selected for orbital group  2
 Library entry C      P def2-SVP             selected for orbital group  2
 Library entry C      D def2-SVP             selected for orbital group  2
 Library entry H      S def2-SVP             selected for orbital group  3
 Library entry H      P def2-SVP             selected for orbital group  3


 PROGRAM * SEWARD (Integral evaluation for generally contracted gaussian basis sets)     Author: Roland Lindh, 1990

 Geometry written to block  1 of record 700


 Point group  C1  



 ATOMIC COORDINATES

 NR  ATOM    CHARGE       X              Y              Z

   1  O       8.00    0.487889491    1.772336338    0.076987442
   2  C       6.00    3.092650186    1.969661540    0.610948456
   3  H       1.00    3.588722191    3.969199649    0.445124989
   4  H       1.00    4.275203001    0.888624813   -0.715204646
   5  C       6.00   -0.558999885   -0.689939008    0.433900015
   6  H       1.00    0.139329507   -1.455523753    2.245788321
   7  C       6.00    0.188897023   -2.498576985   -1.700356670
   8  C       6.00   -3.414867388   -0.333725634    0.602501380
   9  H       1.00   -4.364152409   -2.143629727    0.932353075
  10  H       1.00   -3.891267344    0.957146282    2.146369830
  11  H       1.00   -4.138783672    0.473773237   -1.161709135
  12  H       1.00   -0.654166493   -4.366665745   -1.400419339
  13  H       1.00   -0.475417298   -1.765155378   -3.519671599
  14  H       1.00    2.239911273   -2.750534169   -1.815327607
  15  H       1.00    3.531482387    1.329611301    2.544724097

 Bond lengths in Bohr (Angstrom)

  1- 2  2.666238902   1- 5  2.699289504   2- 3  2.066818209   2- 4  2.079844613   2-15  2.083680934
       ( 1.410912866)       ( 1.428402491)       ( 1.093713095)       ( 1.100606371)       ( 1.102636465)

  5- 6  2.087276497   5- 7  2.895785336   5- 8  2.882931422   7-12  2.071345966   7-13  2.071020903
       ( 1.104539155)       ( 1.532383608)       ( 1.525581609)       ( 1.096109081)       ( 1.095937065)

  7-14  2.069628032   8- 9  2.070192508   8-10  2.068051501   8-11  2.070880961
       ( 1.095199989)       ( 1.095498697)       ( 1.094365725)       ( 1.095863011)

 Bond angles

  1- 2- 3  106.85884507   1- 2- 4  112.91125973   1- 2-15  111.64621834   1- 5- 6  108.63888518

  1-5-7  111.84608248   1-5-8  106.21369660   2-1-5  114.82992588   3-2-4  108.37425913

  3- 2-15  108.72850466   4- 2-15  108.20064699   5- 7-12  110.57572754   5- 7-13  110.08520206

  5- 7-14  111.89623115   5- 8- 9  110.82645738   5- 8-10  110.42517473   5- 8-11  110.16013005

  6- 5- 7  108.92239636   6- 5- 8  109.02480146   7- 5- 8  112.09364518   9- 8-10  108.73162751

  9- 8-11  108.44218100  10- 8-11  108.18344616  12- 7-13  108.42317703  12- 7-14  107.55382926

 13- 7-14  108.19151953

 NUCLEAR CHARGE:                   42
 NUMBER OF PRIMITIVE AOS:         195
 NUMBER OF SYMMETRY AOS:          190
 NUMBER OF CONTRACTIONS:          120   ( 120A   )
 NUMBER OF CORE ORBITALS:           5   (   5A   )
 NUMBER OF VALENCE ORBITALS:       30   (  30A   )


 NUCLEAR REPULSION ENERGY  195.74983609


 Eigenvalues of metric

         1 0.241E-02 0.514E-02 0.104E-01 0.150E-01 0.214E-01 0.243E-01 0.289E-01 0.305E-01


 Contracted 2-electron integrals neglected if value below      1.0D-11
 AO integral compression algorithm  1   Integral accuracy      1.0D-11

     97.518 MB (compressed) written to integral file ( 44.4%)


 NUMBER OF SORTED TWO-ELECTRON INTEGRALS:   26357430.     BUFFER LENGTH:  32768
 NUMBER OF SEGMENTS:   2  SEGMENT LENGTH:   15997996      RECORD LENGTH: 524288

 Memory used in sort:      16.56 MW

 SORT1 READ    27501115. AND WROTE    22923365. INTEGRALS IN     67 RECORDS. CPU TIME:     0.33 SEC, REAL TIME:     0.66 SEC
 SORT2 READ    22923365. AND WROTE    26357430. INTEGRALS IN    372 RECORDS. CPU TIME:     0.64 SEC, REAL TIME:     0.85 SEC

 FILE SIZES:   FILE 1:   128.3 MBYTE,  FILE 4:   281.1 MBYTE,   TOTAL:    409.3 MBYTE

 OPERATOR DM      FOR CENTER  0  COORDINATES:    0.000000    0.000000    0.000000


 **********************************************************************************************************************************
 DATASETS  * FILE   NREC   LENGTH (MB)   RECORD NAMES
              1      19      116.03       500      610      700      900      950      970     1000      129      960     1100   
                                          VAR    BASINP    GEOM    SYMINP    ZMAT    AOBASIS   BASIS     P2S    ABASIS      S 
                                         1400     1410     1200     1210     1080     1600     1650     1300     1700   
                                           T        V       H0       H01     AOSYM     SMH    MOLCAS    ERIS     OPER   

 PROGRAMS   *        TOTAL       INT
 CPU TIMES  *         4.05      3.91
 REAL TIME  *         5.20 SEC
 DISK USED  *       409.85 MB      
 **********************************************************************************************************************************

 Density functional group MM06-HF=M06HFX+M06HFC
 Functional: M06HFX(Automatically generated (new) M06HFX)                      Gradient terms: 2
 Functional: M06HFC(Automatically generated (new) M06HFC)                      Gradient terms: 2
 Use grid at  1800.2


 Exact exchange will be calculated, factor:  1.0000

 Functional: M06HFX                    Factor:  1.0000
 Functional: M06HFC                    Factor:  1.0000

 Generated new metagrid on record  1800.2 with target accuracy 1.0D-06 and 52852 points in CPU time    1.4
 Computed new grid on record 1800.1 in CPU time    1.6
  190979 words reserved for DFT integration

 PROGRAM * RKS-SCF (Restricted closed shell Kohn-Sham)     Authors: W. Meyer, H.-J. Werner, P.J. Knowles, 1993

 NUMBER OF ELECTRONS:      21+   21-    SPACE SYMMETRY=1    SPIN SYMMETRY: Singlet 
 CONVERGENCE THRESHOLDS:    1.00E-05 (Density)    1.00E-06 (Energy)
 MAX. NUMBER OF ITERATIONS:       60
 INTERPOLATION TYPE:            DIIS
 INTERPOLATION STEPS:              2 (START)      1 (STEP)
 LEVEL SHIFTS:                  0.00 (CLOSED)  0.00 (OPEN) 



 Use fine grid record 1800.2 for energy threshold  1.0D-06
 Orbital guess generated from atomic densities. Full valence occupancy:   21

 Molecular orbital dump at record        2100.2

 Initial occupancy:  21

 ITERATION    DDIFF          GRAD             ENERGY        2-EL.EN.            DIPOLE MOMENTS         DIIS   ORB.
    1      0.000D+00      0.000D+00      -233.31788458    553.377533    0.44238   -0.72669    0.23971    0    start
    2      0.000D+00      0.525D-02      -233.37377820    548.025595    0.20713   -0.32740    0.09441    1    diag
    3      0.647D-02      0.285D-02      -233.38749635    550.577518    0.33305   -0.47269    0.19036    2    diag
    4      0.256D-02      0.841D-03      -233.38888099    550.204362    0.31581   -0.42898    0.17385    3    diag
    5      0.876D-03      0.308D-03      -233.38907128    550.197500    0.31777   -0.44205    0.17405    4    diag
    6      0.322D-03      0.608D-04      -233.38907953    550.200586    0.31867   -0.43801    0.17474    5    diag
    7      0.719D-04      0.899D-05      -233.38907984    550.203693    0.31870   -0.43834    0.17455    6    diag
    8      0.202D-04      0.267D-05      -233.38907987    550.202469    0.31876   -0.43817    0.17450    7    diag
    9      0.449D-05      0.927D-06      -233.38907987    550.202944    0.31874   -0.43817    0.17450    0    orth

 Final occupancy:  21

 !RKS STATE 1.1 Energy               -233.389079872933
 Nuclear energy                       195.74983609
 One-electron energy                 -702.80394651
 Two-electron energy                  275.10147198
 SCF exchange energy                  -32.45943980     Factor= 1.0000
 Density functional                    -1.43644143     M06HFX= 0.09461730 M06HFC=-1.53105873
 Virial quotient                       -1.01187481
 !RKS STATE 1.1 Dipole moment           0.31873885    -0.43816965     0.17449620
 Dipole moment /Debye                   0.81010029    -1.11364322     0.44349606

 Orbital energies:

         1.1          2.1          3.1          4.1          5.1          6.1          7.1          8.1          9.1         10.1
    -20.200187   -11.023234   -11.021485   -10.968811   -10.965046    -1.245353    -0.979999    -0.882830    -0.859236    -0.754537

        11.1         12.1         13.1         14.1         15.1         16.1         17.1         18.1         19.1         20.1
     -0.661446    -0.625929    -0.624665    -0.583317    -0.544222    -0.537735    -0.524555    -0.492948    -0.487445    -0.454577

        21.1         22.1         23.1
     -0.407590     0.120557     0.150300

 HOMO     21.1    -0.407590 =     -11.0911eV
 LUMO     22.1     0.120557 =       3.2805eV
 LUMO-HOMO         0.528147 =      14.3716eV


 **********************************************************************************************************************************
 DATASETS  * FILE   NREC   LENGTH (MB)   RECORD NAMES
              1      20      117.72       500      610      700      900      950      970     1000      129      960     1100   
                                          VAR    BASINP    GEOM    SYMINP    ZMAT    AOBASIS   BASIS     P2S    ABASIS      S 
                                         1400     1410     1200     1210     1080     1600     1650     1300     1700     1800   
                                           T        V       H0       H01     AOSYM     SMH    MOLCAS    ERIS     OPER     GRID   

              2       5        3.30       700     1000      520     1800     2100   
                                         GEOM     BASIS   MCVARS    GRID      RKS  

 PROGRAMS   *        TOTAL        KS       INT
 CPU TIMES  *        48.08     44.03      3.91
 REAL TIME  *        50.19 SEC
 DISK USED  *       409.85 MB      
 **********************************************************************************************************************************


 PROGRAM * Intrinsic Basis Bonding Analysis (IBBA)          Author: G. Knizia

 Molecular orbitals read from record     2100.2  Type=RKS/CANONICAL (state 1.1)
 Fock matrix read from record            2100.2  Type=RKS/TOTAL (state 1.1)
 Orbital energies read from record       2100.2  Type=RKS/CANONICAL (state 1.1)
 Density matrix read from record         2100.2  Type=RKS/CHARGE (state 1.1)

 Number of core orbitals:           5 (   5 )
 Number of closed-shell orbitals:  16 (  16 )

 Basis set MINAO-AUTO-PP generated.      Number of basis functions:   35 

 Polarized AO type:                A = (O Ot + (1-O)(1-Ot)) P12
 Orthogonalization method:         Symmetric (Loewdin)
 Localization functional:          L = sum[A,i] <i|n_A|i>^4 -> max

 Localization group 1:  21 orbitals, occupancy  2.000
 Iterative localization: IB/PM,    7 iter; Final gradient 0.25E-08

 Bond order analysis:       [THRPRINT= 0.020]

   CEN ATOM   CEN ATOM     WIBERG.BO      RENORM.BO
     1   O  -   2   C       0.978570       1.013473
     1   O  -   5   C       0.949010       0.969417
     1   O  -   4   H       0.026314       0.015335
     1   O  -   7   C       0.025642       0.013428
     1   O  -  15   H       0.025089       0.014779

     2   C  -   1   O       0.978570       1.013473
     2   C  -   3   H       0.961633       0.981722
     2   C  -   4   H       0.958463       0.952166
     2   C  -  15   H       0.958041       0.953238

     3   H  -   2   C       0.961633       0.981722

     4   H  -   2   C       0.958463       0.952166
     4   H  -   1   O       0.026314       0.015335

     5   C  -   8   C       1.007193       1.002629
     5   C  -   7   C       1.000816       0.980878
     5   C  -   1   O       0.949010       0.969417
     5   C  -   6   H       0.937034       0.936468

     6   H  -   5   C       0.937034       0.936468

     7   C  -   5   C       1.000816       0.980878
     7   C  -  14   H       0.965803       0.986780
     7   C  -  12   H       0.964074       0.989542
     7   C  -  13   H       0.962601       0.983798
     7   C  -   1   O       0.025642       0.013428

     8   C  -   5   C       1.007193       1.002629
     8   C  -   9   H       0.966499       0.989219
     8   C  -  10   H       0.962474       0.986637
     8   C  -  11   H       0.962173       0.983878

     9   H  -   8   C       0.966499       0.989219

    10   H  -   8   C       0.962474       0.986637

    11   H  -   8   C       0.962173       0.983878

    12   H  -   7   C       0.964074       0.989542

    13   H  -   7   C       0.962601       0.983798

    14   H  -   7   C       0.965803       0.986780

    15   H  -   2   C       0.958041       0.953238
    15   H  -   1   O       0.025089       0.014779


 Valency analysis:

   CEN ATOM   TOT.VALENCE
     1   O       2.068282
     2   C       3.873108
     3   H       0.979739
     4   H       0.988636
     5   C       3.917353
     6   H       0.988110
     7   C       3.937436
     8   C       3.935869
     9   H       0.984773
    10   H       0.981462
    11   H       0.982347
    12   H       0.983233
    13   H       0.982470
    14   H       0.984878
    15   H       0.988118

 Total charge composition:

   CEN ATOM         s          p       ELECTRONS ->P.CHARGE
     1   O       3.55594    4.85002      8.40596   -0.40596
     2   C       2.99010    3.17059      6.16068   -0.16068
     3   H       0.85766                 0.85766    0.14234
     4   H       0.89340                 0.89340    0.10660
     5   C       2.93640    2.97268      5.90908    0.09092
     6   H       0.89096                 0.89096    0.10904
     7   C       2.99469    3.39836      6.39305   -0.39305
     8   C       2.99274    3.38275      6.37549   -0.37549
     9   H       0.87660                 0.87660    0.12340
    10   H       0.86384                 0.86384    0.13616
    11   H       0.86714                 0.86714    0.13286
    12   H       0.87051                 0.87051    0.12949
    13   H       0.86760                 0.86760    0.13240
    14   H       0.87703                 0.87703    0.12297
    15   H       0.89100                 0.89100    0.10900

 Total charge composition, AO contributions:

   CEN ATOM SHL      SPHERICAL COMPONENTS
     1   O  1s       1.99698
     1   O  2s       1.55896
     1   O  2p       1.40388    1.53852    1.90761

     2   C  1s       1.99106
     2   C  2s       0.99904
     2   C  2p       0.83818    1.18247    1.14993

     3   H  1s       0.85766

     4   H  1s       0.89340

     5   C  1s       1.99167
     5   C  2s       0.94473
     5   C  2p       1.02431    0.84748    1.10089

     6   H  1s       0.89096

     7   C  1s       1.99043
     7   C  2s       1.00426
     7   C  2p       1.15800    1.12668    1.11367

     8   C  1s       1.99035
     8   C  2s       1.00239
     8   C  2p       1.04370    1.16368    1.17537

     9   H  1s       0.87660

    10   H  1s       0.86384

    11   H  1s       0.86714

    12   H  1s       0.87051

    13   H  1s       0.86760

    14   H  1s       0.87703

    15   H  1s       0.89100

 Summary of localized orbital composition:   [THRPRINT= 0.020]

   ORB  GRP  ORB.ENERGY      CENTERS/CHARGES
     1   1   -20.053380      O  1   2.000
     2   1   -10.919401      C  5   2.000
     3   1   -10.906897      C  2   2.000
     4   1   -10.849141      C  7   2.000
     5   1   -10.844593      C  8   2.000
     6   1    -0.959632      O  1   1.247   C  2   0.746
     7   1    -0.936592      O  1   1.257   C  5   0.729
     8   1    -0.734354      C  5   1.007   C  8   0.980
     9   1    -0.732430      C  7   1.000   C  5   0.991
    10   1    -0.714207      O  1   1.968   (other: 0.032)
    11   1    -0.689499      C  2   1.122   H 15   0.876
    12   1    -0.688650      C  2   1.121   H  4   0.878
    13   1    -0.685813      C  2   1.143   H  3   0.851
    14   1    -0.683712      C  5   1.114   H  6   0.870
    15   1    -0.665808      C  7   1.124   H 12   0.863
    16   1    -0.663786      C  7   1.120   H 14   0.870
    17   1    -0.662019      C  8   1.118   H  9   0.870
    18   1    -0.658633      C  7   1.130   H 13   0.861
    19   1    -0.656004      C  8   1.133   H 10   0.857
    20   1    -0.655348      C  8   1.130   H 11   0.860
    21   1    -0.485246      O  1   1.930   (other: 0.070)

 Localized orbitals saved to record      2100.2  (orbital set 2)


 **********************************************************************************************************************************
 DATASETS  * FILE   NREC   LENGTH (MB)   RECORD NAMES
              1      20      117.72       500      610      700      900      950      970     1000      129      960     1100   
                                          VAR    BASINP    GEOM    SYMINP    ZMAT    AOBASIS   BASIS     P2S    ABASIS      S 
                                         1400     1410     1200     1210     1080     1600     1650     1300     1700     1800   
                                           T        V       H0       H01     AOSYM     SMH    MOLCAS    ERIS     OPER     GRID   

              2       5        3.42       700     1000      520     1800     2100   
                                         GEOM     BASIS   MCVARS    GRID      RKS  

 PROGRAMS   *        TOTAL      IBBA        KS       INT
 CPU TIMES  *        48.12      0.04     44.03      3.91
 REAL TIME  *        50.32 SEC
 DISK USED  *       409.85 MB      
 **********************************************************************************************************************************
 Molecular orbitals read from record     2100.2  Type=RKS/LOCAL(IBO)  
 Occupation numbers read from record     2100.2  Type=RKS/LOCAL(IBO)  
 Orbital energies read from record       2100.2  Type=RKS/LOCAL(IBO)  
 Redundancy group numbers read from rec  2100.2  Type=RKS/LOCAL(IBO)  

 IBBA/SVP energy=      0.000000000000

        KS-SCF  
   -233.38907987
 **********************************************************************************************************************************
 Molpro calculation terminated
