
 Primary working directories    : /tmp/sb13343
 Secondary working directories  : /tmp/sb13343
 Wavefunction directory         : /panfs/panasas01/chem/sb13343/wfu/
 Main file repository           : /tmp/sb13343/

 SHA1      : b4a5b34a9e711420743f49e6833241d17c61fb3c
 NAME      : 2099.9.b4a5b34
 ARCHNAME  : linux/x86_64_openmp
 FC        : /cm/shared/languages/GCC-6.1/bin/gfortran
 BLASLIB   : -lblas
 id        : simonbennie

 Nodes     nprocs
 node32-012    1

 Using customized tuning parameters: mindgm=1; mindgv=20; mindgc=4; mindgr=1; noblas=0; minvec=7
 default implementation of scratch files=df  

 memory,500,m
 geomtyp=xyz
 nosym
 noorient
 geometry={
 O          0.25818        0.93788        0.04074
 C          1.63656        1.04230        0.32330
 H          1.89907        2.10041        0.23555
 H          2.26234        0.47024       -0.37847
 C         -0.29581       -0.36510        0.22961
 H          0.07373       -0.77023        1.18842
 C          0.09996       -1.32219       -0.89979
 C         -1.80707       -0.17660        0.31883
 H         -2.30941       -1.13436        0.49338
 H         -2.05917        0.50650        1.13581
 H         -2.19015        0.25071       -0.61475
 H         -0.34617       -2.31074       -0.74107
 H         -0.25158       -0.93408       -1.86253
 H          1.18531       -1.45552       -0.96063
 H          1.86878        0.70360        1.34661
 }
 basis={ default,svp }
 {ks,B97R,direct;wf,42,1,0}
 {ibba,bonds=1}

 Variables initialized (895), CPU time= 0.00 sec
 Commands  initialized (725), CPU time= 0.01 sec, 591 directives.
 Default parameters read. Elapsed time= 0.08 sec

 Checking input...
 Passed
1


                                         ***  PROGRAM SYSTEM MOLPRO  ***
                                       Copyright, TTI GmbH Stuttgart, 2015
                                    Version 2099.9 linked May 26 2017 16:03:21


 **********************************************************************************************************************************
 LABEL *                                                                                 
  64 bit serial version                                                                  DATE: 07-Jun-17          TIME: 21:56:50  
 **********************************************************************************************************************************

 SHA1:             b4a5b34a9e711420743f49e6833241d17c61fb3c
 **********************************************************************************************************************************
 SETTING GEOMTYP        =    XYZ

 Variable memory set to  500000000 words,  buffer space 

 ZSYMEL=NOSYM

 SETTING BASIS          =    SVP


 Recomputing integrals since basis changed


 Using spherical harmonics

 Library entry O      S def2-SVP             selected for orbital group  1
 Library entry O      P def2-SVP             selected for orbital group  1
 Library entry O      D def2-SVP             selected for orbital group  1
 Library entry C      S def2-SVP             selected for orbital group  2
 Library entry C      P def2-SVP             selected for orbital group  2
 Library entry C      D def2-SVP             selected for orbital group  2
 Library entry H      S def2-SVP             selected for orbital group  3
 Library entry H      P def2-SVP             selected for orbital group  3


 PROGRAM * SEWARD (Integral evaluation for generally contracted gaussian basis sets)     Author: Roland Lindh, 1990

 Geometry written to block  1 of record 700


 Point group  C1  



 ATOMIC COORDINATES

 NR  ATOM    CHARGE       X              Y              Z

   1  O       8.00    0.487889491    1.772336338    0.076987442
   2  C       6.00    3.092650186    1.969661540    0.610948456
   3  H       1.00    3.588722191    3.969199649    0.445124989
   4  H       1.00    4.275203001    0.888624813   -0.715204646
   5  C       6.00   -0.558999885   -0.689939008    0.433900015
   6  H       1.00    0.139329507   -1.455523753    2.245788321
   7  C       6.00    0.188897023   -2.498576985   -1.700356670
   8  C       6.00   -3.414867388   -0.333725634    0.602501380
   9  H       1.00   -4.364152409   -2.143629727    0.932353075
  10  H       1.00   -3.891267344    0.957146282    2.146369830
  11  H       1.00   -4.138783672    0.473773237   -1.161709135
  12  H       1.00   -0.654166493   -4.366665745   -1.400419339
  13  H       1.00   -0.475417298   -1.765155378   -3.519671599
  14  H       1.00    2.239911273   -2.750534169   -1.815327607
  15  H       1.00    3.531482387    1.329611301    2.544724097

 Bond lengths in Bohr (Angstrom)

  1- 2  2.666238902   1- 5  2.699289504   2- 3  2.066818209   2- 4  2.079844613   2-15  2.083680934
       ( 1.410912866)       ( 1.428402491)       ( 1.093713095)       ( 1.100606371)       ( 1.102636465)

  5- 6  2.087276497   5- 7  2.895785336   5- 8  2.882931422   7-12  2.071345966   7-13  2.071020903
       ( 1.104539155)       ( 1.532383608)       ( 1.525581609)       ( 1.096109081)       ( 1.095937065)

  7-14  2.069628032   8- 9  2.070192508   8-10  2.068051501   8-11  2.070880961
       ( 1.095199989)       ( 1.095498697)       ( 1.094365725)       ( 1.095863011)

 Bond angles

  1- 2- 3  106.85884507   1- 2- 4  112.91125973   1- 2-15  111.64621834   1- 5- 6  108.63888518

  1-5-7  111.84608248   1-5-8  106.21369660   2-1-5  114.82992588   3-2-4  108.37425913

  3- 2-15  108.72850466   4- 2-15  108.20064699   5- 7-12  110.57572754   5- 7-13  110.08520206

  5- 7-14  111.89623115   5- 8- 9  110.82645738   5- 8-10  110.42517473   5- 8-11  110.16013005

  6- 5- 7  108.92239636   6- 5- 8  109.02480146   7- 5- 8  112.09364518   9- 8-10  108.73162751

  9- 8-11  108.44218100  10- 8-11  108.18344616  12- 7-13  108.42317703  12- 7-14  107.55382926

 13- 7-14  108.19151953

 NUCLEAR CHARGE:                   42
 NUMBER OF PRIMITIVE AOS:         195
 NUMBER OF SYMMETRY AOS:          190
 NUMBER OF CONTRACTIONS:          120   ( 120A   )
 NUMBER OF CORE ORBITALS:           5   (   5A   )
 NUMBER OF VALENCE ORBITALS:       30   (  30A   )


 NUCLEAR REPULSION ENERGY  195.74983609


 Eigenvalues of metric

         1 0.241E-02 0.514E-02 0.104E-01 0.150E-01 0.214E-01 0.243E-01 0.289E-01 0.305E-01


 Contracted 2-electron integrals neglected if value below      1.0D-11
 AO integral compression algorithm  1   Integral accuracy      1.0D-11

     97.518 MB (compressed) written to integral file ( 44.4%)


 NUMBER OF SORTED TWO-ELECTRON INTEGRALS:   26357430.     BUFFER LENGTH:  32768
 NUMBER OF SEGMENTS:   2  SEGMENT LENGTH:   15997996      RECORD LENGTH: 524288

 Memory used in sort:      16.56 MW

 SORT1 READ    27501115. AND WROTE    22923365. INTEGRALS IN     67 RECORDS. CPU TIME:     0.33 SEC, REAL TIME:     0.64 SEC
 SORT2 READ    22923365. AND WROTE    26357430. INTEGRALS IN    372 RECORDS. CPU TIME:     0.56 SEC, REAL TIME:     0.72 SEC

 FILE SIZES:   FILE 1:   128.3 MBYTE,  FILE 4:   281.1 MBYTE,   TOTAL:    409.3 MBYTE

 OPERATOR DM      FOR CENTER  0  COORDINATES:    0.000000    0.000000    0.000000


 **********************************************************************************************************************************
 DATASETS  * FILE   NREC   LENGTH (MB)   RECORD NAMES
              1      19      116.03       500      610      700      900      950      970     1000      129      960     1100   
                                          VAR    BASINP    GEOM    SYMINP    ZMAT    AOBASIS   BASIS     P2S    ABASIS      S 
                                         1400     1410     1200     1210     1080     1600     1650     1300     1700   
                                           T        V       H0       H01     AOSYM     SMH    MOLCAS    ERIS     OPER   

 PROGRAMS   *        TOTAL       INT
 CPU TIMES  *         3.81      3.67
 REAL TIME  *         4.83 SEC
 DISK USED  *       409.85 MB      
 **********************************************************************************************************************************

 Density functional group B97R=B97RDF
 Functional: B97RDF(Automatically generated (new) B97RDF)                      Gradient terms: 1
 Use grid at  1800.2


 Exact exchange will be calculated, factor:  0.2100

 Functional: B97RDF                    Factor:  1.0000

 Generated new metagrid on record  1800.2 with target accuracy 1.0D-06 and 52852 points in CPU time    1.3
 Computed new grid on record 1800.1 in CPU time    1.5
   99539 words reserved for DFT integration

 PROGRAM * RKS-SCF (Restricted closed shell Kohn-Sham)     Authors: W. Meyer, H.-J. Werner, P.J. Knowles, 1993

 NUMBER OF ELECTRONS:      21+   21-    SPACE SYMMETRY=1    SPIN SYMMETRY: Singlet 
 CONVERGENCE THRESHOLDS:    1.00E-05 (Density)    1.00E-06 (Energy)
 MAX. NUMBER OF ITERATIONS:       60
 INTERPOLATION TYPE:            DIIS
 INTERPOLATION STEPS:              2 (START)      1 (STEP)
 LEVEL SHIFTS:                  0.00 (CLOSED)  0.00 (OPEN) 



 Use fine grid record 1800.2 for energy threshold  1.0D-06
 Orbital guess generated from atomic densities. Full valence occupancy:   21

 Molecular orbital dump at record        2100.2

 Initial occupancy:  21

 ITERATION    DDIFF          GRAD             ENERGY        2-EL.EN.            DIPOLE MOMENTS         DIIS   ORB.
    1      0.000D+00      0.000D+00      -233.26260132    613.652226    0.47362   -0.73071    0.26256    0    start
    2      0.000D+00      0.798D-02      -233.22205490    587.774628   -0.06881    0.10546   -0.09317    1    diag
    3      0.174D-01      0.926D-02      -233.40724684    602.135750    0.30422   -0.44633    0.18322    2    diag
    4      0.102D-01      0.104D-02      -233.40879578    601.613249    0.25092   -0.35670    0.13337    3    diag
    5      0.995D-03      0.376D-03      -233.40901462    601.638965    0.25661   -0.38274    0.13305    4    diag
    6      0.309D-03      0.695D-04      -233.40902195    601.672697    0.25777   -0.37946    0.13692    5    diag
    7      0.729D-04      0.291D-04      -233.40902356    601.669015    0.25783   -0.38028    0.13728    6    diag
    8      0.242D-04      0.342D-05      -233.40902359    601.671376    0.25785   -0.38012    0.13662    7    diag
    9      0.381D-05      0.738D-06      -233.40902359    601.671526    0.25785   -0.38018    0.13691    0    orth

 Final occupancy:  21

 !RKS STATE 1.1 Energy               -233.409023585601
 Nuclear energy                       195.74983609
 One-electron energy                 -702.88312296
 Two-electron energy                  300.83576312
 SCF exchange energy                  -32.47138113     Factor= 0.2100
 Density functional                   -27.11149985     B97RDF=-27.11149985
 Virial quotient                       -1.01083893
 !RKS STATE 1.1 Dipole moment           0.25784675    -0.38018351     0.13690868
 Dipole moment /Debye                   0.65533815    -0.96626680     0.34796437

 Orbital energies:

         1.1          2.1          3.1          4.1          5.1          6.1          7.1          8.1          9.1         10.1
    -19.139718   -10.242129   -10.234400   -10.185493   -10.182390    -1.019695    -0.775830    -0.687639    -0.666381    -0.571904

        11.1         12.1         13.1         14.1         15.1         16.1         17.1         18.1         19.1         20.1
     -0.494527    -0.462414    -0.454259    -0.422837    -0.394779    -0.386912    -0.376682    -0.351004    -0.343228    -0.304938

        21.1         22.1         23.1
     -0.251608     0.062924     0.092509

 HOMO     21.1    -0.251608 =      -6.8466eV
 LUMO     22.1     0.062924 =       1.7122eV
 LUMO-HOMO         0.314532 =       8.5589eV


 **********************************************************************************************************************************
 DATASETS  * FILE   NREC   LENGTH (MB)   RECORD NAMES
              1      20      117.72       500      610      700      900      950      970     1000      129      960     1100   
                                          VAR    BASINP    GEOM    SYMINP    ZMAT    AOBASIS   BASIS     P2S    ABASIS      S 
                                         1400     1410     1200     1210     1080     1600     1650     1300     1700     1800   
                                           T        V       H0       H01     AOSYM     SMH    MOLCAS    ERIS     OPER     GRID   

              2       5        3.30       700     1000      520     1800     2100   
                                         GEOM     BASIS   MCVARS    GRID      RKS  

 PROGRAMS   *        TOTAL        KS       INT
 CPU TIMES  *        17.81     13.99      3.67
 REAL TIME  *        19.28 SEC
 DISK USED  *       409.85 MB      
 **********************************************************************************************************************************


 PROGRAM * Intrinsic Basis Bonding Analysis (IBBA)          Author: G. Knizia

 Molecular orbitals read from record     2100.2  Type=RKS/CANONICAL (state 1.1)
 Fock matrix read from record            2100.2  Type=RKS/TOTAL (state 1.1)
 Orbital energies read from record       2100.2  Type=RKS/CANONICAL (state 1.1)
 Density matrix read from record         2100.2  Type=RKS/CHARGE (state 1.1)

 Number of core orbitals:           5 (   5 )
 Number of closed-shell orbitals:  16 (  16 )

 Basis set MINAO-AUTO-PP generated.      Number of basis functions:   35 

 Polarized AO type:                A = (O Ot + (1-O)(1-Ot)) P12
 Orthogonalization method:         Symmetric (Loewdin)
 Localization functional:          L = sum[A,i] <i|n_A|i>^4 -> max

 Localization group 1:  21 orbitals, occupancy  2.000
 Iterative localization: IB/PM,    7 iter; Final gradient 0.29E-08

 Bond order analysis:       [THRPRINT= 0.020]

   CEN ATOM   CEN ATOM     WIBERG.BO      RENORM.BO
     1   O  -   2   C       0.988317       1.018120
     1   O  -   5   C       0.946113       0.962934
     1   O  -   4   H       0.033619       0.019800
     1   O  -  15   H       0.032175       0.019109
     1   O  -   7   C       0.029996       0.015615
     1   O  -   6   H       0.025121       0.014978

     2   C  -   1   O       0.988317       1.018120
     2   C  -   3   H       0.958676       0.977851
     2   C  -  15   H       0.950784       0.938564
     2   C  -   4   H       0.950739       0.937731

     3   H  -   2   C       0.958676       0.977851

     4   H  -   2   C       0.950739       0.937731
     4   H  -   1   O       0.033619       0.019800

     5   C  -   8   C       1.012893       1.005827
     5   C  -   7   C       1.005047       0.980495
     5   C  -   1   O       0.946113       0.962934
     5   C  -   6   H       0.927233       0.918697

     6   H  -   5   C       0.927233       0.918697
     6   H  -   1   O       0.025121       0.014978

     7   C  -   5   C       1.005047       0.980495
     7   C  -  14   H       0.963536       0.983828
     7   C  -  12   H       0.961530       0.986352
     7   C  -  13   H       0.960460       0.979498
     7   C  -   1   O       0.029996       0.015615

     8   C  -   5   C       1.012893       1.005827
     8   C  -   9   H       0.964023       0.987455
     8   C  -  10   H       0.961049       0.984063
     8   C  -  11   H       0.959853       0.979663

     9   H  -   8   C       0.964023       0.987455

    10   H  -   8   C       0.961049       0.984063

    11   H  -   8   C       0.959853       0.979663

    12   H  -   7   C       0.961530       0.986352

    13   H  -   7   C       0.960460       0.979498

    14   H  -   7   C       0.963536       0.983828

    15   H  -   2   C       0.950784       0.938564
    15   H  -   1   O       0.032175       0.019109


 Valency analysis:

   CEN ATOM   TOT.VALENCE
     1   O       2.107957
     2   C       3.869354
     3   H       0.978767
     4   H       0.988303
     5   C       3.917460
     6   H       0.990301
     7   C       3.942029
     8   C       3.940678
     9   H       0.983523
    10   H       0.980818
    11   H       0.982073
    12   H       0.982554
    13   H       0.982283
    14   H       0.983753
    15   H       0.988329

 Total charge composition:

   CEN ATOM         s          p       ELECTRONS ->P.CHARGE
     1   O       3.59879    4.79746      8.39625   -0.39625
     2   C       3.01559    3.15975      6.17535   -0.17535
     3   H       0.85429                 0.85429    0.14571
     4   H       0.89185                 0.89185    0.10815
     5   C       2.95347    2.92887      5.88234    0.11766
     6   H       0.90152                 0.90152    0.09848
     7   C       3.02516    3.38219      6.40735   -0.40735
     8   C       3.02285    3.36966      6.39251   -0.39251
     9   H       0.87164                 0.87164    0.12836
    10   H       0.86150                 0.86150    0.13850
    11   H       0.86611                 0.86611    0.13389
    12   H       0.86792                 0.86792    0.13208
    13   H       0.86690                 0.86690    0.13310
    14   H       0.87253                 0.87253    0.12747
    15   H       0.89197                 0.89197    0.10803

 Total charge composition, AO contributions:

   CEN ATOM SHL      SPHERICAL COMPONENTS
     1   O  1s       1.99714
     1   O  2s       1.60165
     1   O  2p       1.38902    1.52303    1.88540

     2   C  1s       1.99160
     2   C  2s       1.02400
     2   C  2p       0.83336    1.17911    1.14728

     3   H  1s       0.85429

     4   H  1s       0.89185

     5   C  1s       1.99219
     5   C  2s       0.96128
     5   C  2p       1.00948    0.83352    1.08586

     6   H  1s       0.90152

     7   C  1s       1.99096
     7   C  2s       1.03421
     7   C  2p       1.15296    1.12045    1.10878

     8   C  1s       1.99088
     8   C  2s       1.03197
     8   C  2p       1.04714    1.15577    1.16676

     9   H  1s       0.87164

    10   H  1s       0.86150

    11   H  1s       0.86611

    12   H  1s       0.86792

    13   H  1s       0.86690

    14   H  1s       0.87253

    15   H  1s       0.89197

 Summary of localized orbital composition:   [THRPRINT= 0.020]

   ORB  GRP  ORB.ENERGY      CENTERS/CHARGES
     1   1   -18.995297      O  1   2.000
     2   1   -10.143861      C  5   2.000
     3   1   -10.124897      C  2   2.000
     4   1   -10.070810      C  7   2.000
     5   1   -10.066953      C  8   2.000
     6   1    -0.759548      O  1   1.251   C  2   0.740
     7   1    -0.741415      O  1   1.269   C  5   0.713
     8   1    -0.577014      C  5   0.996   C  8   0.991
     9   1    -0.575475      C  7   1.006   C  5   0.986
    10   1    -0.543358      O  1   1.962   (other: 0.038)
    11   1    -0.518956      C  2   1.127   H  4   0.872
    12   1    -0.518406      C  2   1.126   H 15   0.872
    13   1    -0.517345      C  2   1.146   H  3   0.847
    14   1    -0.514053      C  5   1.104   H  6   0.877
    15   1    -0.501546      C  7   1.125   H 12   0.860
    16   1    -0.499612      C  7   1.124   H 14   0.865
    17   1    -0.498687      C  8   1.121   H  9   0.865
    18   1    -0.495258      C  7   1.130   H 13   0.860
    19   1    -0.492244      C  8   1.130   H 11   0.859
    20   1    -0.492072      C  8   1.135   H 10   0.854
    21   1    -0.301959      O  1   1.909   (other: 0.091)

 Localized orbitals saved to record      2100.2  (orbital set 2)


 **********************************************************************************************************************************
 DATASETS  * FILE   NREC   LENGTH (MB)   RECORD NAMES
              1      20      117.72       500      610      700      900      950      970     1000      129      960     1100   
                                          VAR    BASINP    GEOM    SYMINP    ZMAT    AOBASIS   BASIS     P2S    ABASIS      S 
                                         1400     1410     1200     1210     1080     1600     1650     1300     1700     1800   
                                           T        V       H0       H01     AOSYM     SMH    MOLCAS    ERIS     OPER     GRID   

              2       5        3.42       700     1000      520     1800     2100   
                                         GEOM     BASIS   MCVARS    GRID      RKS  

 PROGRAMS   *        TOTAL      IBBA        KS       INT
 CPU TIMES  *        17.85      0.05     13.99      3.67
 REAL TIME  *        19.41 SEC
 DISK USED  *       409.85 MB      
 **********************************************************************************************************************************
 Molecular orbitals read from record     2100.2  Type=RKS/LOCAL(IBO)  
 Occupation numbers read from record     2100.2  Type=RKS/LOCAL(IBO)  
 Orbital energies read from record       2100.2  Type=RKS/LOCAL(IBO)  
 Redundancy group numbers read from rec  2100.2  Type=RKS/LOCAL(IBO)  

 IBBA/SVP energy=      0.000000000000

        KS-SCF  
   -233.40902359
 **********************************************************************************************************************************
 Molpro calculation terminated
