
 Primary working directories    : /tmp/sb13343
 Secondary working directories  : /tmp/sb13343
 Wavefunction directory         : /panfs/panasas01/chem/sb13343/wfu/
 Main file repository           : /tmp/sb13343/

 SHA1      : b4a5b34a9e711420743f49e6833241d17c61fb3c
 NAME      : 2099.9.b4a5b34
 ARCHNAME  : linux/x86_64_openmp
 FC        : /cm/shared/languages/GCC-6.1/bin/gfortran
 BLASLIB   : -lblas
 id        : simonbennie

 Nodes     nprocs
 node36-008    1

 Using customized tuning parameters: mindgm=1; mindgv=20; mindgc=4; mindgr=1; noblas=0; minvec=7
 default implementation of scratch files=df  

 memory,500,m
 geomtyp=xyz
 nosym
 noorient
 geometry={
 C          0.00000        0.00000        0.00000
 H          0.00000        0.00000        1.10056
 C          1.46209        0.00000       -0.46855
 C         -0.73105       -1.26621       -0.46855
 C         -0.73105        1.26621       -0.46855
 H          1.52118        0.00000       -1.56505
 H         -0.76059       -1.31738       -1.56505
 H         -0.76059        1.31738       -1.56505
 H          1.99755        0.88622       -0.10723
 H          1.99755       -0.88622       -0.10723
 H         -0.23129       -2.17304       -0.10723
 H         -1.76626       -1.28682       -0.10723
 H         -1.76626        1.28682       -0.10723
 H         -0.23129        2.17304       -0.10723
 }
 basis={ default,svp }
 {uks,B97R,direct;wf,34,1,0}
 {ibba,bonds=1}

 Variables initialized (895), CPU time= 0.00 sec
 Commands  initialized (725), CPU time= 0.01 sec, 591 directives.
 Default parameters read. Elapsed time= 3.12 sec

 Checking input...
 Passed
1


                                         ***  PROGRAM SYSTEM MOLPRO  ***
                                       Copyright, TTI GmbH Stuttgart, 2015
                                    Version 2099.9 linked May 26 2017 16:03:21


 **********************************************************************************************************************************
 LABEL *                                                                                 
  64 bit serial version                                                                  DATE: 07-Jun-17          TIME: 18:57:31  
 **********************************************************************************************************************************

 SHA1:             b4a5b34a9e711420743f49e6833241d17c61fb3c
 **********************************************************************************************************************************
 SETTING GEOMTYP        =    XYZ

 Variable memory set to  500000000 words,  buffer space 

 ZSYMEL=NOSYM

 SETTING BASIS          =    SVP


 Recomputing integrals since basis changed


 Using spherical harmonics

 Library entry C      S def2-SVP             selected for orbital group  1
 Library entry C      P def2-SVP             selected for orbital group  1
 Library entry C      D def2-SVP             selected for orbital group  1
 Library entry H      S def2-SVP             selected for orbital group  2
 Library entry H      P def2-SVP             selected for orbital group  2


 PROGRAM * SEWARD (Integral evaluation for generally contracted gaussian basis sets)     Author: Roland Lindh, 1990

 Geometry written to block  1 of record 700


 Point group  C1  



 ATOMIC COORDINATES

 NR  ATOM    CHARGE       X              Y              Z

   1  C       6.00    0.000000000    0.000000000    0.000000000
   2  H       1.00    0.000000000    0.000000000    2.079756984
   3  C       6.00    2.762949669    0.000000000   -0.885431176
   4  C       6.00   -1.381484283   -2.392790116   -0.885431176
   5  C       6.00   -1.381484283    2.392790116   -0.885431176
   6  H       1.00    2.874613586    0.000000000   -2.957515871
   7  H       1.00   -1.437306793   -2.489487402   -2.957515871
   8  H       1.00   -1.437306793    2.489487402   -2.957515871
   9  H       1.00    3.774822420    1.674713086   -0.202635332
  10  H       1.00    3.774822420   -1.674713086   -0.202635332
  11  H       1.00   -0.437074755   -4.106450458   -0.202635332
  12  H       1.00   -3.337747665   -2.431737372   -0.202635332
  13  H       1.00   -3.337747665    2.431737372   -0.202635332
  14  H       1.00   -0.437074755    4.106450458   -0.202635332

 Bond lengths in Bohr (Angstrom)

 1-2  2.079756984  1-3  2.901358172  1-4  2.901367218  1-5  2.901367218  3-6  2.075091279
     ( 1.100560000)     ( 1.535332625)     ( 1.535337412)     ( 1.535337412)     ( 1.098091015)

  3- 9  2.072380406   3-10  2.072380406   4- 7  2.075090722   4-11  2.072378172   4-12  2.072364222
       ( 1.096656483)       ( 1.096656483)       ( 1.098090721)       ( 1.096655301)       ( 1.096647919)

  5- 8  2.075090722   5-13  2.072364222   5-14  2.072378172
       ( 1.098090721)       ( 1.096647919)       ( 1.096655301)

 Bond angles

  1- 3- 6  110.85354902   1- 3- 9  111.37220114   1- 3-10  111.37220114   1- 4- 7  110.85320625

  1- 4-11  111.37204414   1- 4-12  111.37216555   1- 5- 8  110.85320625   1- 5-13  111.37216555

  1- 5-14  111.37204414   2- 1- 3  107.76888332   2- 1- 4  107.76882608   2- 1- 5  107.76882608

  3-1-4  111.11870751   3-1-5  111.11870751   4-1-5  111.11845005   6-3-9  107.62119374

  6- 3-10  107.62119374   7- 4-11  107.62125572   7- 4-12  107.62162102   8- 5-13  107.62162102

  8- 5-14  107.62125572   9- 3-10  107.82352924  11- 4-12  107.82360822  13- 5-14  107.82360822

 NUCLEAR CHARGE:                   34
 NUMBER OF PRIMITIVE AOS:         170
 NUMBER OF SYMMETRY AOS:          166
 NUMBER OF CONTRACTIONS:          106   ( 106A   )
 NUMBER OF CORE ORBITALS:           4   (   4A   )
 NUMBER OF VALENCE ORBITALS:       26   (  26A   )


 NUCLEAR REPULSION ENERGY  134.07051350


 Eigenvalues of metric

         1 0.225E-02 0.614E-02 0.614E-02 0.233E-01 0.256E-01 0.268E-01 0.268E-01 0.277E-01


 Contracted 2-electron integrals neglected if value below      1.0D-11
 AO integral compression algorithm  1   Integral accuracy      1.0D-11

     64.750 MB (compressed) written to integral file ( 46.7%)


 NUMBER OF SORTED TWO-ELECTRON INTEGRALS:   16082956.     BUFFER LENGTH:  32768
 NUMBER OF SEGMENTS:   2  SEGMENT LENGTH:   15997996      RECORD LENGTH: 524288

 Memory used in sort:      16.56 MW

 SORT1 READ    17384690. AND WROTE    14795173. INTEGRALS IN     44 RECORDS. CPU TIME:     0.21 SEC, REAL TIME:     0.42 SEC
 SORT2 READ    14795173. AND WROTE    16082956. INTEGRALS IN    247 RECORDS. CPU TIME:     0.38 SEC, REAL TIME:     0.49 SEC

 FILE SIZES:   FILE 1:    95.4 MBYTE,  FILE 4:   184.6 MBYTE,   TOTAL:    279.9 MBYTE

 OPERATOR DM      FOR CENTER  0  COORDINATES:    0.000000    0.000000    0.000000


 **********************************************************************************************************************************
 DATASETS  * FILE   NREC   LENGTH (MB)   RECORD NAMES
              1      19       87.57       500      610      700      900      950      970     1000      129      960     1100   
                                          VAR    BASINP    GEOM    SYMINP    ZMAT    AOBASIS   BASIS     P2S    ABASIS      S 
                                         1400     1410     1200     1210     1080     1600     1650     1300     1700   
                                           T        V       H0       H01     AOSYM     SMH    MOLCAS    ERIS     OPER   

 PROGRAMS   *        TOTAL       INT
 CPU TIMES  *         2.60      2.45
 REAL TIME  *         6.61 SEC
 DISK USED  *       280.45 MB      
 **********************************************************************************************************************************

 Density functional group B97R=B97RDF
 Functional: B97RDF(Automatically generated (new) B97RDF)                      Gradient terms: 1
 Use grid at  1800.2


 Exact exchange will be calculated, factor:  0.2100

 Functional: B97RDF                    Factor:  1.0000

 Generated new metagrid on record  1800.2 with target accuracy 1.0D-06 and 45620 points in CPU time    1.0
 Computed new grid on record 1800.1 in CPU time    1.1
   88342 words reserved for DFT integration

 PROGRAM * UKS-SCF (Unrestricted Kohn-Sham)     Authors: W. Meyer, H.-J. Werner, P.J. Knowles, 1993

 NUMBER OF ELECTRONS:      17+   17-    SPACE SYMMETRY=1    SPIN SYMMETRY: Singlet 
 CONVERGENCE THRESHOLDS:    1.00E-05 (Density)    1.00E-06 (Energy)
 MAX. NUMBER OF ITERATIONS:       60
 INTERPOLATION TYPE:            DIIS
 INTERPOLATION STEPS:              2 (START)      1 (STEP)
 LEVEL SHIFTS:                 -0.20 (ALPHA)  -0.20 (BETA) 



 Use fine grid record 1800.2 for energy threshold  1.0D-06
 Orbital guess generated from atomic densities. Full valence occupancy:   17

 Molecular orbital dump at record        2200.2

 Initial alpha occupation  17
 Initial beta  occupation  17

 ITERATION    DDIFF          GRAD             ENERGY        2-EL.EN.            DIPOLE MOMENTS         DIIS
    1      0.000D+00      0.000D+00      -158.11359147    420.269674    0.00003   -0.00000   -0.01640    0
    2      0.106D-01      0.506D-02      -158.26394464    405.581092    0.00003   -0.00000    0.00117    1
    3      0.305D-02      0.192D-02      -158.28273782    408.830593   -0.00005   -0.00000    0.03521    2
    4      0.104D-02      0.243D-03      -158.28348207    408.666340   -0.00005   -0.00000    0.03427    3
    5      0.616D-03      0.978D-04      -158.28364072    408.620317   -0.00005   -0.00000    0.03607    4
    6      0.263D-03      0.315D-04      -158.28365794    408.594794   -0.00006   -0.00000    0.03794    5
    7      0.501D-04      0.769D-05      -158.28365875    408.594940   -0.00006   -0.00000    0.03638    6
    8      0.125D-04      0.187D-05      -158.28365881    408.594507   -0.00006   -0.00000    0.03693    6
    9      0.394D-05      0.494D-06      -158.28365882    408.594906   -0.00006   -0.00000    0.03681    6
   10      0.553D-06      0.127D-06      -158.28365882    408.594591   -0.00006   -0.00000    0.03682    6

 Final alpha occupancy:  17
 Final beta  occupancy:  17

 !UKS STATE 1.1 Energy               -158.283658817255
 Nuclear energy                       134.07051350
 One-electron energy                 -476.38737934
 Two-electron energy                  204.29729554
 Density functional                   -20.26408852     B97RDF=-20.26408852
 Virial quotient                       -1.01329011
 !UKS STATE 1.1 Dipole moment          -0.00005665    -0.00000000     0.03681931
 Dipole moment /Debye                  -0.00014399    -0.00000000     0.09357922

 Orbital energies for positive spin:

         1.1          2.1          3.1          4.1          5.1          6.1          7.1          8.1          9.1         10.1
    -10.196117   -10.181988   -10.181987   -10.181965    -0.795864    -0.675200    -0.675198    -0.553769    -0.460364    -0.428609

        11.1         12.1         13.1         14.1         15.1         16.1         17.1         18.1         19.1
     -0.428601    -0.380546    -0.380537    -0.360633    -0.326711    -0.326681    -0.319329     0.060175     0.105882

 Orbital energies for negative spin:

         1.1          2.1          3.1          4.1          5.1          6.1          7.1          8.1          9.1         10.1
    -10.196117   -10.181988   -10.181987   -10.181965    -0.795864    -0.675200    -0.675198    -0.553769    -0.460364    -0.428609

        11.1         12.1         13.1         14.1         15.1         16.1         17.1         18.1         19.1
     -0.428601    -0.380546    -0.380537    -0.360633    -0.326711    -0.326681    -0.319329     0.060175     0.105882

 HOMO     17.1    -0.319329 =      -8.6894eV
 LUMO     18.1     0.060175 =       1.6375eV
 LUMO-HOMO         0.379504 =      10.3268eV

 EXPECTATION VALUE OF S**2:            -0.00000000

 Natural orbitals saved to record    2200.2 (Orbital set 3)

 Orbital spaces for UNO-CAS (Min. occupation: 0.020  Max. occupation: 1.980):

 Closed:       17
 Active:        0


 **********************************************************************************************************************************
 DATASETS  * FILE   NREC   LENGTH (MB)   RECORD NAMES
              1      20       89.03       500      610      700      900      950      970     1000      129      960     1100   
                                          VAR    BASINP    GEOM    SYMINP    ZMAT    AOBASIS   BASIS     P2S    ABASIS      S 
                                         1400     1410     1200     1210     1080     1600     1650     1300     1700     1800   
                                           T        V       H0       H01     AOSYM     SMH    MOLCAS    ERIS     OPER     GRID   

              2       5        3.45       700     1000      520     1800     2200   
                                         GEOM     BASIS   MCVARS    GRID      UKS  

 PROGRAMS   *        TOTAL       UKS       INT
 CPU TIMES  *        20.06     17.45      2.45
 REAL TIME  *        24.90 SEC
 DISK USED  *       280.45 MB      
 **********************************************************************************************************************************


 PROGRAM * Intrinsic Basis Bonding Analysis (IBBA)          Author: G. Knizia

 Molecular orbitals read from record     2200.2  Type=UKS/ALPHA (state 1.1)
 Fock matrix read from record            2200.2  Type=UKS/TOTAL (state 1.1)
 Orbital energies read from record       2200.2  Type=UKS/ALPHA (state 1.1)
 Density matrix read from record         2200.2  Type=UKS/CHARGE (state 1.1)

 Number of core orbitals:           4 (   4 )
 Number of closed-shell orbitals:  13 (  13 )

 Basis set MINAO-AUTO-PP generated.      Number of basis functions:   30 

 Polarized AO type:                A = (O Ot + (1-O)(1-Ot)) P12
 Orthogonalization method:         Symmetric (Loewdin)
 Localization functional:          L = sum[A,i] <i|n_A|i>^4 -> max

 Localization group 1:  17 orbitals, occupancy  2.000
 Iterative localization: IB/PM,    7 iter; Final gradient 0.11E-08

 Bond order analysis:       [THRPRINT= 0.020]

   CEN ATOM   CEN ATOM     WIBERG.BO      RENORM.BO
     1   C  -   3   C       1.013658       1.009451
     1   C  -   5   C       1.013651       1.009438
     1   C  -   4   C       1.013651       1.009438
     1   C  -   2   H       0.935098       0.956554

     2   H  -   1   C       0.935098       0.956554

     3   C  -   1   C       1.013658       1.009451
     3   C  -   9   H       0.965932       0.983807
     3   C  -  10   H       0.965932       0.983807
     3   C  -   6   H       0.964433       0.978851

     4   C  -   1   C       1.013651       1.009438
     4   C  -  11   H       0.965932       0.983806
     4   C  -  12   H       0.965931       0.983809
     4   C  -   7   H       0.964431       0.978848

     5   C  -   1   C       1.013651       1.009438
     5   C  -  14   H       0.965932       0.983806
     5   C  -  13   H       0.965931       0.983809
     5   C  -   8   H       0.964431       0.978848

     6   H  -   3   C       0.964433       0.978851

     7   H  -   4   C       0.964431       0.978848

     8   H  -   5   C       0.964431       0.978848

     9   H  -   3   C       0.965932       0.983807

    10   H  -   3   C       0.965932       0.983807

    11   H  -   4   C       0.965932       0.983806

    12   H  -   4   C       0.965931       0.983809

    13   H  -   5   C       0.965931       0.983809

    14   H  -   5   C       0.965932       0.983806


 Valency analysis:

   CEN ATOM   TOT.VALENCE
     1   C       3.982405
     2   H       0.986515
     3   C       3.945471
     4   C       3.945467
     5   C       3.945467
     6   H       0.985258
     7   H       0.985254
     8   H       0.985254
     9   H       0.984184
    10   H       0.984184
    11   H       0.984187
    12   H       0.984185
    13   H       0.984185
    14   H       0.984187

 Total charge composition:

   CEN ATOM         s          p       ELECTRONS ->P.CHARGE
     1   C       2.95244    3.11996      6.07240   -0.07240
     2   H       0.88387                 0.88387    0.11613
     3   C       3.02219    3.36532      6.38751   -0.38751
     4   C       3.02219    3.36532      6.38752   -0.38752
     5   C       3.02219    3.36532      6.38752   -0.38752
     6   H       0.87858                 0.87858    0.12142
     7   H       0.87857                 0.87857    0.12143
     8   H       0.87857                 0.87857    0.12143
     9   H       0.87424                 0.87424    0.12576
    10   H       0.87424                 0.87424    0.12576
    11   H       0.87425                 0.87425    0.12575
    12   H       0.87424                 0.87424    0.12576
    13   H       0.87424                 0.87424    0.12576
    14   H       0.87425                 0.87425    0.12575

 Total charge composition, AO contributions:

   CEN ATOM SHL      SPHERICAL COMPONENTS
     1   C  1s       1.99158
     1   C  2s       0.96086
     1   C  2p       1.00641    1.00637    1.10718

     2   H  1s       0.88387

     3   C  1s       1.99099
     3   C  2s       1.03120
     3   C  2p       1.06584    1.15567    1.14382

     4   C  1s       1.99099
     4   C  2s       1.03120
     4   C  2p       1.13327    1.08824    1.14382

     5   C  1s       1.99099
     5   C  2s       1.03120
     5   C  2p       1.13327    1.08824    1.14382

     6   H  1s       0.87858

     7   H  1s       0.87857

     8   H  1s       0.87857

     9   H  1s       0.87424

    10   H  1s       0.87424

    11   H  1s       0.87425

    12   H  1s       0.87424

    13   H  1s       0.87424

    14   H  1s       0.87425

 Summary of localized orbital composition:   [THRPRINT= 0.020]

   ORB  GRP  ORB.ENERGY      CENTERS/CHARGES
     1   1   -10.092721      C  1   2.000
     2   1   -10.068024      C  3   2.000
     3   1   -10.068022      C  5   2.000
     4   1   -10.068022      C  4   2.000
     5   1    -0.551325      C  3   1.006   C  1   0.978
     6   1    -0.551309      C  5   1.006   C  1   0.978
     7   1    -0.551309      C  4   1.006   C  1   0.978
     8   1    -0.491134      C  4   1.124   H 12   0.867
     9   1    -0.491134      C  5   1.124   H 13   0.867
    10   1    -0.491133      C  5   1.124   H 14   0.867
    11   1    -0.491133      C  4   1.124   H 11   0.867
    12   1    -0.491131      C  3   1.124   H 10   0.867
    13   1    -0.491131      C  3   1.124   H  9   0.867
    14   1    -0.490414      C  3   1.120   H  6   0.871
    15   1    -0.490402      C  5   1.120   H  8   0.871
    16   1    -0.490402      C  4   1.120   H  7   0.871
    17   1    -0.485422      C  1   1.099   H  2   0.871   (other: 0.030)

 Localized orbitals saved to record      2200.2  (orbital set 4)


 **********************************************************************************************************************************
 DATASETS  * FILE   NREC   LENGTH (MB)   RECORD NAMES
              1      20       89.03       500      610      700      900      950      970     1000      129      960     1100   
                                          VAR    BASINP    GEOM    SYMINP    ZMAT    AOBASIS   BASIS     P2S    ABASIS      S 
                                         1400     1410     1200     1210     1080     1600     1650     1300     1700     1800   
                                           T        V       H0       H01     AOSYM     SMH    MOLCAS    ERIS     OPER     GRID   

              2       5        3.54       700     1000      520     1800     2200   
                                         GEOM     BASIS   MCVARS    GRID      UKS  

 PROGRAMS   *        TOTAL      IBBA       UKS       INT
 CPU TIMES  *        20.09      0.04     17.45      2.45
 REAL TIME  *        25.01 SEC
 DISK USED  *       280.45 MB      
 **********************************************************************************************************************************
 Molecular orbitals read from record     2200.2  Type=UKS/LOCAL(IBO)  
 Occupation numbers read from record     2200.2  Type=UKS/LOCAL(IBO)  
 Orbital energies read from record       2200.2  Type=UKS/LOCAL(IBO)  
 Redundancy group numbers read from rec  2200.2  Type=UKS/BETA (state 1.1)

 IBBA/SVP energy=      0.000000000000

        UKS-SCF 
   -158.28365882
 **********************************************************************************************************************************
 Molpro calculation terminated
