
 Primary working directories    : /tmp/sb13343
 Secondary working directories  : /tmp/sb13343
 Wavefunction directory         : /panfs/panasas01/chem/sb13343/wfu/
 Main file repository           : /tmp/sb13343/

 SHA1      : b4a5b34a9e711420743f49e6833241d17c61fb3c
 NAME      : 2099.9.b4a5b34
 ARCHNAME  : linux/x86_64_openmp
 FC        : /cm/shared/languages/GCC-6.1/bin/gfortran
 BLASLIB   : -lblas
 id        : simonbennie

 Nodes     nprocs
 node33-017    1

 Using customized tuning parameters: mindgm=1; mindgv=20; mindgc=4; mindgr=1; noblas=0; minvec=7
 default implementation of scratch files=df  

 memory,500,m
 geomtyp=xyz
 nosym
 noorient
 geometry={
 O          0.25818        0.93788        0.04074
 C          1.63656        1.04230        0.32330
 H          1.89907        2.10041        0.23555
 H          2.26234        0.47024       -0.37847
 C         -0.29581       -0.36510        0.22961
 H          0.07373       -0.77023        1.18842
 C          0.09996       -1.32219       -0.89979
 C         -1.80707       -0.17660        0.31883
 H         -2.30941       -1.13436        0.49338
 H         -2.05917        0.50650        1.13581
 H         -2.19015        0.25071       -0.61475
 H         -0.34617       -2.31074       -0.74107
 H         -0.25158       -0.93408       -1.86253
 H          1.18531       -1.45552       -0.96063
 H          1.86878        0.70360        1.34661
 }
 basis={ default,svp }
 {ks,D,direct;wf,42,1,0}
 {ibba,bonds=1}

 Variables initialized (895), CPU time= 0.00 sec
 Commands  initialized (725), CPU time= 0.01 sec, 591 directives.
 Default parameters read. Elapsed time= 1.00 sec

 Checking input...
 Passed
1


                                         ***  PROGRAM SYSTEM MOLPRO  ***
                                       Copyright, TTI GmbH Stuttgart, 2015
                                    Version 2099.9 linked May 26 2017 16:03:21


 **********************************************************************************************************************************
 LABEL *                                                                                 
  64 bit serial version                                                                  DATE: 07-Jun-17          TIME: 21:57:23  
 **********************************************************************************************************************************

 SHA1:             b4a5b34a9e711420743f49e6833241d17c61fb3c
 **********************************************************************************************************************************
 SETTING GEOMTYP        =    XYZ

 Variable memory set to  500000000 words,  buffer space 

 ZSYMEL=NOSYM

 SETTING BASIS          =    SVP


 Recomputing integrals since basis changed


 Using spherical harmonics

 Library entry O      S def2-SVP             selected for orbital group  1
 Library entry O      P def2-SVP             selected for orbital group  1
 Library entry O      D def2-SVP             selected for orbital group  1
 Library entry C      S def2-SVP             selected for orbital group  2
 Library entry C      P def2-SVP             selected for orbital group  2
 Library entry C      D def2-SVP             selected for orbital group  2
 Library entry H      S def2-SVP             selected for orbital group  3
 Library entry H      P def2-SVP             selected for orbital group  3


 PROGRAM * SEWARD (Integral evaluation for generally contracted gaussian basis sets)     Author: Roland Lindh, 1990

 Geometry written to block  1 of record 700


 Point group  C1  



 ATOMIC COORDINATES

 NR  ATOM    CHARGE       X              Y              Z

   1  O       8.00    0.487889491    1.772336338    0.076987442
   2  C       6.00    3.092650186    1.969661540    0.610948456
   3  H       1.00    3.588722191    3.969199649    0.445124989
   4  H       1.00    4.275203001    0.888624813   -0.715204646
   5  C       6.00   -0.558999885   -0.689939008    0.433900015
   6  H       1.00    0.139329507   -1.455523753    2.245788321
   7  C       6.00    0.188897023   -2.498576985   -1.700356670
   8  C       6.00   -3.414867388   -0.333725634    0.602501380
   9  H       1.00   -4.364152409   -2.143629727    0.932353075
  10  H       1.00   -3.891267344    0.957146282    2.146369830
  11  H       1.00   -4.138783672    0.473773237   -1.161709135
  12  H       1.00   -0.654166493   -4.366665745   -1.400419339
  13  H       1.00   -0.475417298   -1.765155378   -3.519671599
  14  H       1.00    2.239911273   -2.750534169   -1.815327607
  15  H       1.00    3.531482387    1.329611301    2.544724097

 Bond lengths in Bohr (Angstrom)

  1- 2  2.666238902   1- 5  2.699289504   2- 3  2.066818209   2- 4  2.079844613   2-15  2.083680934
       ( 1.410912866)       ( 1.428402491)       ( 1.093713095)       ( 1.100606371)       ( 1.102636465)

  5- 6  2.087276497   5- 7  2.895785336   5- 8  2.882931422   7-12  2.071345966   7-13  2.071020903
       ( 1.104539155)       ( 1.532383608)       ( 1.525581609)       ( 1.096109081)       ( 1.095937065)

  7-14  2.069628032   8- 9  2.070192508   8-10  2.068051501   8-11  2.070880961
       ( 1.095199989)       ( 1.095498697)       ( 1.094365725)       ( 1.095863011)

 Bond angles

  1- 2- 3  106.85884507   1- 2- 4  112.91125973   1- 2-15  111.64621834   1- 5- 6  108.63888518

  1-5-7  111.84608248   1-5-8  106.21369660   2-1-5  114.82992588   3-2-4  108.37425913

  3- 2-15  108.72850466   4- 2-15  108.20064699   5- 7-12  110.57572754   5- 7-13  110.08520206

  5- 7-14  111.89623115   5- 8- 9  110.82645738   5- 8-10  110.42517473   5- 8-11  110.16013005

  6- 5- 7  108.92239636   6- 5- 8  109.02480146   7- 5- 8  112.09364518   9- 8-10  108.73162751

  9- 8-11  108.44218100  10- 8-11  108.18344616  12- 7-13  108.42317703  12- 7-14  107.55382926

 13- 7-14  108.19151953

 NUCLEAR CHARGE:                   42
 NUMBER OF PRIMITIVE AOS:         195
 NUMBER OF SYMMETRY AOS:          190
 NUMBER OF CONTRACTIONS:          120   ( 120A   )
 NUMBER OF CORE ORBITALS:           5   (   5A   )
 NUMBER OF VALENCE ORBITALS:       30   (  30A   )


 NUCLEAR REPULSION ENERGY  195.74983609


 Eigenvalues of metric

         1 0.241E-02 0.514E-02 0.104E-01 0.150E-01 0.214E-01 0.243E-01 0.289E-01 0.305E-01


 Contracted 2-electron integrals neglected if value below      1.0D-11
 AO integral compression algorithm  1   Integral accuracy      1.0D-11

     97.518 MB (compressed) written to integral file ( 44.4%)


 NUMBER OF SORTED TWO-ELECTRON INTEGRALS:   26357430.     BUFFER LENGTH:  32768
 NUMBER OF SEGMENTS:   2  SEGMENT LENGTH:   15997996      RECORD LENGTH: 524288

 Memory used in sort:      16.56 MW

 SORT1 READ    27501115. AND WROTE    22923365. INTEGRALS IN     67 RECORDS. CPU TIME:     0.36 SEC, REAL TIME:     0.76 SEC
 SORT2 READ    22923365. AND WROTE    26357430. INTEGRALS IN    372 RECORDS. CPU TIME:     0.63 SEC, REAL TIME:     0.81 SEC

 FILE SIZES:   FILE 1:   128.3 MBYTE,  FILE 4:   281.1 MBYTE,   TOTAL:    409.3 MBYTE

 OPERATOR DM      FOR CENTER  0  COORDINATES:    0.000000    0.000000    0.000000


 **********************************************************************************************************************************
 DATASETS  * FILE   NREC   LENGTH (MB)   RECORD NAMES
              1      19      116.03       500      610      700      900      950      970     1000      129      960     1100   
                                          VAR    BASINP    GEOM    SYMINP    ZMAT    AOBASIS   BASIS     P2S    ABASIS      S 
                                         1400     1410     1200     1210     1080     1600     1650     1300     1700   
                                           T        V       H0       H01     AOSYM     SMH    MOLCAS    ERIS     OPER   

 PROGRAMS   *        TOTAL       INT
 CPU TIMES  *         4.08      3.94
 REAL TIME  *         8.51 SEC
 DISK USED  *       409.85 MB      
 **********************************************************************************************************************************

 Density functional group D=DIRAC
 Functional: DIRAC(Automatically generated (new) DIRAC)                        Gradient terms: 0
 Use grid at  1800.2

 Functional: DIRAC                     Factor:  1.0000

 Generated new metagrid on record  1800.2 with target accuracy 1.0D-06 and 52852 points in CPU time    1.3
 Computed new grid on record 1800.1 in CPU time    1.5
   53819 words reserved for DFT integration

 PROGRAM * RKS-SCF (Restricted closed shell Kohn-Sham)     Authors: W. Meyer, H.-J. Werner, P.J. Knowles, 1993

 NUMBER OF ELECTRONS:      21+   21-    SPACE SYMMETRY=1    SPIN SYMMETRY: Singlet 
 CONVERGENCE THRESHOLDS:    1.00E-05 (Density)    1.00E-06 (Energy)
 MAX. NUMBER OF ITERATIONS:       60
 INTERPOLATION TYPE:            DIIS
 INTERPOLATION STEPS:              2 (START)      1 (STEP)
 LEVEL SHIFTS:                  0.00 (CLOSED)  0.00 (OPEN) 



 Use fine grid record 1800.2 for energy threshold  1.0D-06
 Orbital guess generated from atomic densities. Full valence occupancy:   21

 Molecular orbital dump at record        2100.2

 Initial occupancy:  21

 ITERATION    DDIFF          GRAD             ENERGY        2-EL.EN.            DIPOLE MOMENTS         DIIS   ORB.
    1      0.000D+00      0.000D+00      -228.53774304    629.615530    0.47649   -0.67566    0.25897    0    start
    2      0.000D+00      0.103D-01      -228.16946954    587.515352   -0.29548    0.47045   -0.28028    1    diag
    3      0.315D-01      0.161D-01      -228.78333777    615.069987    0.32672   -0.45376    0.20617    2    diag
    4      0.232D-01      0.170D-02      -228.78711521    613.291943    0.20499   -0.25978    0.09928    3    diag
    5      0.239D-02      0.973D-03      -228.78857633    613.521966    0.22724   -0.33301    0.10831    4    diag
    6      0.859D-03      0.204D-03      -228.78863505    613.540981    0.22900   -0.31947    0.11656    5    diag
    7      0.228D-03      0.901D-04      -228.78864977    613.543934    0.23084   -0.32411    0.11932    6    diag
    8      0.752D-04      0.101D-04      -228.78864998    613.551193    0.23100   -0.32341    0.11707    7    diag
    9      0.128D-04      0.306D-05      -228.78865000    613.552888    0.23090   -0.32380    0.11779    8    diag
   10      0.401D-05      0.100D-05      -228.78865000    613.552345    0.23099   -0.32369    0.11777    0    orth

 Final occupancy:  21

 !RKS STATE 1.1 Energy               -228.788649995649
 Nuclear energy                       195.74983609
 One-electron energy                 -702.18316359
 Two-electron energy                  306.77617241
 Density functional                   -29.13149491     DIRAC=-29.13149491
 Virial quotient                       -0.99683845
 !RKS STATE 1.1 Dipole moment           0.23098990    -0.32368742     0.11777347
 Dipole moment /Debye                   0.58707931    -0.82267748     0.29933071

 Orbital energies:

         1.1          2.1          3.1          4.1          5.1          6.1          7.1          8.1          9.1         10.1
    -18.530714    -9.757231    -9.747009    -9.701799    -9.698761    -0.872649    -0.649126    -0.565591    -0.545650    -0.459930

        11.1         12.1         13.1         14.1         15.1         16.1         17.1         18.1         19.1         20.1
     -0.399981    -0.366730    -0.357834    -0.327638    -0.300730    -0.292735    -0.283201    -0.259690    -0.250925    -0.211498

        21.1         22.1         23.1
     -0.156984     0.062071     0.092494

 HOMO     21.1    -0.156984 =      -4.2717eV
 LUMO     22.1     0.062071 =       1.6890eV
 LUMO-HOMO         0.219055 =       5.9608eV


 **********************************************************************************************************************************
 DATASETS  * FILE   NREC   LENGTH (MB)   RECORD NAMES
              1      20      117.72       500      610      700      900      950      970     1000      129      960     1100   
                                          VAR    BASINP    GEOM    SYMINP    ZMAT    AOBASIS   BASIS     P2S    ABASIS      S 
                                         1400     1410     1200     1210     1080     1600     1650     1300     1700     1800   
                                           T        V       H0       H01     AOSYM     SMH    MOLCAS    ERIS     OPER     GRID   

              2       5        3.30       700     1000      520     1800     2100   
                                         GEOM     BASIS   MCVARS    GRID      RKS  

 PROGRAMS   *        TOTAL        KS       INT
 CPU TIMES  *        12.40      8.32      3.94
 REAL TIME  *        17.95 SEC
 DISK USED  *       409.85 MB      
 **********************************************************************************************************************************


 PROGRAM * Intrinsic Basis Bonding Analysis (IBBA)          Author: G. Knizia

 Molecular orbitals read from record     2100.2  Type=RKS/CANONICAL (state 1.1)
 Fock matrix read from record            2100.2  Type=RKS/TOTAL (state 1.1)
 Orbital energies read from record       2100.2  Type=RKS/CANONICAL (state 1.1)
 Density matrix read from record         2100.2  Type=RKS/CHARGE (state 1.1)

 Number of core orbitals:           5 (   5 )
 Number of closed-shell orbitals:  16 (  16 )

 Basis set MINAO-AUTO-PP generated.      Number of basis functions:   35 

 Polarized AO type:                A = (O Ot + (1-O)(1-Ot)) P12
 Orthogonalization method:         Symmetric (Loewdin)
 Localization functional:          L = sum[A,i] <i|n_A|i>^4 -> max

 Localization group 1:  21 orbitals, occupancy  2.000
 Iterative localization: IB/PM,    7 iter; Final gradient 0.36E-08

 Bond order analysis:       [THRPRINT= 0.020]

   CEN ATOM   CEN ATOM     WIBERG.BO      RENORM.BO
     1   O  -   2   C       1.001848       1.019210
     1   O  -   5   C       0.954710       0.954703
     1   O  -   4   H       0.038675       0.023089
     1   O  -  15   H       0.036915       0.022233
     1   O  -   7   C       0.035287       0.018482
     1   O  -   6   H       0.028781       0.017326

     2   C  -   1   O       1.001848       1.019210
     2   C  -   3   H       0.952658       0.975694
     2   C  -   4   H       0.941990       0.927954
     2   C  -  15   H       0.941722       0.928522

     3   H  -   2   C       0.952658       0.975694

     4   H  -   2   C       0.941990       0.927954
     4   H  -   1   O       0.038675       0.023089

     5   C  -   8   C       1.014009       1.005473
     5   C  -   7   C       1.005283       0.977415
     5   C  -   1   O       0.954710       0.954703
     5   C  -   6   H       0.915749       0.906766

     6   H  -   5   C       0.915749       0.906766
     6   H  -   1   O       0.028781       0.017326

     7   C  -   5   C       1.005283       0.977415
     7   C  -  14   H       0.955957       0.980275
     7   C  -  12   H       0.953566       0.983535
     7   C  -  13   H       0.953175       0.974956
     7   C  -   1   O       0.035287       0.018482

     8   C  -   5   C       1.014009       1.005473
     8   C  -   9   H       0.956643       0.985269
     8   C  -  10   H       0.954351       0.981194
     8   C  -  11   H       0.952421       0.975166

     9   H  -   8   C       0.956643       0.985269

    10   H  -   8   C       0.954351       0.981194

    11   H  -   8   C       0.952421       0.975166

    12   H  -   7   C       0.953566       0.983535

    13   H  -   7   C       0.953175       0.974956

    14   H  -   7   C       0.955957       0.980275

    15   H  -   2   C       0.941722       0.928522
    15   H  -   1   O       0.036915       0.022233


 Valency analysis:

   CEN ATOM   TOT.VALENCE
     1   O       2.160602
     2   C       3.863843
     3   H       0.976106
     4   H       0.986905
     5   C       3.921746
     6   H       0.989453
     7   C       3.930574
     8   C       3.929540
     9   H       0.980688
    10   H       0.978358
    11   H       0.979878
    12   H       0.979680
    13   H       0.980102
    14   H       0.981369
    15   H       0.986847

 Total charge composition:

   CEN ATOM         s          p       ELECTRONS ->P.CHARGE
     1   O       3.58365    4.76707      8.35072   -0.35072
     2   C       3.00613    3.21456      6.22069   -0.22069
     3   H       0.84542                 0.84542    0.15458
     4   H       0.88557                 0.88557    0.11443
     5   C       2.94113    2.96297      5.90410    0.09590
     6   H       0.89730                 0.89730    0.10270
     7   C       3.01358    3.42372      6.43730   -0.43730
     8   C       3.01121    3.41041      6.42162   -0.42162
     9   H       0.86103                 0.86103    0.13897
    10   H       0.85289                 0.85289    0.14711
    11   H       0.85815                 0.85815    0.14185
    12   H       0.85745                 0.85745    0.14255
    13   H       0.85894                 0.85894    0.14106
    14   H       0.86350                 0.86350    0.13650
    15   H       0.88531                 0.88531    0.11469

 Total charge composition, AO contributions:

   CEN ATOM SHL      SPHERICAL COMPONENTS
     1   O  1s       1.99748
     1   O  2s       1.58616
     1   O  2p       1.38091    1.51593    1.87023

     2   C  1s       1.99281
     2   C  2s       1.01332
     2   C  2p       0.85128    1.19650    1.16678

     3   H  1s       0.84542

     4   H  1s       0.88557

     5   C  1s       1.99338
     5   C  2s       0.94774
     5   C  2p       1.01743    0.84853    1.09702

     6   H  1s       0.89730

     7   C  1s       1.99225
     7   C  2s       1.02133
     7   C  2p       1.16849    1.13481    1.12043

     8   C  1s       1.99218
     8   C  2s       1.01903
     8   C  2p       1.05752    1.17082    1.18208

     9   H  1s       0.86103

    10   H  1s       0.85289

    11   H  1s       0.85815

    12   H  1s       0.85745

    13   H  1s       0.85894

    14   H  1s       0.86350

    15   H  1s       0.88531

 Summary of localized orbital composition:   [THRPRINT= 0.020]

   ORB  GRP  ORB.ENERGY      CENTERS/CHARGES
     1   1   -18.402064      O  1   2.000
     2   1    -9.665018      C  5   2.000
     3   1    -9.644336      C  2   2.000
     4   1    -9.594499      C  7   2.000
     5   1    -9.590724      C  8   2.000
     6   1    -0.649554      O  1   1.238   C  2   0.753
     7   1    -0.629616      O  1   1.257   C  5   0.723
     8   1    -0.474060      C  5   0.992   C  8   0.992
     9   1    -0.472257      C  7   1.007   C  5   0.983
    10   1    -0.413399      C  2   1.136   H  4   0.862
    11   1    -0.413194      C  2   1.135   H 15   0.862
    12   1    -0.411901      C  2   1.155   H  3   0.837
    13   1    -0.410747      O  1   1.956   (other: 0.044)
    14   1    -0.407387      C  5   1.108   H  6   0.869   (other: 0.022)
    15   1    -0.397299      C  7   1.133   H 12   0.848
    16   1    -0.395324      C  7   1.132   H 14   0.854
    17   1    -0.394633      C  8   1.130   H  9   0.852
    18   1    -0.391134      C  7   1.138   H 13   0.850
    19   1    -0.388538      C  8   1.138   H 11   0.849
    20   1    -0.387952      C  8   1.143   H 10   0.844
    21   1    -0.202770      O  1   1.893   C  5   0.022   C  2   0.021   (other: 0.063)

 Localized orbitals saved to record      2100.2  (orbital set 2)


 **********************************************************************************************************************************
 DATASETS  * FILE   NREC   LENGTH (MB)   RECORD NAMES
              1      20      117.72       500      610      700      900      950      970     1000      129      960     1100   
                                          VAR    BASINP    GEOM    SYMINP    ZMAT    AOBASIS   BASIS     P2S    ABASIS      S 
                                         1400     1410     1200     1210     1080     1600     1650     1300     1700     1800   
                                           T        V       H0       H01     AOSYM     SMH    MOLCAS    ERIS     OPER     GRID   

              2       5        3.42       700     1000      520     1800     2100   
                                         GEOM     BASIS   MCVARS    GRID      RKS  

 PROGRAMS   *        TOTAL      IBBA        KS       INT
 CPU TIMES  *        12.45      0.05      8.32      3.94
 REAL TIME  *        18.09 SEC
 DISK USED  *       409.85 MB      
 **********************************************************************************************************************************
 Molecular orbitals read from record     2100.2  Type=RKS/LOCAL(IBO)  
 Occupation numbers read from record     2100.2  Type=RKS/LOCAL(IBO)  
 Orbital energies read from record       2100.2  Type=RKS/LOCAL(IBO)  
 Redundancy group numbers read from rec  2100.2  Type=RKS/LOCAL(IBO)  

 IBBA/SVP energy=      0.000000000000

        KS-SCF  
   -228.78865000
 **********************************************************************************************************************************
 Molpro calculation terminated
