
 Primary working directories    : /tmp/sb13343
 Secondary working directories  : /tmp/sb13343
 Wavefunction directory         : /panfs/panasas01/chem/sb13343/wfu/
 Main file repository           : /tmp/sb13343/

 SHA1      : b4a5b34a9e711420743f49e6833241d17c61fb3c
 NAME      : 2099.9.b4a5b34
 ARCHNAME  : linux/x86_64_openmp
 FC        : /cm/shared/languages/GCC-6.1/bin/gfortran
 BLASLIB   : -lblas
 id        : simonbennie

 Nodes     nprocs
 node32-007    1

 Using customized tuning parameters: mindgm=1; mindgv=20; mindgc=4; mindgr=1; noblas=0; minvec=7
 default implementation of scratch files=df  

 memory,500,m
 geomtyp=xyz
 nosym
 noorient
 geometry={
 C          0.00000        0.00000        0.00000
 H          0.00000       -1.08275        0.00000
 H         -0.93769        0.54138        0.00000
 H          0.93769        0.54138        0.00000
 }
 basis={ default,sto-3g }
 {uks,B-LYP,direct;wf,9,1,1}
 {ibba,bonds=1}

 Variables initialized (895), CPU time= 0.00 sec
 Commands  initialized (725), CPU time= 0.02 sec, 591 directives.
 Default parameters read. Elapsed time= 0.08 sec

 Checking input...
 Passed
1


                                         ***  PROGRAM SYSTEM MOLPRO  ***
                                       Copyright, TTI GmbH Stuttgart, 2015
                                    Version 2099.9 linked May 26 2017 16:03:21


 **********************************************************************************************************************************
 LABEL *                                                                                 
  64 bit serial version                                                                  DATE: 07-Jun-17          TIME: 23:21:13  
 **********************************************************************************************************************************

 SHA1:             b4a5b34a9e711420743f49e6833241d17c61fb3c
 **********************************************************************************************************************************
 SETTING GEOMTYP        =    XYZ

 Variable memory set to  500000000 words,  buffer space 

 ZSYMEL=NOSYM

 SETTING BASIS          =    STO-3G


 Recomputing integrals since basis changed


 Using spherical harmonics

 Library entry C      S STO-3G               selected for orbital group  1
 Library entry C      P STO-3G               selected for orbital group  1
 Library entry H      S STO-3G               selected for orbital group  2


 PROGRAM * SEWARD (Integral evaluation for generally contracted gaussian basis sets)     Author: Roland Lindh, 1990

 Geometry written to block  1 of record 700


 Point group  C1  



 ATOMIC COORDINATES

 NR  ATOM    CHARGE       X              Y              Z

   1  C       6.00    0.000000000    0.000000000    0.000000000
   2  H       1.00    0.000000000   -2.046100961    0.000000000
   3  H       1.00   -1.771977290    1.023059929    0.000000000
   4  H       1.00    1.771977290    1.023059929    0.000000000

 Bond lengths in Bohr (Angstrom)

 1-2  2.046100961  1-3  2.046107313  1-4  2.046107313
     ( 1.082750000)     ( 1.082753361)     ( 1.082753361)

 Bond angles

  2-1-3  120.00020284   2-1-4  120.00020284   3-1-4  119.99959433

 NUCLEAR CHARGE:                    9
 NUMBER OF PRIMITIVE AOS:          24
 NUMBER OF SYMMETRY AOS:           24
 NUMBER OF CONTRACTIONS:            8   (   8A   )
 NUMBER OF CORE ORBITALS:           1   (   1A   )
 NUMBER OF VALENCE ORBITALS:        7   (   7A   )


 NUCLEAR REPULSION ENERGY    9.64371277

 EXTRA SYMMETRY OF AOS IN SYMMETRY 1:   1 1 1 1 2 1 1 1

 Eigenvalues of metric

         1 0.256E+00 0.347E+00 0.347E+00 0.964E+00 0.100E+01 0.151E+01 0.151E+01 0.207E+01


 Contracted 2-electron integrals neglected if value below      1.0D-11
 AO integral compression algorithm  1   Integral accuracy      1.0D-11

     0.262 MB (compressed) written to integral file (100.0%)


 NUMBER OF SORTED TWO-ELECTRON INTEGRALS:        666.     BUFFER LENGTH:  32768
 NUMBER OF SEGMENTS:   1  SEGMENT LENGTH:        666      RECORD LENGTH: 524288

 Memory used in sort:       0.56 MW

 SORT1 READ         863. AND WROTE         391. INTEGRALS IN      1 RECORDS. CPU TIME:     0.00 SEC, REAL TIME:     0.01 SEC
 SORT2 READ         391. AND WROTE         666. INTEGRALS IN      1 RECORDS. CPU TIME:     0.01 SEC, REAL TIME:     0.00 SEC

 FILE SIZES:   FILE 1:    30.2 MBYTE,  FILE 4:     4.2 MBYTE,   TOTAL:     34.5 MBYTE

 OPERATOR DM      FOR CENTER  0  COORDINATES:    0.000000    0.000000    0.000000


 **********************************************************************************************************************************
 DATASETS  * FILE   NREC   LENGTH (MB)   RECORD NAMES
              1      19       29.99       500      610      700      900      950      970     1000      129      960     1100   
                                          VAR    BASINP    GEOM    SYMINP    ZMAT    AOBASIS   BASIS     P2S    ABASIS      S 
                                         1400     1410     1200     1210     1080     1600     1650     1300     1700   
                                           T        V       H0       H01     AOSYM     SMH    MOLCAS    ERIS     OPER   

 PROGRAMS   *        TOTAL       INT
 CPU TIMES  *         0.32      0.19
 REAL TIME  *         0.71 SEC
 DISK USED  *        34.79 MB      
 **********************************************************************************************************************************

 Density functional group B-LYP=B88+LYP
 Functional: B88(Automatically generated (new) B88)                            Gradient terms: 1
 Functional: LYP(Automatically generated (new) LYP)                            Gradient terms: 1
 Use grid at  1800.2

 Functional: B88                       Factor:  1.0000
 Functional: LYP                       Factor:  1.0000

 Generated new metagrid on record  1800.2 with target accuracy 1.0D-06 and 13766 points in CPU time    0.3
 Computed new grid on record 1800.1 in CPU time    0.3
   10248 words reserved for DFT integration

 PROGRAM * UKS-SCF (Unrestricted Kohn-Sham)     Authors: W. Meyer, H.-J. Werner, P.J. Knowles, 1993

 NUMBER OF ELECTRONS:       5+    4-    SPACE SYMMETRY=1    SPIN SYMMETRY: Doublet 
 CONVERGENCE THRESHOLDS:    1.00E-05 (Density)    1.00E-06 (Energy)
 MAX. NUMBER OF ITERATIONS:       60
 INTERPOLATION TYPE:            DIIS
 INTERPOLATION STEPS:              2 (START)      1 (STEP)
 LEVEL SHIFTS:                 -0.20 (ALPHA)  -0.20 (BETA) 



 Use fine grid record 1800.2 for energy threshold  1.0D-06
 Orbital guess generated from atomic densities. Full valence occupancy:    5

 Molecular orbital dump at record        2200.2

 Initial alpha occupation   5
 Initial beta  occupation   4

 ITERATION    DDIFF          GRAD             ENERGY        2-EL.EN.            DIPOLE MOMENTS         DIIS
    1      0.000D+00      0.000D+00       -39.28020059     59.124063   -0.00000    0.00000    0.00000    0
    2      0.699D-01      0.255D-01       -39.30578364     57.641074   -0.00000   -0.00000   -0.00000    1
    3      0.783D-02      0.461D-02       -39.30638016     57.800339   -0.00000   -0.00000    0.00000    2
    4      0.670D-03      0.981D-03       -39.30647969     57.799981   -0.00000   -0.00000   -0.00000    3
    5      0.117D-03      0.324D-03       -39.30649089     57.798603   -0.00000   -0.00000   -0.00000    4
    6      0.837D-04      0.673D-04       -39.30649121     57.798674   -0.00000   -0.00000   -0.00000    5
    7      0.705D-06      0.278D-06       -39.30649121     57.798673   -0.00000   -0.00000   -0.00000    5
    8      0.156D-06      0.537D-07       -39.30649121     57.798673   -0.00000   -0.00000   -0.00000    3

 Final alpha occupancy:   5
 Final beta  occupancy:   4

 !UKS STATE 1.1 Energy                -39.306491208806
 Nuclear energy                         9.64371277
 One-electron energy                  -71.33832205
 Two-electron energy                   28.89933665
 Density functional                    -6.51121859     B88=-6.25376447 LYP=-0.25745411
 Virial quotient                       -1.00912478
 !UKS STATE 1.1 Dipole moment          -0.00000000    -0.00000348    -0.00000000
 Dipole moment /Debye                  -0.00000000    -0.00000884    -0.00000000

 Orbital energies for positive spin:

         1.1          2.1          3.1          4.1          5.1          6.1          7.1
     -9.707432    -0.565417    -0.324190    -0.324188    -0.104474     0.357158     0.454341

 Orbital energies for negative spin:

         1.1          2.1          3.1          4.1          5.1          6.1          7.1
     -9.693936    -0.529407    -0.314709    -0.314706     0.021387     0.390718     0.469309

 HOMO      5.1    -0.104474 =      -2.8429eV
 LUMO     -5.1     0.021387 =       0.5820eV
 LUMO-HOMO         0.125862 =       3.4249eV

 EXPECTATION VALUE OF S**2:             0.75347758

 Occupation number threshold for canonical orbitals:  1.999000 (occupied),  0.001000 (virtual)

 Number of pseudo-canonical orbitals per symmetry:    3
 Number of active natural orbitals per symmetry:      3

 Natural orbitals saved to record    2200.2 (Orbital set 3)

 Orbital spaces for UNO-CAS (Min. occupation: 0.020  Max. occupation: 1.980):

 Closed:        4
 Active:        1


 **********************************************************************************************************************************
 DATASETS  * FILE   NREC   LENGTH (MB)   RECORD NAMES
              1      20       30.43       500      610      700      900      950      970     1000      129      960     1100   
                                          VAR    BASINP    GEOM    SYMINP    ZMAT    AOBASIS   BASIS     P2S    ABASIS      S 
                                         1400     1410     1200     1210     1080     1600     1650     1300     1700     1800   
                                           T        V       H0       H01     AOSYM     SMH    MOLCAS    ERIS     OPER     GRID   

              2       5        2.81       700     1000      520     1800     2200   
                                         GEOM     BASIS   MCVARS    GRID      UKS  

 PROGRAMS   *        TOTAL       UKS       INT
 CPU TIMES  *         0.91      0.59      0.19
 REAL TIME  *         1.35 SEC
 DISK USED  *        34.79 MB      
 **********************************************************************************************************************************


 PROGRAM * Intrinsic Basis Bonding Analysis (IBBA)          Author: G. Knizia

 Molecular orbitals read from record     2200.2  Type=UKS/ALPHA (state 1.1)
 Fock matrix read from record            2200.2  Type=UKS/TOTAL (state 1.1)
 Orbital energies read from record       2200.2  Type=UKS/ALPHA (state 1.1)
 Density matrix read from record         2200.2  Type=UKS/CHARGE (state 1.1)

 Number of core orbitals:           1 (   1 )
 Number of closed-shell orbitals:   3 (   3 )
 Number of active  orbitals:        1 (   1 )

 Basis set MINAO-AUTO-PP generated.      Number of basis functions:   8 

 Polarized AO type:                A = (O Ot + (1-O)(1-Ot)) P12
 Orthogonalization method:         Symmetric (Loewdin)
 Localization functional:          L = sum[A,i] <i|n_A|i>^4 -> max

 Localization group 1:   4 orbitals, occupancy  2.000
 Iterative localization: IB/PM,    5 iter; Final gradient 0.61E-10

 Bond order analysis:       [THRPRINT= 0.020]

   CEN ATOM   CEN ATOM     WIBERG.BO      RENORM.BO
     1   C  -   2   H       0.975856       1.000000
     1   C  -   4   H       0.975855       1.000000
     1   C  -   3   H       0.975855       1.000000

     2   H  -   1   C       0.975856       1.000000

     3   H  -   1   C       0.975855       1.000000

     4   H  -   1   C       0.975855       1.000000


 Valency analysis:

   CEN ATOM   TOT.VALENCE
     1   C       2.927566
     2   H       0.976636
     3   H       0.976636
     4   H       0.976636
 Localization group 2:   1 orbitals, occupancy  1.000
 Iterative localization: IB/PM,    1 iter; Final gradient 0.00E+00

 Bond order analysis:       [THRPRINT= 0.020]

   CEN ATOM   CEN ATOM     WIBERG.BO      RENORM.BO





 Valency analysis:

   CEN ATOM   TOT.VALENCE
     1   C       0.000000
     2   H       0.000000
     3   H       0.000000
     4   H       0.000000

 Total charge composition:

   CEN ATOM         s          p       ELECTRONS ->P.CHARGE
     1   C       3.11335    3.34521      6.45856   -0.45856
     2   H       0.84715                 0.84715    0.15285
     3   H       0.84715                 0.84715    0.15285
     4   H       0.84715                 0.84715    0.15285

 Total charge composition, AO contributions:

   CEN ATOM SHL      SPHERICAL COMPONENTS
     1   C  1s       1.99304
     1   C  2s       1.12031
     1   C  2p       1.17260    1.17261    1.00000

     2   H  1s       0.84715

     3   H  1s       0.84715

     4   H  1s       0.84715

 Active orbital charges:

   CEN ATOM         s          p       ELECTRONS ->SPIN.DEN
     1   C       0.00000    1.00000      1.00000    1.00000
     2   H       0.00000                 0.00000    0.00000
     3   H       0.00000                 0.00000    0.00000
     4   H       0.00000                 0.00000    0.00000

 Active orbital charges, AO contributions:

   CEN ATOM SHL      SPHERICAL COMPONENTS
     1   C  1s       0.00000
     1   C  2s       0.00000
     1   C  2p       0.00000    0.00000    1.00000

     2   H  1s       0.00000

     3   H  1s       0.00000

     4   H  1s       0.00000

 Summary of localized orbital composition:   [THRPRINT= 0.020]

   ORB  GRP  ORB.ENERGY      CENTERS/CHARGES
     1   1    -9.593801      C  1   2.000
     2   1    -0.430563      C  1   1.153   H  2   0.847
     3   1    -0.430559      C  1   1.153   H  3   0.847
     4   1    -0.430559      C  1   1.153   H  4   0.847
     5   2    -0.041544      C  1   1.000

 Localized orbitals saved to record      2200.2  (orbital set 4)


 **********************************************************************************************************************************
 DATASETS  * FILE   NREC   LENGTH (MB)   RECORD NAMES
              1      20       30.43       500      610      700      900      950      970     1000      129      960     1100   
                                          VAR    BASINP    GEOM    SYMINP    ZMAT    AOBASIS   BASIS     P2S    ABASIS      S 
                                         1400     1410     1200     1210     1080     1600     1650     1300     1700     1800   
                                           T        V       H0       H01     AOSYM     SMH    MOLCAS    ERIS     OPER     GRID   

              2       5        2.81       700     1000      520     1800     2200   
                                         GEOM     BASIS   MCVARS    GRID      UKS  

 PROGRAMS   *        TOTAL      IBBA       UKS       INT
 CPU TIMES  *         0.93      0.02      0.59      0.19
 REAL TIME  *         1.40 SEC
 DISK USED  *        34.79 MB      
 **********************************************************************************************************************************
 Molecular orbitals read from record     2200.2  Type=UKS/LOCAL(IBO)  
 Occupation numbers read from record     2200.2  Type=UKS/LOCAL(IBO)  
 Orbital energies read from record       2200.2  Type=UKS/LOCAL(IBO)  
 Redundancy group numbers read from rec  2200.2  Type=UKS/BETA (state 1.1)

 IBBA/STO-3G energy=      0.000000000000

        UKS-SCF 
    -39.30649121
 **********************************************************************************************************************************
 Molpro calculation terminated
