
 Primary working directories    : /tmp/sb13343
 Secondary working directories  : /tmp/sb13343
 Wavefunction directory         : /panfs/panasas01/chem/sb13343/wfu/
 Main file repository           : /tmp/sb13343/

 SHA1      : b4a5b34a9e711420743f49e6833241d17c61fb3c
 NAME      : 2099.9.b4a5b34
 ARCHNAME  : linux/x86_64_openmp
 FC        : /cm/shared/languages/GCC-6.1/bin/gfortran
 BLASLIB   : -lblas
 id        : simonbennie

 Nodes     nprocs
 node32-008    1

 Using customized tuning parameters: mindgm=1; mindgv=20; mindgc=4; mindgr=1; noblas=0; minvec=7
 default implementation of scratch files=df  

 memory,500,m
 geomtyp=xyz
 nosym
 noorient
 geometry={
 C          0.00000        0.00000        0.00000
 H          0.00000       -1.08275        0.00000
 H         -0.93769        0.54138        0.00000
 H          0.93769        0.54138        0.00000
 }
 basis={ default,sto-3g }
 {ks,BH-LYP,direct;wf,9,1,1}
 {ibba,bonds=1}

 Variables initialized (895), CPU time= 0.00 sec
 Commands  initialized (725), CPU time= 0.02 sec, 591 directives.
 Default parameters read. Elapsed time= 0.08 sec

 Checking input...
 Passed
1


                                         ***  PROGRAM SYSTEM MOLPRO  ***
                                       Copyright, TTI GmbH Stuttgart, 2015
                                    Version 2099.9 linked May 26 2017 16:03:21


 **********************************************************************************************************************************
 LABEL *                                                                                 
  64 bit serial version                                                                  DATE: 07-Jun-17          TIME: 23:24:57  
 **********************************************************************************************************************************

 SHA1:             b4a5b34a9e711420743f49e6833241d17c61fb3c
 **********************************************************************************************************************************
 SETTING GEOMTYP        =    XYZ

 Variable memory set to  500000000 words,  buffer space 

 ZSYMEL=NOSYM

 SETTING BASIS          =    STO-3G


 Recomputing integrals since basis changed


 Using spherical harmonics

 Library entry C      S STO-3G               selected for orbital group  1
 Library entry C      P STO-3G               selected for orbital group  1
 Library entry H      S STO-3G               selected for orbital group  2


 PROGRAM * SEWARD (Integral evaluation for generally contracted gaussian basis sets)     Author: Roland Lindh, 1990

 Geometry written to block  1 of record 700


 Point group  C1  



 ATOMIC COORDINATES

 NR  ATOM    CHARGE       X              Y              Z

   1  C       6.00    0.000000000    0.000000000    0.000000000
   2  H       1.00    0.000000000   -2.046100961    0.000000000
   3  H       1.00   -1.771977290    1.023059929    0.000000000
   4  H       1.00    1.771977290    1.023059929    0.000000000

 Bond lengths in Bohr (Angstrom)

 1-2  2.046100961  1-3  2.046107313  1-4  2.046107313
     ( 1.082750000)     ( 1.082753361)     ( 1.082753361)

 Bond angles

  2-1-3  120.00020284   2-1-4  120.00020284   3-1-4  119.99959433

 NUCLEAR CHARGE:                    9
 NUMBER OF PRIMITIVE AOS:          24
 NUMBER OF SYMMETRY AOS:           24
 NUMBER OF CONTRACTIONS:            8   (   8A   )
 NUMBER OF CORE ORBITALS:           1   (   1A   )
 NUMBER OF VALENCE ORBITALS:        7   (   7A   )


 NUCLEAR REPULSION ENERGY    9.64371277

 EXTRA SYMMETRY OF AOS IN SYMMETRY 1:   1 1 1 1 2 1 1 1

 Eigenvalues of metric

         1 0.256E+00 0.347E+00 0.347E+00 0.964E+00 0.100E+01 0.151E+01 0.151E+01 0.207E+01


 Contracted 2-electron integrals neglected if value below      1.0D-11
 AO integral compression algorithm  1   Integral accuracy      1.0D-11

     0.262 MB (compressed) written to integral file (100.0%)


 NUMBER OF SORTED TWO-ELECTRON INTEGRALS:        666.     BUFFER LENGTH:  32768
 NUMBER OF SEGMENTS:   1  SEGMENT LENGTH:        666      RECORD LENGTH: 524288

 Memory used in sort:       0.56 MW

 SORT1 READ         863. AND WROTE         391. INTEGRALS IN      1 RECORDS. CPU TIME:     0.00 SEC, REAL TIME:     0.00 SEC
 SORT2 READ         391. AND WROTE         666. INTEGRALS IN      1 RECORDS. CPU TIME:     0.00 SEC, REAL TIME:     0.00 SEC

 FILE SIZES:   FILE 1:    30.2 MBYTE,  FILE 4:     4.2 MBYTE,   TOTAL:     34.5 MBYTE

 OPERATOR DM      FOR CENTER  0  COORDINATES:    0.000000    0.000000    0.000000


 **********************************************************************************************************************************
 DATASETS  * FILE   NREC   LENGTH (MB)   RECORD NAMES
              1      19       29.99       500      610      700      900      950      970     1000      129      960     1100   
                                          VAR    BASINP    GEOM    SYMINP    ZMAT    AOBASIS   BASIS     P2S    ABASIS      S 
                                         1400     1410     1200     1210     1080     1600     1650     1300     1700   
                                           T        V       H0       H01     AOSYM     SMH    MOLCAS    ERIS     OPER   

 PROGRAMS   *        TOTAL       INT
 CPU TIMES  *         0.32      0.18
 REAL TIME  *         0.59 SEC
 DISK USED  *        34.79 MB      
 **********************************************************************************************************************************

 Density functional group BH-LYP=B88+LYP
 Functional: B88(Automatically generated (new) B88)                            Gradient terms: 1
 Functional: LYP(Automatically generated (new) LYP)                            Gradient terms: 1
 Use grid at  1800.2


 Exact exchange will be calculated, factor:  0.5000

 Functional: B88                       Factor:  0.5000
 Functional: LYP                       Factor:  1.0000

 Generated new metagrid on record  1800.2 with target accuracy 1.0D-06 and 13766 points in CPU time    0.2
 Computed new grid on record 1800.1 in CPU time    0.2
   10248 words reserved for DFT integration

 PROGRAM * RKS-SCF (Restricted open shell Kohn-Sham)     Authors: W. Meyer, H.-J. Werner, P.J. Knowles, 1993

 NUMBER OF ELECTRONS:       5+    4-    SPACE SYMMETRY=1    SPIN SYMMETRY: Doublet 
 CONVERGENCE THRESHOLDS:    1.00E-05 (Density)    1.00E-06 (Energy)
 MAX. NUMBER OF ITERATIONS:       60
 INTERPOLATION TYPE:            DIIS
 INTERPOLATION STEPS:              2 (START)      1 (STEP)
 LEVEL SHIFTS:                 -0.60 (CLOSED) -0.30 (OPEN) 



 Use fine grid record 1800.2 for energy threshold  1.0D-06
 Orbital guess generated from atomic densities. Full valence occupancy:    5

 Molecular orbital dump at record        2100.2

 Initial alpha occupancy:   5
 Initial beta  occupancy:   4
 Wave function symmetry:    1

 ITERATION    DDIFF          GRAD             ENERGY        2-EL.EN.            DIPOLE MOMENTS         DIIS   ORB.
    1      0.000D+00      0.000D+00       -39.30222701     52.536493   -0.00000    0.00000   -0.00000    0    start
    2      0.000D+00      0.242D-01       -39.31725406     51.674393   -0.00000   -0.00000    0.00000    1    diag,B
    3      0.417D-01      0.365D-02       -39.31761877     51.541425   -0.00000   -0.00000    0.00000    2    diag,B
    4      0.691D-02      0.588D-03       -39.31763103     51.539422   -0.00000   -0.00000   -0.00000    3    diag,B
    5      0.122D-02      0.171D-03       -39.31763216     51.539151   -0.00000   -0.00000    0.00000    4    diag,B
    6      0.499D-03      0.488D-06       -39.31763216     51.539160   -0.00000   -0.00000    0.00000    5    diag,B
    7      0.131D-05      0.404D-09       -39.31763216     51.539160   -0.00000   -0.00000    0.00000    0    orth

 Final alpha occupancy:   5
 Final beta  occupancy:   4

 !RKS STATE 1.1 Energy                -39.317632159309
 Nuclear energy                         9.64371277
 One-electron energy                  -71.34625294
 Two-electron energy                   25.76958010
 Density functional                    -3.38467209     B88=-6.25283462 LYP=-0.25825479
 Virial quotient                       -1.00850190
 !RKS STATE 1.1 Dipole moment          -0.00000000    -0.00000155     0.00000000
 Dipole moment /Debye                  -0.00000000    -0.00000393     0.00000000

 Orbital energies:

         1.1          2.1          3.1          4.1          5.1          6.1          7.1
    -10.362508    -0.713797    -0.439480    -0.439478    -0.235179     0.475533     0.596125

 HOMO      5.1    -0.235179 =      -6.3995eV
 LUMO      6.1     0.475533 =      12.9399eV
 LUMO-HOMO         0.710712 =      19.3394eV


 **********************************************************************************************************************************
 DATASETS  * FILE   NREC   LENGTH (MB)   RECORD NAMES
              1      20       30.43       500      610      700      900      950      970     1000      129      960     1100   
                                          VAR    BASINP    GEOM    SYMINP    ZMAT    AOBASIS   BASIS     P2S    ABASIS      S 
                                         1400     1410     1200     1210     1080     1600     1650     1300     1700     1800   
                                           T        V       H0       H01     AOSYM     SMH    MOLCAS    ERIS     OPER     GRID   

              2       5        2.80       700     1000      520     1800     2100   
                                         GEOM     BASIS   MCVARS    GRID      RKS  

 PROGRAMS   *        TOTAL        KS       INT
 CPU TIMES  *         0.82      0.50      0.18
 REAL TIME  *         1.14 SEC
 DISK USED  *        34.79 MB      
 **********************************************************************************************************************************


 PROGRAM * Intrinsic Basis Bonding Analysis (IBBA)          Author: G. Knizia

 Molecular orbitals read from record     2100.2  Type=RKS/CANONICAL (state 1.1)
 Fock matrix read from record            2100.2  Type=RKS/TOTAL (state 1.1)
 Orbital energies read from record       2100.2  Type=RKS/CANONICAL (state 1.1)
 Density matrix read from record         2100.2  Type=RKS/CHARGE (state 1.1)

 Number of core orbitals:           1 (   1 )
 Number of closed-shell orbitals:   3 (   3 )
 Number of active  orbitals:        1 (   1 )

 Basis set MINAO-AUTO-PP generated.      Number of basis functions:   8 

 Polarized AO type:                A = (O Ot + (1-O)(1-Ot)) P12
 Orthogonalization method:         Symmetric (Loewdin)
 Localization functional:          L = sum[A,i] <i|n_A|i>^4 -> max

 Localization group 1:   4 orbitals, occupancy  2.000
 Iterative localization: IB/PM,    5 iter; Final gradient 0.16E-09

 Bond order analysis:       [THRPRINT= 0.020]

   CEN ATOM   CEN ATOM     WIBERG.BO      RENORM.BO
     1   C  -   4   H       0.984044       1.000000
     1   C  -   3   H       0.984044       1.000000
     1   C  -   2   H       0.984044       1.000000

     2   H  -   1   C       0.984044       1.000000

     3   H  -   1   C       0.984044       1.000000

     4   H  -   1   C       0.984044       1.000000


 Valency analysis:

   CEN ATOM   TOT.VALENCE
     1   C       2.952132
     2   H       0.985368
     3   H       0.985368
     4   H       0.985368
 Localization group 2:   1 orbitals, occupancy  1.000
 Iterative localization: IB/PM,    1 iter; Final gradient 0.00E+00

 Bond order analysis:       [THRPRINT= 0.020]

   CEN ATOM   CEN ATOM     WIBERG.BO      RENORM.BO





 Valency analysis:

   CEN ATOM   TOT.VALENCE
     1   C       0.000000
     2   H       0.000000
     3   H       0.000000
     4   H       0.000000

 Total charge composition:

   CEN ATOM         s          p       ELECTRONS ->P.CHARGE
     1   C       3.06951    3.29338      6.36289   -0.36289
     2   H       0.87904                 0.87904    0.12096
     3   H       0.87904                 0.87904    0.12096
     4   H       0.87904                 0.87904    0.12096

 Total charge composition, AO contributions:

   CEN ATOM SHL      SPHERICAL COMPONENTS
     1   C  1s       1.99263
     1   C  2s       1.07688
     1   C  2p       1.14669    1.14669    1.00000

     2   H  1s       0.87904

     3   H  1s       0.87904

     4   H  1s       0.87904

 Active orbital charges:

   CEN ATOM         s          p       ELECTRONS ->SPIN.DEN
     1   C       0.00000    1.00000      1.00000    1.00000
     2   H       0.00000                 0.00000    0.00000
     3   H       0.00000                 0.00000    0.00000
     4   H       0.00000                 0.00000    0.00000

 Active orbital charges, AO contributions:

   CEN ATOM SHL      SPHERICAL COMPONENTS
     1   C  1s       0.00000
     1   C  2s       0.00000
     1   C  2p       0.00000    0.00000    1.00000

     2   H  1s       0.00000

     3   H  1s       0.00000

     4   H  1s       0.00000

 Summary of localized orbital composition:   [THRPRINT= 0.020]

   ORB  GRP  ORB.ENERGY      CENTERS/CHARGES
     1   1   -10.252847      C  1   2.000
     2   1    -0.567474      C  1   1.121   H  2   0.879
     3   1    -0.567471      C  1   1.121   H  3   0.879
     4   1    -0.567471      C  1   1.121   H  4   0.879
     5   2    -0.045431      C  1   1.000

 Localized orbitals saved to record      2100.2  (orbital set 2)


 **********************************************************************************************************************************
 DATASETS  * FILE   NREC   LENGTH (MB)   RECORD NAMES
              1      20       30.43       500      610      700      900      950      970     1000      129      960     1100   
                                          VAR    BASINP    GEOM    SYMINP    ZMAT    AOBASIS   BASIS     P2S    ABASIS      S 
                                         1400     1410     1200     1210     1080     1600     1650     1300     1700     1800   
                                           T        V       H0       H01     AOSYM     SMH    MOLCAS    ERIS     OPER     GRID   

              2       5        2.80       700     1000      520     1800     2100   
                                         GEOM     BASIS   MCVARS    GRID      RKS  

 PROGRAMS   *        TOTAL      IBBA        KS       INT
 CPU TIMES  *         0.84      0.02      0.50      0.18
 REAL TIME  *         1.18 SEC
 DISK USED  *        34.79 MB      
 **********************************************************************************************************************************
 Molecular orbitals read from record     2100.2  Type=RKS/LOCAL(IBO)  
 Occupation numbers read from record     2100.2  Type=RKS/LOCAL(IBO)  
 Orbital energies read from record       2100.2  Type=RKS/LOCAL(IBO)  
 Redundancy group numbers read from rec  2100.2  Type=RKS/LOCAL(IBO)  

 IBBA/STO-3G energy=      0.000000000000

        KS-SCF  
    -39.31763216
 **********************************************************************************************************************************
 Molpro calculation terminated
