
 Primary working directories    : /tmp/sb13343
 Secondary working directories  : /tmp/sb13343
 Wavefunction directory         : /panfs/panasas01/chem/sb13343/wfu/
 Main file repository           : /tmp/sb13343/

 SHA1      : b4a5b34a9e711420743f49e6833241d17c61fb3c
 NAME      : 2099.9.b4a5b34
 ARCHNAME  : linux/x86_64_openmp
 FC        : /cm/shared/languages/GCC-6.1/bin/gfortran
 BLASLIB   : -lblas
 id        : simonbennie

 Nodes     nprocs
 node35-048    1

 Using customized tuning parameters: mindgm=1; mindgv=20; mindgc=4; mindgr=1; noblas=0; minvec=7
 default implementation of scratch files=df  

 memory,500,m
 geomtyp=xyz
 nosym
 noorient
 geometry={
 O         -0.07179        0.79048        0.00000
 C          0.07053       -0.57065        0.00000
 H         -0.96431       -0.97345        0.00000
 H          0.55775       -0.96326        0.90880
 H          0.55775       -0.96326       -0.90880
 }
 basis={ default,sto-3g }
 {ks,B-LYP,direct;wf,17,1,1}
 {ibba,bonds=1}

 Variables initialized (895), CPU time= 0.01 sec
 Commands  initialized (725), CPU time= 0.01 sec, 591 directives.
 Default parameters read. Elapsed time= 0.10 sec

 Checking input...
 Passed
1


                                         ***  PROGRAM SYSTEM MOLPRO  ***
                                       Copyright, TTI GmbH Stuttgart, 2015
                                    Version 2099.9 linked May 26 2017 16:03:21


 **********************************************************************************************************************************
 LABEL *                                                                                 
  64 bit serial version                                                                  DATE: 08-Jun-17          TIME: 02:50:25  
 **********************************************************************************************************************************

 SHA1:             b4a5b34a9e711420743f49e6833241d17c61fb3c
 **********************************************************************************************************************************
 SETTING GEOMTYP        =    XYZ

 Variable memory set to  500000000 words,  buffer space 

 ZSYMEL=NOSYM

 SETTING BASIS          =    STO-3G


 Recomputing integrals since basis changed


 Using spherical harmonics

 Library entry O      S STO-3G               selected for orbital group  1
 Library entry O      P STO-3G               selected for orbital group  1
 Library entry C      S STO-3G               selected for orbital group  2
 Library entry C      P STO-3G               selected for orbital group  2
 Library entry H      S STO-3G               selected for orbital group  3


 PROGRAM * SEWARD (Integral evaluation for generally contracted gaussian basis sets)     Author: Roland Lindh, 1990

 Geometry written to block  1 of record 700


 Point group  C1  



 ATOMIC COORDINATES

 NR  ATOM    CHARGE       X              Y              Z

   1  O       8.00   -0.135663438    1.493790707    0.000000000
   2  C       6.00    0.133282384   -1.078372213    0.000000000
   3  H       1.00   -1.822281799   -1.839553896    0.000000000
   4  H       1.00    1.053994746   -1.820297587    1.717383102
   5  H       1.00    1.053994746   -1.820297587   -1.717383102

 Bond lengths in Bohr (Angstrom)

 1-2  2.586185210  2-3  2.098482506  2-4  2.085082548  2-5  2.085082548
     ( 1.368550276)     ( 1.110469120)     ( 1.103378167)     ( 1.103378167)

 Bond angles

  1-2-3  105.29875708   1-2-4  113.56671130   1-2-5  113.56671130   3-2-4  106.40524792

  3-2-5  106.40524792   4-2-5  110.90419060

 NUCLEAR CHARGE:                   17
 NUMBER OF PRIMITIVE AOS:          39
 NUMBER OF SYMMETRY AOS:           39
 NUMBER OF CONTRACTIONS:           13   (  13A   )
 NUMBER OF CORE ORBITALS:           2   (   2A   )
 NUMBER OF VALENCE ORBITALS:       11   (  11A   )


 NUCLEAR REPULSION ENERGY   34.28824494


 Eigenvalues of metric

         1 0.234E+00 0.369E+00 0.377E+00 0.408E+00 0.839E+00 0.959E+00 0.965E+00 0.968E+00


 Contracted 2-electron integrals neglected if value below      1.0D-11
 AO integral compression algorithm  1   Integral accuracy      1.0D-11

     0.262 MB (compressed) written to integral file (100.0%)


 NUMBER OF SORTED TWO-ELECTRON INTEGRALS:       4186.     BUFFER LENGTH:  32768
 NUMBER OF SEGMENTS:   1  SEGMENT LENGTH:       4186      RECORD LENGTH: 524288

 Memory used in sort:       0.56 MW

 SORT1 READ        5522. AND WROTE        3217. INTEGRALS IN      1 RECORDS. CPU TIME:     0.00 SEC, REAL TIME:     0.00 SEC
 SORT2 READ        3217. AND WROTE        4186. INTEGRALS IN      1 RECORDS. CPU TIME:     0.01 SEC, REAL TIME:     0.01 SEC

 FILE SIZES:   FILE 1:    30.3 MBYTE,  FILE 4:     4.2 MBYTE,   TOTAL:     34.5 MBYTE

 OPERATOR DM      FOR CENTER  0  COORDINATES:    0.000000    0.000000    0.000000


 **********************************************************************************************************************************
 DATASETS  * FILE   NREC   LENGTH (MB)   RECORD NAMES
              1      19       30.03       500      610      700      900      950      970     1000      129      960     1100   
                                          VAR    BASINP    GEOM    SYMINP    ZMAT    AOBASIS   BASIS     P2S    ABASIS      S 
                                         1400     1410     1200     1210     1080     1600     1650     1300     1700   
                                           T        V       H0       H01     AOSYM     SMH    MOLCAS    ERIS     OPER   

 PROGRAMS   *        TOTAL       INT
 CPU TIMES  *         0.34      0.20
 REAL TIME  *         0.75 SEC
 DISK USED  *        34.83 MB      
 **********************************************************************************************************************************

 Density functional group B-LYP=B88+LYP
 Functional: B88(Automatically generated (new) B88)                            Gradient terms: 1
 Functional: LYP(Automatically generated (new) LYP)                            Gradient terms: 1
 Use grid at  1800.2

 Functional: B88                       Factor:  1.0000
 Functional: LYP                       Factor:  1.0000

 Generated new metagrid on record  1800.2 with target accuracy 1.0D-06 and 19990 points in CPU time    0.5
 Computed new grid on record 1800.1 in CPU time    0.5
   14331 words reserved for DFT integration

 PROGRAM * RKS-SCF (Restricted open shell Kohn-Sham)     Authors: W. Meyer, H.-J. Werner, P.J. Knowles, 1993

 NUMBER OF ELECTRONS:       9+    8-    SPACE SYMMETRY=1    SPIN SYMMETRY: Doublet 
 CONVERGENCE THRESHOLDS:    1.00E-05 (Density)    1.00E-06 (Energy)
 MAX. NUMBER OF ITERATIONS:       60
 INTERPOLATION TYPE:            DIIS
 INTERPOLATION STEPS:              2 (START)      1 (STEP)
 LEVEL SHIFTS:                 -0.60 (CLOSED) -0.30 (OPEN) 



 Use fine grid record 1800.2 for energy threshold  1.0D-06
 Orbital guess generated from atomic densities. Full valence occupancy:    9

 Molecular orbital dump at record        2100.2

 Initial alpha occupancy:   9
 Initial beta  occupancy:   8
 Wave function symmetry:    1

 ITERATION    DDIFF          GRAD             ENERGY        2-EL.EN.            DIPOLE MOMENTS         DIIS   ORB.
    1      0.000D+00      0.000D+00      -113.41200170    183.992130   -0.05555   -1.41562    0.00000    0    start
    2      0.000D+00      0.242D-01      -113.46880328    180.685943   -0.01397   -0.41595    0.00000    1    diag,B
    3      0.534D-01      0.419D-02      -113.47037543    180.791955   -0.02964   -0.48361    0.00000    2    diag,B
    4      0.714D-02      0.105D-02      -113.47064238    180.790898   -0.03432   -0.46449    0.00000    3    diag,B
    5      0.238D-02      0.503D-03      -113.47071005    180.781797   -0.03533   -0.46112    0.00000    4    diag,B
    6      0.153D-02      0.976D-04      -113.47071293    180.780786   -0.03477   -0.46079    0.00000    5    diag,B
    7      0.347D-03      0.186D-04      -113.47071300    180.780959   -0.03474   -0.46095    0.00000    6    fixocc
    8      0.639D-04      0.391D-05      -113.47071301    180.780990   -0.03478   -0.46097    0.00000    7    diag,B
    9      0.152D-04      0.872D-06      -113.47071301    180.780996   -0.03479   -0.46097    0.00000    8    diag,B
   10      0.461D-05      0.195D-06      -113.47071301    180.780994   -0.03479   -0.46097    0.00000    0    orth

 Final alpha occupancy:   9
 Final beta  occupancy:   8

 !RKS STATE 1.1 Energy               -113.470713009997
 Nuclear energy                        34.28824494
 One-electron energy                 -223.05195088
 Two-electron energy                   90.39049681
 Density functional                   -15.09750387     B88=-14.53970089 LYP= -0.55780298
 Virial quotient                       -1.01296964
 !RKS STATE 1.1 Dipole moment          -0.03478866    -0.46096744     0.00000000
 Dipole moment /Debye                  -0.08841817    -1.17158562     0.00000000

 Orbital energies:

         1.1          2.1          3.1          4.1          5.1          6.1          7.1          8.1          9.1         10.1
    -18.528073    -9.798206    -0.831661    -0.541585    -0.354159    -0.352058    -0.254248    -0.073891    -0.155326     0.329614

        11.1
      0.376527

 HOMO      9.1    -0.155326 =      -4.2266eV
 LUMO     10.1     0.329614 =       8.9693eV
 LUMO-HOMO         0.484940 =      13.1959eV


 **********************************************************************************************************************************
 DATASETS  * FILE   NREC   LENGTH (MB)   RECORD NAMES
              1      20       30.67       500      610      700      900      950      970     1000      129      960     1100   
                                          VAR    BASINP    GEOM    SYMINP    ZMAT    AOBASIS   BASIS     P2S    ABASIS      S 
                                         1400     1410     1200     1210     1080     1600     1650     1300     1700     1800   
                                           T        V       H0       H01     AOSYM     SMH    MOLCAS    ERIS     OPER     GRID   

              2       5        2.82       700     1000      520     1800     2100   
                                         GEOM     BASIS   MCVARS    GRID      RKS  

 PROGRAMS   *        TOTAL        KS       INT
 CPU TIMES  *         1.46      1.12      0.20
 REAL TIME  *         3.15 SEC
 DISK USED  *        34.83 MB      
 **********************************************************************************************************************************


 PROGRAM * Intrinsic Basis Bonding Analysis (IBBA)          Author: G. Knizia

 Molecular orbitals read from record     2100.2  Type=RKS/CANONICAL (state 1.1)
 Fock matrix read from record            2100.2  Type=RKS/TOTAL (state 1.1)
 Orbital energies read from record       2100.2  Type=RKS/CANONICAL (state 1.1)
 Density matrix read from record         2100.2  Type=RKS/CHARGE (state 1.1)

 Number of core orbitals:           2 (   2 )
 Number of closed-shell orbitals:   6 (   6 )
 Number of active  orbitals:        1 (   1 )

 Basis set MINAO-AUTO-PP generated.      Number of basis functions:   13 

 Polarized AO type:                A = (O Ot + (1-O)(1-Ot)) P12
 Orthogonalization method:         Symmetric (Loewdin)
 Localization functional:          L = sum[A,i] <i|n_A|i>^4 -> max

 Localization group 1:   8 orbitals, occupancy  2.000
 Iterative localization: IB/PM,    6 iter; Final gradient 0.13E-08

 Bond order analysis:       [THRPRINT= 0.020]

   CEN ATOM   CEN ATOM     WIBERG.BO      RENORM.BO
     1   O  -   2   C       1.189825       2.025333
     1   O  -   3   H       0.069497       0.656963
     1   O  -   4   H       0.051990       0.135084
     1   O  -   5   H       0.051990       0.135084

     2   C  -   1   O       1.189825       2.025333
     2   C  -   5   H       0.925363       0.931802
     2   C  -   4   H       0.925363       0.931802
     2   C  -   3   H       0.877026       0.999019

     3   H  -   2   C       0.877026       0.999019
     3   H  -   1   O       0.069497       0.656963

     4   H  -   2   C       0.925363       0.931802
     4   H  -   1   O       0.051990       0.135084

     5   H  -   2   C       0.925363       0.931802
     5   H  -   1   O       0.051990       0.135084


 Valency analysis:

   CEN ATOM   TOT.VALENCE
     1   O       1.363302
     2   C       3.917577
     3   H       0.957794
     4   H       0.983188
     5   H       0.983188
 Localization group 2:   1 orbitals, occupancy  1.000
 Iterative localization: IB/PM,    1 iter; Final gradient 0.00E+00

 Bond order analysis:       [THRPRINT= 0.020]

   CEN ATOM   CEN ATOM     WIBERG.BO      RENORM.BO
     1   O  -   3   H       0.103101       0.500000
     1   O  -   2   C       0.021712       0.500000
     1   O  -   4   H       0.021137       0.500000
     1   O  -   5   H       0.021137       0.500000

     2   C  -   1   O       0.021712       0.500000

     3   H  -   1   O       0.103101       0.500000

     4   H  -   1   O       0.021137       0.500000

     5   H  -   1   O       0.021137       0.500000


 Valency analysis:

   CEN ATOM   TOT.VALENCE
     1   O       0.167087
     2   C       0.023626
     3   H       0.107102
     4   H       0.023008
     5   H       0.023008

 Total charge composition:

   CEN ATOM         s          p       ELECTRONS ->P.CHARGE
     1   O       3.81643    4.29432      8.11075   -0.11075
     2   C       3.00378    3.27018      6.27396   -0.27396
     3   H       0.85133                 0.85133    0.14867
     4   H       0.88198                 0.88198    0.11802
     5   H       0.88198                 0.88198    0.11802

 Total charge composition, AO contributions:

   CEN ATOM SHL      SPHERICAL COMPONENTS
     1   O  1s       1.99822
     1   O  2s       1.81821
     1   O  2p       1.04538    1.31644    1.93250

     2   C  1s       1.99267
     2   C  2s       1.01111
     2   C  2p       1.16411    0.92303    1.18304

     3   H  1s       0.85133

     4   H  1s       0.88198

     5   H  1s       0.88198

 Active orbital charges:

   CEN ATOM         s          p       ELECTRONS ->SPIN.DEN
     1   O       0.00000    0.90799      0.90799    0.90799
     2   C       0.00000    0.01196      0.01196    0.01196
     3   H       0.05677                 0.05677    0.05677
     4   H       0.01164                 0.01164    0.01164
     5   H       0.01164                 0.01164    0.01164

 Active orbital charges, AO contributions:

   CEN ATOM SHL      SPHERICAL COMPONENTS
     1   O  1s       0.00000
     1   O  2s       0.00000
     1   O  2p       0.89215    0.01584    0.00000

     2   C  1s       0.00000
     2   C  2s       0.00000
     2   C  2p       0.01184    0.00012    0.00000

     3   H  1s       0.05677

     4   H  1s       0.01164

     5   H  1s       0.01164

 Summary of localized orbital composition:   [THRPRINT= 0.020]

   ORB  GRP  ORB.ENERGY      CENTERS/CHARGES
     1   1   -18.353925      O  1   2.000
     2   1    -9.693036      C  2   2.000
     3   1    -0.651657      O  1   1.141   C  2   0.859
     4   1    -0.614129      O  1   1.997
     5   1    -0.451617      C  2   1.111   H  3   0.790   O  1   0.095
     6   1    -0.437965      C  2   1.133   H  5   0.847   (other: 0.020)
     7   1    -0.437965      C  2   1.133   H  4   0.847   (other: 0.020)
     8   1    -0.093588      O  1   1.932   C  2   0.025   H  5   0.021   H  4   0.021
     9   2    -0.094966      O  1   0.908   H  3   0.057   (other: 0.035)

 Localized orbitals saved to record      2100.2  (orbital set 2)


 **********************************************************************************************************************************
 DATASETS  * FILE   NREC   LENGTH (MB)   RECORD NAMES
              1      20       30.67       500      610      700      900      950      970     1000      129      960     1100   
                                          VAR    BASINP    GEOM    SYMINP    ZMAT    AOBASIS   BASIS     P2S    ABASIS      S 
                                         1400     1410     1200     1210     1080     1600     1650     1300     1700     1800   
                                           T        V       H0       H01     AOSYM     SMH    MOLCAS    ERIS     OPER     GRID   

              2       5        2.82       700     1000      520     1800     2100   
                                         GEOM     BASIS   MCVARS    GRID      RKS  

 PROGRAMS   *        TOTAL      IBBA        KS       INT
 CPU TIMES  *         1.48      0.02      1.12      0.20
 REAL TIME  *         3.22 SEC
 DISK USED  *        34.83 MB      
 **********************************************************************************************************************************
 Molecular orbitals read from record     2100.2  Type=RKS/LOCAL(IBO)  
 Occupation numbers read from record     2100.2  Type=RKS/LOCAL(IBO)  
 Orbital energies read from record       2100.2  Type=RKS/LOCAL(IBO)  
 Redundancy group numbers read from rec  2100.2  Type=RKS/LOCAL(IBO)  

 IBBA/STO-3G energy=      0.000000000000

        KS-SCF  
   -113.47071301
 **********************************************************************************************************************************
 Molpro calculation terminated
