
 Primary working directories    : /tmp/sb13343
 Secondary working directories  : /tmp/sb13343
 Wavefunction directory         : /panfs/panasas01/chem/sb13343/wfu/
 Main file repository           : /tmp/sb13343/

 SHA1      : b4a5b34a9e711420743f49e6833241d17c61fb3c
 NAME      : 2099.9.b4a5b34
 ARCHNAME  : linux/x86_64_openmp
 FC        : /cm/shared/languages/GCC-6.1/bin/gfortran
 BLASLIB   : -lblas
 id        : simonbennie

 Nodes     nprocs
 node35-048    1

 Using customized tuning parameters: mindgm=1; mindgv=20; mindgc=4; mindgr=1; noblas=0; minvec=7
 default implementation of scratch files=df  

 memory,500,m
 geomtyp=xyz
 nosym
 noorient
 geometry={
 O         -0.07179        0.79048        0.00000
 C          0.07053       -0.57065        0.00000
 H         -0.96431       -0.97345        0.00000
 H          0.55775       -0.96326        0.90880
 H          0.55775       -0.96326       -0.90880
 }
 basis={ default,svp }
 {ks,M05,direct;wf,17,1,1}
 {ibba,bonds=1}

 Variables initialized (895), CPU time= 0.00 sec
 Commands  initialized (725), CPU time= 0.01 sec, 591 directives.
 Default parameters read. Elapsed time= 0.05 sec

 Checking input...
 Passed
1


                                         ***  PROGRAM SYSTEM MOLPRO  ***
                                       Copyright, TTI GmbH Stuttgart, 2015
                                    Version 2099.9 linked May 26 2017 16:03:21


 **********************************************************************************************************************************
 LABEL *                                                                                 
  64 bit serial version                                                                  DATE: 08-Jun-17          TIME: 03:13:23  
 **********************************************************************************************************************************

 SHA1:             b4a5b34a9e711420743f49e6833241d17c61fb3c
 **********************************************************************************************************************************
 SETTING GEOMTYP        =    XYZ

 Variable memory set to  500000000 words,  buffer space 

 ZSYMEL=NOSYM

 SETTING BASIS          =    SVP


 Recomputing integrals since basis changed


 Using spherical harmonics

 Library entry O      S def2-SVP             selected for orbital group  1
 Library entry O      P def2-SVP             selected for orbital group  1
 Library entry O      D def2-SVP             selected for orbital group  1
 Library entry C      S def2-SVP             selected for orbital group  2
 Library entry C      P def2-SVP             selected for orbital group  2
 Library entry C      D def2-SVP             selected for orbital group  2
 Library entry H      S def2-SVP             selected for orbital group  3
 Library entry H      P def2-SVP             selected for orbital group  3


 PROGRAM * SEWARD (Integral evaluation for generally contracted gaussian basis sets)     Author: Roland Lindh, 1990

 Geometry written to block  1 of record 700


 Point group  C1  



 ATOMIC COORDINATES

 NR  ATOM    CHARGE       X              Y              Z

   1  O       8.00   -0.135663438    1.493790707    0.000000000
   2  C       6.00    0.133282384   -1.078372213    0.000000000
   3  H       1.00   -1.822281799   -1.839553896    0.000000000
   4  H       1.00    1.053994746   -1.820297587    1.717383102
   5  H       1.00    1.053994746   -1.820297587   -1.717383102

 Bond lengths in Bohr (Angstrom)

 1-2  2.586185210  2-3  2.098482506  2-4  2.085082548  2-5  2.085082548
     ( 1.368550276)     ( 1.110469120)     ( 1.103378167)     ( 1.103378167)

 Bond angles

  1-2-3  105.29875708   1-2-4  113.56671130   1-2-5  113.56671130   3-2-4  106.40524792

  3-2-5  106.40524792   4-2-5  110.90419060

 NUCLEAR CHARGE:                   17
 NUMBER OF PRIMITIVE AOS:          71
 NUMBER OF SYMMETRY AOS:           69
 NUMBER OF CONTRACTIONS:           43   (  43A   )
 NUMBER OF CORE ORBITALS:           2   (   2A   )
 NUMBER OF VALENCE ORBITALS:       11   (  11A   )


 NUCLEAR REPULSION ENERGY   34.28824494


 Eigenvalues of metric

         1 0.119E-01 0.382E-01 0.461E-01 0.536E-01 0.110E+00 0.137E+00 0.139E+00 0.243E+00


 Contracted 2-electron integrals neglected if value below      1.0D-11
 AO integral compression algorithm  1   Integral accuracy      1.0D-11

     2.359 MB (compressed) written to integral file ( 48.8%)


 NUMBER OF SORTED TWO-ELECTRON INTEGRALS:     447931.     BUFFER LENGTH:  32768
 NUMBER OF SEGMENTS:   1  SEGMENT LENGTH:     447931      RECORD LENGTH: 524288

 Memory used in sort:       1.00 MW

 SORT1 READ      553316. AND WROTE      366431. INTEGRALS IN      2 RECORDS. CPU TIME:     0.01 SEC, REAL TIME:     0.03 SEC
 SORT2 READ      366431. AND WROTE      447931. INTEGRALS IN      9 RECORDS. CPU TIME:     0.03 SEC, REAL TIME:     0.04 SEC

 FILE SIZES:   FILE 1:    32.4 MBYTE,  FILE 4:     8.4 MBYTE,   TOTAL:     40.9 MBYTE

 OPERATOR DM      FOR CENTER  0  COORDINATES:    0.000000    0.000000    0.000000


 **********************************************************************************************************************************
 DATASETS  * FILE   NREC   LENGTH (MB)   RECORD NAMES
              1      19       31.84       500      610      700      900      950      970     1000      129      960     1100   
                                          VAR    BASINP    GEOM    SYMINP    ZMAT    AOBASIS   BASIS     P2S    ABASIS      S 
                                         1400     1410     1200     1210     1080     1600     1650     1300     1700   
                                           T        V       H0       H01     AOSYM     SMH    MOLCAS    ERIS     OPER   

 PROGRAMS   *        TOTAL       INT
 CPU TIMES  *         0.42      0.28
 REAL TIME  *         1.09 SEC
 DISK USED  *        41.20 MB      
 **********************************************************************************************************************************

 Density functional group M05=XC-M05
 Functional: XC-M05(via MFM 1.6)                                               Gradient terms: 1
 Use grid at  1800.2


 Exact exchange will be calculated, factor:  0.2800

 Functional: XC-M05                    Factor:  1.0000

 Generated new metagrid on record  1800.2 with target accuracy 1.0D-06 and 19990 points in CPU time    0.5
 Computed new grid on record 1800.1 in CPU time    0.5
   38039 words reserved for DFT integration

 PROGRAM * RKS-SCF (Restricted open shell Kohn-Sham)     Authors: W. Meyer, H.-J. Werner, P.J. Knowles, 1993

 NUMBER OF ELECTRONS:       9+    8-    SPACE SYMMETRY=1    SPIN SYMMETRY: Doublet 
 CONVERGENCE THRESHOLDS:    1.00E-05 (Density)    1.00E-06 (Energy)
 MAX. NUMBER OF ITERATIONS:       60
 INTERPOLATION TYPE:            DIIS
 INTERPOLATION STEPS:              2 (START)      1 (STEP)
 LEVEL SHIFTS:                 -0.60 (CLOSED) -0.30 (OPEN) 



 Use fine grid record 1800.2 for energy threshold  1.0D-06
 Orbital guess generated from atomic densities. Full valence occupancy:    9

 Molecular orbital dump at record        2100.2

 Initial alpha occupancy:   9
 Initial beta  occupancy:   8
 Wave function symmetry:    1

 ITERATION    DDIFF          GRAD             ENERGY        2-EL.EN.            DIPOLE MOMENTS         DIIS   ORB.
    1      0.000D+00      0.000D+00      -114.86388735    175.277472   -0.07249   -1.48729    0.00000    0    start
    2      0.000D+00      0.962D-02      -114.89885444    170.911345   -0.01065   -0.83957    0.00000    1    diag,B
    3      0.107D-01      0.486D-02      -114.90631272    171.904293   -0.01852   -0.91039    0.00000    2    diag,B
    4      0.372D-02      0.104D-02      -114.90805014    171.788662   -0.01831   -0.83037    0.00000    3    diag,B
    5      0.166D-02      0.672D-03      -114.90891956    171.758700   -0.01636   -0.79390    0.00000    4    diag,B
    6      0.136D-02      0.213D-03      -114.90908539    171.748321   -0.01452   -0.77993    0.00000    5    diag,B
    7      0.595D-03      0.634D-04      -114.90910194    171.746313   -0.01356   -0.77948    0.00000    6    fixocc
    8      0.154D-03      0.180D-04      -114.90910445    171.748075   -0.01329   -0.78026    0.00000    7    diag,B
    9      0.587D-04      0.434D-05      -114.90910456    171.748144   -0.01324   -0.78042    0.00000    8    diag,B
   10      0.170D-04      0.155D-05      -114.90910473    171.748208   -0.01324   -0.78043    0.00000    9    orth
   11      0.559D-05      0.638D-06      -114.90910472    171.748201   -0.01324   -0.78043    0.00000    0    orth

 Final alpha occupancy:   9
 Final beta  occupancy:   8

 !RKS STATE 1.1 Energy               -114.909104716000
 Nuclear energy                        34.28824494
 One-electron energy                 -224.09117714
 Two-electron energy                   85.87410033
 Density functional                   -10.98027285     XC-M05=-10.98027285
 Virial quotient                       -1.00747782
 !RKS STATE 1.1 Dipole moment          -0.01324340    -0.78043153     0.00000000
 Dipole moment /Debye                  -0.03365917    -1.98352916     0.00000000

 Orbital energies:

         1.1          2.1          3.1          4.1          5.1          6.1          7.1          8.1          9.1         10.1
    -19.208912   -10.276732    -1.012416    -0.675707    -0.471080    -0.464001    -0.438574    -0.289893    -0.356791     0.071270

        11.1
      0.125537

 HOMO      9.1    -0.356791 =      -9.7088eV
 LUMO     10.1     0.071270 =       1.9394eV
 LUMO-HOMO         0.428061 =      11.6481eV


 **********************************************************************************************************************************
 DATASETS  * FILE   NREC   LENGTH (MB)   RECORD NAMES
              1      20       32.48       500      610      700      900      950      970     1000      129      960     1100   
                                          VAR    BASINP    GEOM    SYMINP    ZMAT    AOBASIS   BASIS     P2S    ABASIS      S 
                                         1400     1410     1200     1210     1080     1600     1650     1300     1700     1800   
                                           T        V       H0       H01     AOSYM     SMH    MOLCAS    ERIS     OPER     GRID   

              2       5        2.87       700     1000      520     1800     2100   
                                         GEOM     BASIS   MCVARS    GRID      RKS  

 PROGRAMS   *        TOTAL        KS       INT
 CPU TIMES  *         5.76      5.34      0.28
 REAL TIME  *         8.62 SEC
 DISK USED  *        41.20 MB      
 **********************************************************************************************************************************


 PROGRAM * Intrinsic Basis Bonding Analysis (IBBA)          Author: G. Knizia

 Molecular orbitals read from record     2100.2  Type=RKS/CANONICAL (state 1.1)
 Fock matrix read from record            2100.2  Type=RKS/TOTAL (state 1.1)
 Orbital energies read from record       2100.2  Type=RKS/CANONICAL (state 1.1)
 Density matrix read from record         2100.2  Type=RKS/CHARGE (state 1.1)

 Number of core orbitals:           2 (   2 )
 Number of closed-shell orbitals:   6 (   6 )
 Number of active  orbitals:        1 (   1 )

 Basis set MINAO-AUTO-PP generated.      Number of basis functions:   13 

 Polarized AO type:                A = (O Ot + (1-O)(1-Ot)) P12
 Orthogonalization method:         Symmetric (Loewdin)
 Localization functional:          L = sum[A,i] <i|n_A|i>^4 -> max

 Localization group 1:   8 orbitals, occupancy  2.000
 Iterative localization: IB/PM,    6 iter; Final gradient 0.42E-08

 Bond order analysis:       [THRPRINT= 0.020]

   CEN ATOM   CEN ATOM     WIBERG.BO      RENORM.BO
     1   O  -   2   C       1.188683       2.022963
     1   O  -   3   H       0.089104       0.653741
     1   O  -   4   H       0.050712       0.130394
     1   O  -   5   H       0.050712       0.130394

     2   C  -   1   O       1.188683       2.022963
     2   C  -   5   H       0.922864       0.938834
     2   C  -   4   H       0.922864       0.938834
     2   C  -   3   H       0.845137       0.997217

     3   H  -   2   C       0.845137       0.997217
     3   H  -   1   O       0.089104       0.653741

     4   H  -   2   C       0.922864       0.938834
     4   H  -   1   O       0.050712       0.130394

     5   H  -   2   C       0.922864       0.938834
     5   H  -   1   O       0.050712       0.130394


 Valency analysis:

   CEN ATOM   TOT.VALENCE
     1   O       1.379210
     2   C       3.879549
     3   H       0.945426
     4   H       0.979944
     5   H       0.979944
 Localization group 2:   1 orbitals, occupancy  1.000
 Iterative localization: IB/PM,    1 iter; Final gradient 0.00E+00

 Bond order analysis:       [THRPRINT= 0.020]

   CEN ATOM   CEN ATOM     WIBERG.BO      RENORM.BO
     1   O  -   3   H       0.108568       0.500000
     1   O  -   2   C       0.034541       0.500000
     1   O  -   4   H       0.022613       0.500000
     1   O  -   5   H       0.022613       0.500000

     2   C  -   1   O       0.034541       0.500000

     3   H  -   1   O       0.108568       0.500000

     4   H  -   1   O       0.022613       0.500000

     5   H  -   1   O       0.022613       0.500000


 Valency analysis:

   CEN ATOM   TOT.VALENCE
     1   O       0.188335
     2   C       0.037859
     3   H       0.113977
     4   H       0.024953
     5   H       0.024953

 Total charge composition:

   CEN ATOM         s          p       ELECTRONS ->P.CHARGE
     1   O       3.77118    4.48750      8.25868   -0.25868
     2   C       3.01550    3.15672      6.17222   -0.17222
     3   H       0.82706                 0.82706    0.17294
     4   H       0.87102                 0.87102    0.12898
     5   H       0.87102                 0.87102    0.12898

 Total charge composition, AO contributions:

   CEN ATOM SHL      SPHERICAL COMPONENTS
     1   O  1s       1.99808
     1   O  2s       1.77310
     1   O  2p       1.07883    1.46616    1.94251

     2   C  1s       1.99156
     2   C  2s       1.02395
     2   C  2p       1.15500    0.83044    1.17127

     3   H  1s       0.82706

     4   H  1s       0.87102

     5   H  1s       0.87102

 Active orbital charges:

   CEN ATOM         s          p       ELECTRONS ->SPIN.DEN
     1   O       0.00000    0.89475      0.89476    0.89476
     2   C       0.00000    0.01930      0.01930    0.01930
     3   H       0.06067                 0.06067    0.06067
     4   H       0.01264                 0.01264    0.01264
     5   H       0.01264                 0.01264    0.01264

 Active orbital charges, AO contributions:

   CEN ATOM SHL      SPHERICAL COMPONENTS
     1   O  1s       0.00000
     1   O  2s       0.00000
     1   O  2p       0.87873    0.01602    0.00000

     2   C  1s       0.00000
     2   C  2s       0.00000
     2   C  2p       0.01906    0.00025    0.00000

     3   H  1s       0.06067

     4   H  1s       0.01264

     5   H  1s       0.01264

 Summary of localized orbital composition:   [THRPRINT= 0.020]

   ORB  GRP  ORB.ENERGY      CENTERS/CHARGES
     1   1   -18.920609      O  1   2.000
     2   1   -10.166140      C  2   2.000
     3   1    -0.893342      O  1   1.995
     4   1    -0.862459      O  1   1.251   C  2   0.749
     5   1    -0.567057      C  2   1.109   H  3   0.761   O  1   0.127
     6   1    -0.551093      C  2   1.136   H  5   0.838   O  1   0.024
     7   1    -0.551093      C  2   1.136   H  4   0.838   O  1   0.024
     8   1    -0.325525      O  1   1.942   C  2   0.022   (other: 0.036)
     9   2    -0.228774      O  1   0.895   H  3   0.061   (other: 0.045)

 Localized orbitals saved to record      2100.2  (orbital set 2)


 **********************************************************************************************************************************
 DATASETS  * FILE   NREC   LENGTH (MB)   RECORD NAMES
              1      20       32.48       500      610      700      900      950      970     1000      129      960     1100   
                                          VAR    BASINP    GEOM    SYMINP    ZMAT    AOBASIS   BASIS     P2S    ABASIS      S 
                                         1400     1410     1200     1210     1080     1600     1650     1300     1700     1800   
                                           T        V       H0       H01     AOSYM     SMH    MOLCAS    ERIS     OPER     GRID   

              2       5        2.89       700     1000      520     1800     2100   
                                         GEOM     BASIS   MCVARS    GRID      RKS  

 PROGRAMS   *        TOTAL      IBBA        KS       INT
 CPU TIMES  *         5.78      0.02      5.34      0.28
 REAL TIME  *         8.70 SEC
 DISK USED  *        41.20 MB      
 **********************************************************************************************************************************
 Molecular orbitals read from record     2100.2  Type=RKS/LOCAL(IBO)  
 Occupation numbers read from record     2100.2  Type=RKS/LOCAL(IBO)  
 Orbital energies read from record       2100.2  Type=RKS/LOCAL(IBO)  
 Redundancy group numbers read from rec  2100.2  Type=RKS/LOCAL(IBO)  

 IBBA/SVP energy=      0.000000000000

        KS-SCF  
   -114.90910472
 **********************************************************************************************************************************
 Molpro calculation terminated
