
 Primary working directories    : /tmp/sb13343
 Secondary working directories  : /tmp/sb13343
 Wavefunction directory         : /panfs/panasas01/chem/sb13343/wfu/
 Main file repository           : /tmp/sb13343/

 SHA1      : b4a5b34a9e711420743f49e6833241d17c61fb3c
 NAME      : 2099.9.b4a5b34
 ARCHNAME  : linux/x86_64_openmp
 FC        : /cm/shared/languages/GCC-6.1/bin/gfortran
 BLASLIB   : -lblas
 id        : simonbennie

 Nodes     nprocs
 node35-048    1

 Using customized tuning parameters: mindgm=1; mindgv=20; mindgc=4; mindgr=1; noblas=0; minvec=7
 default implementation of scratch files=df  

 memory,500,m
 geomtyp=xyz
 nosym
 noorient
 geometry={
 O         -0.07179        0.79048        0.00000
 C          0.07053       -0.57065        0.00000
 H         -0.96431       -0.97345        0.00000
 H          0.55775       -0.96326        0.90880
 H          0.55775       -0.96326       -0.90880
 }
 basis={ default,svp }
 {ks,M11-L,direct;wf,17,1,1}
 {ibba,bonds=1}

 Variables initialized (895), CPU time= 0.00 sec
 Commands  initialized (725), CPU time= 0.02 sec, 591 directives.
 Default parameters read. Elapsed time= 0.15 sec

 Checking input...
 Passed
1


                                         ***  PROGRAM SYSTEM MOLPRO  ***
                                       Copyright, TTI GmbH Stuttgart, 2015
                                    Version 2099.9 linked May 26 2017 16:03:21


 **********************************************************************************************************************************
 LABEL *                                                                                 
  64 bit serial version                                                                  DATE: 08-Jun-17          TIME: 03:21:48  
 **********************************************************************************************************************************

 SHA1:             b4a5b34a9e711420743f49e6833241d17c61fb3c
 **********************************************************************************************************************************
 SETTING GEOMTYP        =    XYZ

 Variable memory set to  500000000 words,  buffer space 

 ZSYMEL=NOSYM

 SETTING BASIS          =    SVP


 Recomputing integrals since basis changed


 Using spherical harmonics

 Library entry O      S def2-SVP             selected for orbital group  1
 Library entry O      P def2-SVP             selected for orbital group  1
 Library entry O      D def2-SVP             selected for orbital group  1
 Library entry C      S def2-SVP             selected for orbital group  2
 Library entry C      P def2-SVP             selected for orbital group  2
 Library entry C      D def2-SVP             selected for orbital group  2
 Library entry H      S def2-SVP             selected for orbital group  3
 Library entry H      P def2-SVP             selected for orbital group  3


 PROGRAM * SEWARD (Integral evaluation for generally contracted gaussian basis sets)     Author: Roland Lindh, 1990

 Geometry written to block  1 of record 700


 Point group  C1  



 ATOMIC COORDINATES

 NR  ATOM    CHARGE       X              Y              Z

   1  O       8.00   -0.135663438    1.493790707    0.000000000
   2  C       6.00    0.133282384   -1.078372213    0.000000000
   3  H       1.00   -1.822281799   -1.839553896    0.000000000
   4  H       1.00    1.053994746   -1.820297587    1.717383102
   5  H       1.00    1.053994746   -1.820297587   -1.717383102

 Bond lengths in Bohr (Angstrom)

 1-2  2.586185210  2-3  2.098482506  2-4  2.085082548  2-5  2.085082548
     ( 1.368550276)     ( 1.110469120)     ( 1.103378167)     ( 1.103378167)

 Bond angles

  1-2-3  105.29875708   1-2-4  113.56671130   1-2-5  113.56671130   3-2-4  106.40524792

  3-2-5  106.40524792   4-2-5  110.90419060

 NUCLEAR CHARGE:                   17
 NUMBER OF PRIMITIVE AOS:          71
 NUMBER OF SYMMETRY AOS:           69
 NUMBER OF CONTRACTIONS:           43   (  43A   )
 NUMBER OF CORE ORBITALS:           2   (   2A   )
 NUMBER OF VALENCE ORBITALS:       11   (  11A   )


 NUCLEAR REPULSION ENERGY   34.28824494


 Eigenvalues of metric

         1 0.119E-01 0.382E-01 0.461E-01 0.536E-01 0.110E+00 0.137E+00 0.139E+00 0.243E+00


 Contracted 2-electron integrals neglected if value below      1.0D-11
 AO integral compression algorithm  1   Integral accuracy      1.0D-11

     2.359 MB (compressed) written to integral file ( 48.8%)


 NUMBER OF SORTED TWO-ELECTRON INTEGRALS:     447931.     BUFFER LENGTH:  32768
 NUMBER OF SEGMENTS:   1  SEGMENT LENGTH:     447931      RECORD LENGTH: 524288

 Memory used in sort:       1.00 MW

 SORT1 READ      553316. AND WROTE      366431. INTEGRALS IN      2 RECORDS. CPU TIME:     0.01 SEC, REAL TIME:     0.02 SEC
 SORT2 READ      366431. AND WROTE      447931. INTEGRALS IN      9 RECORDS. CPU TIME:     0.02 SEC, REAL TIME:     0.04 SEC

 FILE SIZES:   FILE 1:    32.4 MBYTE,  FILE 4:     8.4 MBYTE,   TOTAL:     40.9 MBYTE

 OPERATOR DM      FOR CENTER  0  COORDINATES:    0.000000    0.000000    0.000000


 **********************************************************************************************************************************
 DATASETS  * FILE   NREC   LENGTH (MB)   RECORD NAMES
              1      19       31.84       500      610      700      900      950      970     1000      129      960     1100   
                                          VAR    BASINP    GEOM    SYMINP    ZMAT    AOBASIS   BASIS     P2S    ABASIS      S 
                                         1400     1410     1200     1210     1080     1600     1650     1300     1700   
                                           T        V       H0       H01     AOSYM     SMH    MOLCAS    ERIS     OPER   

 PROGRAMS   *        TOTAL       INT
 CPU TIMES  *         0.44      0.30
 REAL TIME  *         1.15 SEC
 DISK USED  *        41.20 MB      
 **********************************************************************************************************************************

 Density functional group M11-L=XC-M11-L
 Functional: XC-M11-L(via MFM 1.6)                                             Gradient terms: 1
 Use grid at  1800.2

 Functional: XC-M11-L                  Factor:  1.0000

 Generated new metagrid on record  1800.2 with target accuracy 1.0D-06 and 19990 points in CPU time    0.5
 Computed new grid on record 1800.1 in CPU time    0.5
   38039 words reserved for DFT integration

 PROGRAM * RKS-SCF (Restricted open shell Kohn-Sham)     Authors: W. Meyer, H.-J. Werner, P.J. Knowles, 1993

 NUMBER OF ELECTRONS:       9+    8-    SPACE SYMMETRY=1    SPIN SYMMETRY: Doublet 
 CONVERGENCE THRESHOLDS:    1.00E-05 (Density)    1.00E-06 (Energy)
 MAX. NUMBER OF ITERATIONS:       60
 INTERPOLATION TYPE:            DIIS
 INTERPOLATION STEPS:              2 (START)      1 (STEP)
 LEVEL SHIFTS:                 -0.60 (CLOSED) -0.30 (OPEN) 



 Use fine grid record 1800.2 for energy threshold  1.0D-06
 Orbital guess generated from atomic densities. Full valence occupancy:    9

 Molecular orbital dump at record        2100.2

 Initial alpha occupancy:   9
 Initial beta  occupancy:   8
 Wave function symmetry:    1

 ITERATION    DDIFF          GRAD             ENERGY        2-EL.EN.            DIPOLE MOMENTS         DIIS   ORB.
    1      0.000D+00      0.000D+00      -114.83817961    183.595136   -0.06473   -1.43574    0.00000    0    start
    2      0.000D+00      0.105D-01      -114.88233758    178.741976    0.01026   -0.83093    0.00000    1    diag,B
    3      0.107D-01      0.401D-02      -114.88711899    179.803038   -0.01027   -0.89858    0.00000    2    diag,B
    4      0.359D-02      0.874D-03      -114.88802923    179.619127   -0.01164   -0.81624    0.00000    3    diag,B
    5      0.130D-02      0.564D-03      -114.88837056    179.619100   -0.01193   -0.79654    0.00000    4    diag,B
    6      0.865D-03      0.206D-03      -114.88846483    179.609266   -0.01155   -0.77999    0.00000    5    diag,B
    7      0.628D-03      0.469D-04      -114.88846868    179.607659   -0.01092   -0.77909    0.00000    6    fixocc
    8      0.113D-03      0.142D-04      -114.88846898    179.608854   -0.01063   -0.77964    0.00000    7    diag,B
    9      0.367D-04      0.369D-05      -114.88846901    179.609109   -0.01052   -0.77976    0.00000    8    diag,B
   10      0.134D-04      0.113D-05      -114.88846902    179.609161   -0.01049   -0.77976    0.00000    9    orth
   11      0.415D-05      0.454D-06      -114.88846902    179.609172   -0.01048   -0.77977    0.00000    0    orth

 Final alpha occupancy:   9
 Final beta  occupancy:   8

 !RKS STATE 1.1 Energy               -114.888469019151
 Nuclear energy                        34.28824494
 One-electron energy                 -223.96542810
 Two-electron energy                   89.80458589
 Density functional                   -15.01587174     XC-M11-L=-15.01587174
 Virial quotient                       -1.00404227
 !RKS STATE 1.1 Dipole moment          -0.01048201    -0.77976645     0.00000000
 Dipole moment /Debye                  -0.02664087    -1.98183881     0.00000000

 Orbital energies:

         1.1          2.1          3.1          4.1          5.1          6.1          7.1          8.1          9.1         10.1
    -19.412696   -10.419918    -1.004642    -0.638208    -0.426195    -0.421662    -0.411058    -0.259967    -0.315077     0.033181

        11.1
      0.078687

 HOMO      9.1    -0.315077 =      -8.5737eV
 LUMO     10.1     0.033181 =       0.9029eV
 LUMO-HOMO         0.348259 =       9.4766eV


 **********************************************************************************************************************************
 DATASETS  * FILE   NREC   LENGTH (MB)   RECORD NAMES
              1      20       32.48       500      610      700      900      950      970     1000      129      960     1100   
                                          VAR    BASINP    GEOM    SYMINP    ZMAT    AOBASIS   BASIS     P2S    ABASIS      S 
                                         1400     1410     1200     1210     1080     1600     1650     1300     1700     1800   
                                           T        V       H0       H01     AOSYM     SMH    MOLCAS    ERIS     OPER     GRID   

              2       5        2.87       700     1000      520     1800     2100   
                                         GEOM     BASIS   MCVARS    GRID      RKS  

 PROGRAMS   *        TOTAL        KS       INT
 CPU TIMES  *         6.00      5.56      0.30
 REAL TIME  *         8.12 SEC
 DISK USED  *        41.20 MB      
 **********************************************************************************************************************************


 PROGRAM * Intrinsic Basis Bonding Analysis (IBBA)          Author: G. Knizia

 Molecular orbitals read from record     2100.2  Type=RKS/CANONICAL (state 1.1)
 Fock matrix read from record            2100.2  Type=RKS/TOTAL (state 1.1)
 Orbital energies read from record       2100.2  Type=RKS/CANONICAL (state 1.1)
 Density matrix read from record         2100.2  Type=RKS/CHARGE (state 1.1)

 Number of core orbitals:           2 (   2 )
 Number of closed-shell orbitals:   6 (   6 )
 Number of active  orbitals:        1 (   1 )

 Basis set MINAO-AUTO-PP generated.      Number of basis functions:   13 

 Polarized AO type:                A = (O Ot + (1-O)(1-Ot)) P12
 Orthogonalization method:         Symmetric (Loewdin)
 Localization functional:          L = sum[A,i] <i|n_A|i>^4 -> max

 Localization group 1:   8 orbitals, occupancy  2.000
 Iterative localization: IB/PM,    6 iter; Final gradient 0.78E-08

 Bond order analysis:       [THRPRINT= 0.020]

   CEN ATOM   CEN ATOM     WIBERG.BO      RENORM.BO
     1   O  -   2   C       1.200631       2.024567
     1   O  -   3   H       0.096220       0.661788
     1   O  -   4   H       0.053243       0.130762
     1   O  -   5   H       0.053243       0.130762

     2   C  -   1   O       1.200631       2.024567
     2   C  -   5   H       0.920226       0.935130
     2   C  -   4   H       0.920226       0.935130
     2   C  -   3   H       0.837099       0.997644

     3   H  -   2   C       0.837099       0.997644
     3   H  -   1   O       0.096220       0.661788

     4   H  -   2   C       0.920226       0.935130
     4   H  -   1   O       0.053243       0.130762

     5   H  -   2   C       0.920226       0.935130
     5   H  -   1   O       0.053243       0.130762


 Valency analysis:

   CEN ATOM   TOT.VALENCE
     1   O       1.403338
     2   C       3.878183
     3   H       0.942179
     4   H       0.979878
     5   H       0.979878
 Localization group 2:   1 orbitals, occupancy  1.000
 Iterative localization: IB/PM,    1 iter; Final gradient 0.00E+00

 Bond order analysis:       [THRPRINT= 0.020]

   CEN ATOM   CEN ATOM     WIBERG.BO      RENORM.BO
     1   O  -   3   H       0.118325       0.500000
     1   O  -   2   C       0.035645       0.500000
     1   O  -   4   H       0.024265       0.500000
     1   O  -   5   H       0.024265       0.500000

     2   C  -   1   O       0.035645       0.500000

     3   H  -   1   O       0.118325       0.500000

     4   H  -   1   O       0.024265       0.500000

     5   H  -   1   O       0.024265       0.500000


 Valency analysis:

   CEN ATOM   TOT.VALENCE
     1   O       0.202500
     2   C       0.039436
     3   H       0.124674
     4   H       0.027022
     5   H       0.027022

 Total charge composition:

   CEN ATOM         s          p       ELECTRONS ->P.CHARGE
     1   O       3.79331    4.47485      8.26816   -0.26816
     2   C       3.04133    3.12047      6.16181   -0.16181
     3   H       0.82634                 0.82634    0.17366
     4   H       0.87185                 0.87185    0.12815
     5   H       0.87185                 0.87185    0.12815

 Total charge composition, AO contributions:

   CEN ATOM SHL      SPHERICAL COMPONENTS
     1   O  1s       1.99780
     1   O  2s       1.79551
     1   O  2p       1.08400    1.45121    1.93964

     2   C  1s       1.98961
     2   C  2s       1.05173
     2   C  2p       1.14135    0.82139    1.15773

     3   H  1s       0.82634

     4   H  1s       0.87185

     5   H  1s       0.87185

 Active orbital charges:

   CEN ATOM         s          p       ELECTRONS ->SPIN.DEN
     1   O       0.00000    0.88568      0.88568    0.88568
     2   C       0.00000    0.02012      0.02012    0.02012
     3   H       0.06680                 0.06680    0.06680
     4   H       0.01370                 0.01370    0.01370
     5   H       0.01370                 0.01370    0.01370

 Active orbital charges, AO contributions:

   CEN ATOM SHL      SPHERICAL COMPONENTS
     1   O  1s       0.00000
     1   O  2s       0.00000
     1   O  2p       0.86898    0.01670    0.00000

     2   C  1s       0.00000
     2   C  2s       0.00000
     2   C  2p       0.01985    0.00027    0.00000

     3   H  1s       0.06680

     4   H  1s       0.01370

     5   H  1s       0.01370

 Summary of localized orbital composition:   [THRPRINT= 0.020]

   ORB  GRP  ORB.ENERGY      CENTERS/CHARGES
     1   1   -19.089563      O  1   2.000
     2   1   -10.303275      C  2   2.000
     3   1    -0.930323      O  1   1.995
     4   1    -0.832493      O  1   1.258   C  2   0.742
     5   1    -0.524899      C  2   1.105   H  3   0.755   O  1   0.138
     6   1    -0.509804      C  2   1.135   H  5   0.837   O  1   0.026
     7   1    -0.509804      C  2   1.135   H  4   0.837   O  1   0.026
     8   1    -0.294183      O  1   1.939   C  2   0.023   (other: 0.037)
     9   2    -0.236941      O  1   0.886   H  3   0.067   C  2   0.020   (other: 0.027)

 Localized orbitals saved to record      2100.2  (orbital set 2)


 **********************************************************************************************************************************
 DATASETS  * FILE   NREC   LENGTH (MB)   RECORD NAMES
              1      20       32.48       500      610      700      900      950      970     1000      129      960     1100   
                                          VAR    BASINP    GEOM    SYMINP    ZMAT    AOBASIS   BASIS     P2S    ABASIS      S 
                                         1400     1410     1200     1210     1080     1600     1650     1300     1700     1800   
                                           T        V       H0       H01     AOSYM     SMH    MOLCAS    ERIS     OPER     GRID   

              2       5        2.89       700     1000      520     1800     2100   
                                         GEOM     BASIS   MCVARS    GRID      RKS  

 PROGRAMS   *        TOTAL      IBBA        KS       INT
 CPU TIMES  *         6.02      0.02      5.56      0.30
 REAL TIME  *         8.21 SEC
 DISK USED  *        41.20 MB      
 **********************************************************************************************************************************
 Molecular orbitals read from record     2100.2  Type=RKS/LOCAL(IBO)  
 Occupation numbers read from record     2100.2  Type=RKS/LOCAL(IBO)  
 Orbital energies read from record       2100.2  Type=RKS/LOCAL(IBO)  
 Redundancy group numbers read from rec  2100.2  Type=RKS/LOCAL(IBO)  

 IBBA/SVP energy=      0.000000000000

        KS-SCF  
   -114.88846902
 **********************************************************************************************************************************
 Molpro calculation terminated
