
 Primary working directories    : /tmp/sb13343
 Secondary working directories  : /tmp/sb13343
 Wavefunction directory         : /panfs/panasas01/chem/sb13343/wfu/
 Main file repository           : /tmp/sb13343/

 SHA1      : b4a5b34a9e711420743f49e6833241d17c61fb3c
 NAME      : 2099.9.b4a5b34
 ARCHNAME  : linux/x86_64_openmp
 FC        : /cm/shared/languages/GCC-6.1/bin/gfortran
 BLASLIB   : -lblas
 id        : simonbennie

 Nodes     nprocs
 node35-048    1

 Using customized tuning parameters: mindgm=1; mindgv=20; mindgc=4; mindgr=1; noblas=0; minvec=7
 default implementation of scratch files=df  

 memory,500,m
 geomtyp=xyz
 nosym
 noorient
 geometry={
 O         -0.07179        0.79048        0.00000
 C          0.07053       -0.57065        0.00000
 H         -0.96431       -0.97345        0.00000
 H          0.55775       -0.96326        0.90880
 H          0.55775       -0.96326       -0.90880
 }
 basis={ default,svp }
 {uks,B3LYP,direct;wf,17,1,1}
 {ibba,bonds=1}

 Variables initialized (895), CPU time= 0.01 sec
 Commands  initialized (725), CPU time= 0.01 sec, 591 directives.
 Default parameters read. Elapsed time= 0.12 sec

 Checking input...
 Passed
1


                                         ***  PROGRAM SYSTEM MOLPRO  ***
                                       Copyright, TTI GmbH Stuttgart, 2015
                                    Version 2099.9 linked May 26 2017 16:03:21


 **********************************************************************************************************************************
 LABEL *                                                                                 
  64 bit serial version                                                                  DATE: 08-Jun-17          TIME: 03:08:29  
 **********************************************************************************************************************************

 SHA1:             b4a5b34a9e711420743f49e6833241d17c61fb3c
 **********************************************************************************************************************************
 SETTING GEOMTYP        =    XYZ

 Variable memory set to  500000000 words,  buffer space 

 ZSYMEL=NOSYM

 SETTING BASIS          =    SVP


 Recomputing integrals since basis changed


 Using spherical harmonics

 Library entry O      S def2-SVP             selected for orbital group  1
 Library entry O      P def2-SVP             selected for orbital group  1
 Library entry O      D def2-SVP             selected for orbital group  1
 Library entry C      S def2-SVP             selected for orbital group  2
 Library entry C      P def2-SVP             selected for orbital group  2
 Library entry C      D def2-SVP             selected for orbital group  2
 Library entry H      S def2-SVP             selected for orbital group  3
 Library entry H      P def2-SVP             selected for orbital group  3


 PROGRAM * SEWARD (Integral evaluation for generally contracted gaussian basis sets)     Author: Roland Lindh, 1990

 Geometry written to block  1 of record 700


 Point group  C1  



 ATOMIC COORDINATES

 NR  ATOM    CHARGE       X              Y              Z

   1  O       8.00   -0.135663438    1.493790707    0.000000000
   2  C       6.00    0.133282384   -1.078372213    0.000000000
   3  H       1.00   -1.822281799   -1.839553896    0.000000000
   4  H       1.00    1.053994746   -1.820297587    1.717383102
   5  H       1.00    1.053994746   -1.820297587   -1.717383102

 Bond lengths in Bohr (Angstrom)

 1-2  2.586185210  2-3  2.098482506  2-4  2.085082548  2-5  2.085082548
     ( 1.368550276)     ( 1.110469120)     ( 1.103378167)     ( 1.103378167)

 Bond angles

  1-2-3  105.29875708   1-2-4  113.56671130   1-2-5  113.56671130   3-2-4  106.40524792

  3-2-5  106.40524792   4-2-5  110.90419060

 NUCLEAR CHARGE:                   17
 NUMBER OF PRIMITIVE AOS:          71
 NUMBER OF SYMMETRY AOS:           69
 NUMBER OF CONTRACTIONS:           43   (  43A   )
 NUMBER OF CORE ORBITALS:           2   (   2A   )
 NUMBER OF VALENCE ORBITALS:       11   (  11A   )


 NUCLEAR REPULSION ENERGY   34.28824494


 Eigenvalues of metric

         1 0.119E-01 0.382E-01 0.461E-01 0.536E-01 0.110E+00 0.137E+00 0.139E+00 0.243E+00


 Contracted 2-electron integrals neglected if value below      1.0D-11
 AO integral compression algorithm  1   Integral accuracy      1.0D-11

     2.359 MB (compressed) written to integral file ( 48.8%)


 NUMBER OF SORTED TWO-ELECTRON INTEGRALS:     447931.     BUFFER LENGTH:  32768
 NUMBER OF SEGMENTS:   1  SEGMENT LENGTH:     447931      RECORD LENGTH: 524288

 Memory used in sort:       1.00 MW

 SORT1 READ      553316. AND WROTE      366431. INTEGRALS IN      2 RECORDS. CPU TIME:     0.00 SEC, REAL TIME:     0.01 SEC
 SORT2 READ      366431. AND WROTE      447931. INTEGRALS IN      9 RECORDS. CPU TIME:     0.04 SEC, REAL TIME:     0.04 SEC

 FILE SIZES:   FILE 1:    32.4 MBYTE,  FILE 4:     8.4 MBYTE,   TOTAL:     40.9 MBYTE

 OPERATOR DM      FOR CENTER  0  COORDINATES:    0.000000    0.000000    0.000000


 **********************************************************************************************************************************
 DATASETS  * FILE   NREC   LENGTH (MB)   RECORD NAMES
              1      19       31.84       500      610      700      900      950      970     1000      129      960     1100   
                                          VAR    BASINP    GEOM    SYMINP    ZMAT    AOBASIS   BASIS     P2S    ABASIS      S 
                                         1400     1410     1200     1210     1080     1600     1650     1300     1700   
                                           T        V       H0       H01     AOSYM     SMH    MOLCAS    ERIS     OPER   

 PROGRAMS   *        TOTAL       INT
 CPU TIMES  *         0.43      0.28
 REAL TIME  *         1.02 SEC
 DISK USED  *        41.20 MB      
 **********************************************************************************************************************************

 Density functional group B3LYP=B88+DIRAC+LYP+VWN5
 Functional: B88(Automatically generated (new) B88)                            Gradient terms: 1
 Functional: DIRAC(Automatically generated (new) DIRAC)                        Gradient terms: 0
 Functional: LYP(Automatically generated (new) LYP)                            Gradient terms: 1
 Functional: VWN5(Automatically generated (new) VWN5)                          Gradient terms: 0
 Use grid at  1800.2


 Exact exchange will be calculated, factor:  0.2000

 Functional: B88                       Factor:  0.7200
 Functional: DIRAC                     Factor:  0.0800
 Functional: LYP                       Factor:  0.8100
 Functional: VWN5                      Factor:  0.1900

 Generated new metagrid on record  1800.2 with target accuracy 1.0D-06 and 19990 points in CPU time    0.5
 Computed new grid on record 1800.1 in CPU time    0.5
   38039 words reserved for DFT integration

 PROGRAM * UKS-SCF (Unrestricted Kohn-Sham)     Authors: W. Meyer, H.-J. Werner, P.J. Knowles, 1993

 NUMBER OF ELECTRONS:       9+    8-    SPACE SYMMETRY=1    SPIN SYMMETRY: Doublet 
 CONVERGENCE THRESHOLDS:    1.00E-05 (Density)    1.00E-06 (Energy)
 MAX. NUMBER OF ITERATIONS:       60
 INTERPOLATION TYPE:            DIIS
 INTERPOLATION STEPS:              2 (START)      1 (STEP)
 LEVEL SHIFTS:                 -0.20 (ALPHA)  -0.20 (BETA) 



 Use fine grid record 1800.2 for energy threshold  1.0D-06
 Orbital guess generated from atomic densities. Full valence occupancy:    9

 Molecular orbital dump at record        2200.2

 Initial alpha occupation   9
 Initial beta  occupation   8

 ITERATION    DDIFF          GRAD             ENERGY        2-EL.EN.            DIPOLE MOMENTS         DIIS
    1      0.000D+00      0.000D+00      -114.85729540    177.695571   -0.06602   -1.39982    0.00000    0
    2      0.116D-01      0.618D-02      -114.89155280    173.036663   -0.02560   -0.88961    0.00000    1
    3      0.388D-02      0.316D-02      -114.89775642    174.206488   -0.02211   -0.92855    0.00000    2
    4      0.144D-02      0.932D-03      -114.89914838    174.081782   -0.02101   -0.84626    0.00000    3
    5      0.109D-02      0.460D-03      -114.89987192    174.048271   -0.01728   -0.80794    0.00000    4
    6      0.557D-03      0.243D-03      -114.90008502    174.038596   -0.01441   -0.78571    0.00000    5
    7      0.229D-03      0.708D-04      -114.90010506    174.029156   -0.01349   -0.78241    0.00000    6
    8      0.638D-04      0.139D-04      -114.90010589    174.030654   -0.01322   -0.78234    0.00000    7
    9      0.110D-04      0.431D-05      -114.90010596    174.030627   -0.01330   -0.78230    0.00000    7
   10      0.362D-05      0.169D-05      -114.90010597    174.030425   -0.01329   -0.78226    0.00000    7
   11      0.156D-05      0.580D-06      -114.90010598    174.030619   -0.01331   -0.78227    0.00000    7

 Final alpha occupancy:   9
 Final beta  occupancy:   8

 !UKS STATE 1.1 Energy               -114.900105975186
 Nuclear energy                        34.28824494
 One-electron energy                 -224.08153127
 Two-electron energy                   87.01530972
 Density functional                   -12.12212936     B88=-14.46923632 DIRAC=-13.02728586 LYP= -0.55924107 VWN5= -1.10058465
 Virial quotient                       -1.00776517
 !UKS STATE 1.1 Dipole moment          -0.01331308    -0.78226717     0.00000000
 Dipole moment /Debye                  -0.03383627    -1.98819458     0.00000000

 Orbital energies for positive spin:

         1.1          2.1          3.1          4.1          5.1          6.1          7.1          8.1          9.1         10.1
    -19.168209   -10.240911    -1.006754    -0.662773    -0.480648    -0.458422    -0.429409    -0.326840    -0.280755     0.066770

        11.1
      0.118621

 Orbital energies for negative spin:

         1.1          2.1          3.1          4.1          5.1          6.1          7.1          8.1          9.1         10.1
    -19.144459   -10.241651    -0.955133    -0.644791    -0.452983    -0.438198    -0.407333    -0.259327    -0.128179     0.069131

        11.1
      0.125547

 HOMO     -8.1    -0.259327 =      -7.0566eV
 LUMO     -9.1    -0.128179 =      -3.4879eV
 LUMO-HOMO         0.131148 =       3.5687eV

 EXPECTATION VALUE OF S**2:             0.75294850

 Occupation number threshold for canonical orbitals:  1.999000 (occupied),  0.001000 (virtual)

 Number of pseudo-canonical orbitals per symmetry:    8
 Number of active natural orbitals per symmetry:      1

 Natural orbitals saved to record    2200.2 (Orbital set 3)

 Orbital spaces for UNO-CAS (Min. occupation: 0.020  Max. occupation: 1.980):

 Closed:        8
 Active:        1


 **********************************************************************************************************************************
 DATASETS  * FILE   NREC   LENGTH (MB)   RECORD NAMES
              1      20       32.48       500      610      700      900      950      970     1000      129      960     1100   
                                          VAR    BASINP    GEOM    SYMINP    ZMAT    AOBASIS   BASIS     P2S    ABASIS      S 
                                         1400     1410     1200     1210     1080     1600     1650     1300     1700     1800   
                                           T        V       H0       H01     AOSYM     SMH    MOLCAS    ERIS     OPER     GRID   

              2       5        2.90       700     1000      520     1800     2200   
                                         GEOM     BASIS   MCVARS    GRID      UKS  

 PROGRAMS   *        TOTAL       UKS       INT
 CPU TIMES  *         3.19      2.76      0.28
 REAL TIME  *         4.04 SEC
 DISK USED  *        41.20 MB      
 **********************************************************************************************************************************


 PROGRAM * Intrinsic Basis Bonding Analysis (IBBA)          Author: G. Knizia

 Molecular orbitals read from record     2200.2  Type=UKS/ALPHA (state 1.1)
 Fock matrix read from record            2200.2  Type=UKS/TOTAL (state 1.1)
 Orbital energies read from record       2200.2  Type=UKS/ALPHA (state 1.1)
 Density matrix read from record         2200.2  Type=UKS/CHARGE (state 1.1)

 Number of core orbitals:           2 (   2 )
 Number of closed-shell orbitals:   6 (   6 )
 Number of active  orbitals:        1 (   1 )

 Basis set MINAO-AUTO-PP generated.      Number of basis functions:   13 

 Polarized AO type:                A = (O Ot + (1-O)(1-Ot)) P12
 Orthogonalization method:         Symmetric (Loewdin)
 Localization functional:          L = sum[A,i] <i|n_A|i>^4 -> max

 Localization group 1:   8 orbitals, occupancy  2.000
 Iterative localization: IB/PM,    6 iter; Final gradient 0.56E-08

 Bond order analysis:       [THRPRINT= 0.020]

   CEN ATOM   CEN ATOM     WIBERG.BO      RENORM.BO
     1   O  -   2   C       1.367099       2.016031
     1   O  -   5   H       0.117231       0.392825
     1   O  -   4   H       0.117231       0.392825
     1   O  -   3   H       0.028511       0.015778

     2   C  -   1   O       1.367099       2.016031
     2   C  -   3   H       0.964620       0.949561
     2   C  -   4   H       0.781997       0.981705
     2   C  -   5   H       0.781997       0.981705

     3   H  -   2   C       0.964620       0.949561
     3   H  -   1   O       0.028511       0.015778

     4   H  -   2   C       0.781997       0.981705
     4   H  -   1   O       0.117231       0.392825
     4   H  -   5   H       0.027269       0.051275

     5   H  -   2   C       0.781997       0.981705
     5   H  -   1   O       0.117231       0.392825
     5   H  -   4   H       0.027269       0.051275


 Valency analysis:

   CEN ATOM   TOT.VALENCE
     1   O       1.630071
     2   C       3.895712
     3   H       0.993532
     4   H       0.926697
     5   H       0.926697
 Localization group 2:   1 orbitals, occupancy  1.000
 Iterative localization: IB/PM,    1 iter; Final gradient 0.00E+00

 Bond order analysis:       [THRPRINT= 0.020]

   CEN ATOM   CEN ATOM     WIBERG.BO      RENORM.BO
     1   O  -   5   H       0.124925       0.500000
     1   O  -   4   H       0.124925       0.500000
     1   O  -   2   C       0.086098       0.500000

     2   C  -   1   O       0.086098       0.500000


     4   H  -   1   O       0.124925       0.500000

     5   H  -   1   O       0.124925       0.500000


 Valency analysis:

   CEN ATOM   TOT.VALENCE
     1   O       0.335947
     2   C       0.103490
     3   H       0.000000
     4   H       0.146238
     5   H       0.146238

 Total charge composition:

   CEN ATOM         s          p       ELECTRONS ->P.CHARGE
     1   O       3.78133    4.61895      8.40028   -0.40028
     2   C       3.00056    3.06222      6.06278   -0.06278
     3   H       0.91958                 0.91958    0.08042
     4   H       0.80868                 0.80868    0.19132
     5   H       0.80868                 0.80868    0.19132

 Total charge composition, AO contributions:

   CEN ATOM SHL      SPHERICAL COMPONENTS
     1   O  1s       1.99811
     1   O  2s       1.78322
     1   O  2p       1.95572    1.49198    1.17125

     2   C  1s       1.99180
     2   C  2s       1.00876
     2   C  2p       1.14346    0.81299    1.10577

     3   H  1s       0.91958

     4   H  1s       0.80868

     5   H  1s       0.80868

 Active orbital charges:

   CEN ATOM         s          p       ELECTRONS ->SPIN.DEN
     1   O       0.00000    0.78640      0.78640    0.78640
     2   C       0.00000    0.05474      0.05474    0.05474
     3   H       0.00000                 0.00000    0.00000
     4   H       0.07943                 0.07943    0.07943
     5   H       0.07943                 0.07943    0.07943

 Active orbital charges, AO contributions:

   CEN ATOM SHL      SPHERICAL COMPONENTS
     1   O  1s       0.00000
     1   O  2s       0.00000
     1   O  2p       0.00000    0.00000    0.78640

     2   C  1s       0.00000
     2   C  2s       0.00000
     2   C  2p       0.00000    0.00000    0.05474

     3   H  1s       0.00000

     4   H  1s       0.07943

     5   H  1s       0.07943

 Summary of localized orbital composition:   [THRPRINT= 0.020]

   ORB  GRP  ORB.ENERGY      CENTERS/CHARGES
     1   1   -18.870983      O  1   2.000
     2   1   -10.132649      C  2   2.000
     3   1    -0.857198      O  1   1.995
     4   1    -0.837922      O  1   1.271   C  2   0.729
     5   1    -0.546062      C  2   1.083   H  4   0.715   O  1   0.192
     6   1    -0.546062      C  2   1.083   H  5   0.715   O  1   0.192
     7   1    -0.530605      C  2   1.095   H  3   0.904
     8   1    -0.265930      O  1   1.963   (other: 0.037)
     9   2    -0.270136      O  1   0.786   H  5   0.079   H  4   0.079   C  2   0.055

 Localized orbitals saved to record      2200.2  (orbital set 4)


 **********************************************************************************************************************************
 DATASETS  * FILE   NREC   LENGTH (MB)   RECORD NAMES
              1      20       32.48       500      610      700      900      950      970     1000      129      960     1100   
                                          VAR    BASINP    GEOM    SYMINP    ZMAT    AOBASIS   BASIS     P2S    ABASIS      S 
                                         1400     1410     1200     1210     1080     1600     1650     1300     1700     1800   
                                           T        V       H0       H01     AOSYM     SMH    MOLCAS    ERIS     OPER     GRID   

              2       5        2.92       700     1000      520     1800     2200   
                                         GEOM     BASIS   MCVARS    GRID      UKS  

 PROGRAMS   *        TOTAL      IBBA       UKS       INT
 CPU TIMES  *         3.22      0.02      2.76      0.28
 REAL TIME  *         4.13 SEC
 DISK USED  *        41.20 MB      
 **********************************************************************************************************************************
 Molecular orbitals read from record     2200.2  Type=UKS/LOCAL(IBO)  
 Occupation numbers read from record     2200.2  Type=UKS/LOCAL(IBO)  
 Orbital energies read from record       2200.2  Type=UKS/LOCAL(IBO)  
 Redundancy group numbers read from rec  2200.2  Type=UKS/BETA (state 1.1)

 IBBA/SVP energy=      0.000000000000

        UKS-SCF 
   -114.90010598
 **********************************************************************************************************************************
 Molpro calculation terminated
