
 Primary working directories    : /tmp/sb13343
 Secondary working directories  : /tmp/sb13343
 Wavefunction directory         : /panfs/panasas01/chem/sb13343/wfu/
 Main file repository           : /tmp/sb13343/

 SHA1      : b4a5b34a9e711420743f49e6833241d17c61fb3c
 NAME      : 2099.9.b4a5b34
 ARCHNAME  : linux/x86_64_openmp
 FC        : /cm/shared/languages/GCC-6.1/bin/gfortran
 BLASLIB   : -lblas
 id        : simonbennie

 Nodes     nprocs
 node32-001    1

 Using customized tuning parameters: mindgm=1; mindgv=20; mindgc=4; mindgr=1; noblas=0; minvec=7
 default implementation of scratch files=df  

 memory,500,m
 geomtyp=xyz
 nosym
 noorient
 geometry={
 O         -0.07179        0.79048        0.00000
 C          0.07053       -0.57065        0.00000
 H         -0.96431       -0.97345        0.00000
 H          0.55775       -0.96326        0.90880
 H          0.55775       -0.96326       -0.90880
 }
 basis={ default,svp }
 {uks,MM05,direct;wf,17,1,1}
 {ibba,bonds=1}

 Variables initialized (895), CPU time= 0.00 sec
 Commands  initialized (725), CPU time= 0.01 sec, 591 directives.
 Default parameters read. Elapsed time= 3.28 sec

 Checking input...
 Passed
1


                                         ***  PROGRAM SYSTEM MOLPRO  ***
                                       Copyright, TTI GmbH Stuttgart, 2015
                                    Version 2099.9 linked May 26 2017 16:03:21


 **********************************************************************************************************************************
 LABEL *                                                                                 
  64 bit serial version                                                                  DATE: 08-Jun-17          TIME: 03:13:54  
 **********************************************************************************************************************************

 SHA1:             b4a5b34a9e711420743f49e6833241d17c61fb3c
 **********************************************************************************************************************************
 SETTING GEOMTYP        =    XYZ

 Variable memory set to  500000000 words,  buffer space 

 ZSYMEL=NOSYM

 SETTING BASIS          =    SVP


 Recomputing integrals since basis changed


 Using spherical harmonics

 Library entry O      S def2-SVP             selected for orbital group  1
 Library entry O      P def2-SVP             selected for orbital group  1
 Library entry O      D def2-SVP             selected for orbital group  1
 Library entry C      S def2-SVP             selected for orbital group  2
 Library entry C      P def2-SVP             selected for orbital group  2
 Library entry C      D def2-SVP             selected for orbital group  2
 Library entry H      S def2-SVP             selected for orbital group  3
 Library entry H      P def2-SVP             selected for orbital group  3


 PROGRAM * SEWARD (Integral evaluation for generally contracted gaussian basis sets)     Author: Roland Lindh, 1990

 Geometry written to block  1 of record 700


 Point group  C1  



 ATOMIC COORDINATES

 NR  ATOM    CHARGE       X              Y              Z

   1  O       8.00   -0.135663438    1.493790707    0.000000000
   2  C       6.00    0.133282384   -1.078372213    0.000000000
   3  H       1.00   -1.822281799   -1.839553896    0.000000000
   4  H       1.00    1.053994746   -1.820297587    1.717383102
   5  H       1.00    1.053994746   -1.820297587   -1.717383102

 Bond lengths in Bohr (Angstrom)

 1-2  2.586185210  2-3  2.098482506  2-4  2.085082548  2-5  2.085082548
     ( 1.368550276)     ( 1.110469120)     ( 1.103378167)     ( 1.103378167)

 Bond angles

  1-2-3  105.29875708   1-2-4  113.56671130   1-2-5  113.56671130   3-2-4  106.40524792

  3-2-5  106.40524792   4-2-5  110.90419060

 NUCLEAR CHARGE:                   17
 NUMBER OF PRIMITIVE AOS:          71
 NUMBER OF SYMMETRY AOS:           69
 NUMBER OF CONTRACTIONS:           43   (  43A   )
 NUMBER OF CORE ORBITALS:           2   (   2A   )
 NUMBER OF VALENCE ORBITALS:       11   (  11A   )


 NUCLEAR REPULSION ENERGY   34.28824494


 Eigenvalues of metric

         1 0.119E-01 0.382E-01 0.461E-01 0.536E-01 0.110E+00 0.137E+00 0.139E+00 0.243E+00


 Contracted 2-electron integrals neglected if value below      1.0D-11
 AO integral compression algorithm  1   Integral accuracy      1.0D-11

     2.359 MB (compressed) written to integral file ( 48.8%)


 NUMBER OF SORTED TWO-ELECTRON INTEGRALS:     447931.     BUFFER LENGTH:  32768
 NUMBER OF SEGMENTS:   1  SEGMENT LENGTH:     447931      RECORD LENGTH: 524288

 Memory used in sort:       1.00 MW

 SORT1 READ      553316. AND WROTE      366431. INTEGRALS IN      2 RECORDS. CPU TIME:     0.01 SEC, REAL TIME:     0.02 SEC
 SORT2 READ      366431. AND WROTE      447931. INTEGRALS IN      9 RECORDS. CPU TIME:     0.03 SEC, REAL TIME:     0.04 SEC

 FILE SIZES:   FILE 1:    32.4 MBYTE,  FILE 4:     8.4 MBYTE,   TOTAL:     40.9 MBYTE

 OPERATOR DM      FOR CENTER  0  COORDINATES:    0.000000    0.000000    0.000000


 **********************************************************************************************************************************
 DATASETS  * FILE   NREC   LENGTH (MB)   RECORD NAMES
              1      19       31.84       500      610      700      900      950      970     1000      129      960     1100   
                                          VAR    BASINP    GEOM    SYMINP    ZMAT    AOBASIS   BASIS     P2S    ABASIS      S 
                                         1400     1410     1200     1210     1080     1600     1650     1300     1700   
                                           T        V       H0       H01     AOSYM     SMH    MOLCAS    ERIS     OPER   

 PROGRAMS   *        TOTAL       INT
 CPU TIMES  *         0.43      0.29
 REAL TIME  *         4.09 SEC
 DISK USED  *        41.20 MB      
 **********************************************************************************************************************************

 Density functional group MM05=M05X+M05C
 Functional: M05X(Automatically generated (new) M05X)                          Gradient terms: 2
 Functional: M05C(Automatically generated (new) M05C)                          Gradient terms: 2
 Use grid at  1800.2


 Exact exchange will be calculated, factor:  0.2800

 Functional: M05X                      Factor:  0.7200
 Functional: M05C                      Factor:  1.0000

 Generated new metagrid on record  1800.2 with target accuracy 1.0D-06 and 19990 points in CPU time    0.5
 Computed new grid on record 1800.1 in CPU time    0.5
   70805 words reserved for DFT integration

 PROGRAM * UKS-SCF (Unrestricted Kohn-Sham)     Authors: W. Meyer, H.-J. Werner, P.J. Knowles, 1993

 NUMBER OF ELECTRONS:       9+    8-    SPACE SYMMETRY=1    SPIN SYMMETRY: Doublet 
 CONVERGENCE THRESHOLDS:    1.00E-05 (Density)    1.00E-06 (Energy)
 MAX. NUMBER OF ITERATIONS:       60
 INTERPOLATION TYPE:            DIIS
 INTERPOLATION STEPS:              2 (START)      1 (STEP)
 LEVEL SHIFTS:                 -0.20 (ALPHA)  -0.20 (BETA) 



 Use fine grid record 1800.2 for energy threshold  1.0D-06
 Orbital guess generated from atomic densities. Full valence occupancy:    9

 Molecular orbital dump at record        2200.2

 Initial alpha occupation   9
 Initial beta  occupation   8

 ITERATION    DDIFF          GRAD             ENERGY        2-EL.EN.            DIPOLE MOMENTS         DIIS
    1      0.000D+00      0.000D+00      -114.84347655    175.277509   -0.07249   -1.48729    0.00000    0
    2      0.111D-01      0.631D-02      -114.87860082    170.875986   -0.03639   -0.91019    0.00000    1
    3      0.393D-02      0.328D-02      -114.88535247    171.946533   -0.03044   -0.95206    0.00000    2
    4      0.174D-02      0.106D-02      -114.88734591    171.823090   -0.02792   -0.86070    0.00000    3
    5      0.139D-02      0.550D-03      -114.88842288    171.779710   -0.02237   -0.81315    0.00000    4
    6      0.645D-03      0.280D-03      -114.88870666    171.774446   -0.01804   -0.78948    0.00000    5
    7      0.257D-03      0.751D-04      -114.88872847    171.761455   -0.01686   -0.78619    0.00000    6
    8      0.787D-04      0.148D-04      -114.88872936    171.763568   -0.01647   -0.78618    0.00000    7
    9      0.144D-04      0.395D-05      -114.88872941    171.763505   -0.01648   -0.78615    0.00000    7
   10      0.326D-05      0.134D-05      -114.88872942    171.763344   -0.01644   -0.78612    0.00000    7
   11      0.783D-06      0.448D-06      -114.88872942    171.763496   -0.01645   -0.78613    0.00000    6

 Final alpha occupancy:   9
 Final beta  occupancy:   8

 !UKS STATE 1.1 Energy               -114.888729416486
 Nuclear energy                        34.28824494
 One-electron energy                 -224.09900514
 Two-electron energy                   85.88174794
 Density functional                   -10.95971715     M05X=-14.46805886 M05C= -0.54271477
 Virial quotient                       -1.00736133
 !UKS STATE 1.1 Dipole moment          -0.01644980    -0.78612742     0.00000000
 Dipole moment /Debye                  -0.04180849    -1.99800572     0.00000000

 Orbital energies for positive spin:

         1.1          2.1          3.1          4.1          5.1          6.1          7.1          8.1          9.1         10.1
    -19.215045   -10.276495    -1.042297    -0.684439    -0.495370    -0.474167    -0.451947    -0.338829    -0.300968     0.070916

        11.1
      0.125891

 Orbital energies for negative spin:

         1.1          2.1          3.1          4.1          5.1          6.1          7.1          8.1          9.1         10.1
    -19.202221   -10.276973    -0.968452    -0.663130    -0.466183    -0.451997    -0.419094    -0.269212    -0.116269     0.074182

        11.1
      0.132930

 HOMO     -8.1    -0.269212 =      -7.3256eV
 LUMO     -9.1    -0.116269 =      -3.1638eV
 LUMO-HOMO         0.152942 =       4.1618eV

 EXPECTATION VALUE OF S**2:             0.75381715

 Occupation number threshold for canonical orbitals:  1.999000 (occupied),  0.001000 (virtual)

 Number of pseudo-canonical orbitals per symmetry:    8
 Number of active natural orbitals per symmetry:      1

 Natural orbitals saved to record    2200.2 (Orbital set 3)

 Orbital spaces for UNO-CAS (Min. occupation: 0.020  Max. occupation: 1.980):

 Closed:        8
 Active:        1


 **********************************************************************************************************************************
 DATASETS  * FILE   NREC   LENGTH (MB)   RECORD NAMES
              1      20       32.48       500      610      700      900      950      970     1000      129      960     1100   
                                          VAR    BASINP    GEOM    SYMINP    ZMAT    AOBASIS   BASIS     P2S    ABASIS      S 
                                         1400     1410     1200     1210     1080     1600     1650     1300     1700     1800   
                                           T        V       H0       H01     AOSYM     SMH    MOLCAS    ERIS     OPER     GRID   

              2       5        2.90       700     1000      520     1800     2200   
                                         GEOM     BASIS   MCVARS    GRID      UKS  

 PROGRAMS   *        TOTAL       UKS       INT
 CPU TIMES  *         8.91      8.48      0.29
 REAL TIME  *        12.77 SEC
 DISK USED  *        41.20 MB      
 **********************************************************************************************************************************


 PROGRAM * Intrinsic Basis Bonding Analysis (IBBA)          Author: G. Knizia

 Molecular orbitals read from record     2200.2  Type=UKS/ALPHA (state 1.1)
 Fock matrix read from record            2200.2  Type=UKS/TOTAL (state 1.1)
 Orbital energies read from record       2200.2  Type=UKS/ALPHA (state 1.1)
 Density matrix read from record         2200.2  Type=UKS/CHARGE (state 1.1)

 Number of core orbitals:           2 (   2 )
 Number of closed-shell orbitals:   6 (   6 )
 Number of active  orbitals:        1 (   1 )

 Basis set MINAO-AUTO-PP generated.      Number of basis functions:   13 

 Polarized AO type:                A = (O Ot + (1-O)(1-Ot)) P12
 Orthogonalization method:         Symmetric (Loewdin)
 Localization functional:          L = sum[A,i] <i|n_A|i>^4 -> max

 Localization group 1:   8 orbitals, occupancy  2.000
 Iterative localization: IB/PM,    7 iter; Final gradient 0.21E-09

 Bond order analysis:       [THRPRINT= 0.020]

   CEN ATOM   CEN ATOM     WIBERG.BO      RENORM.BO
     1   O  -   2   C       1.413962       2.016150
     1   O  -   5   H       0.127251       0.379778
     1   O  -   4   H       0.127251       0.379778
     1   O  -   3   H       0.029329       0.016400

     2   C  -   1   O       1.413962       2.016150
     2   C  -   3   H       0.962424       0.948360
     2   C  -   4   H       0.755373       0.980831
     2   C  -   5   H       0.755373       0.980831

     3   H  -   2   C       0.962424       0.948360
     3   H  -   1   O       0.029329       0.016400

     4   H  -   2   C       0.755373       0.980831
     4   H  -   1   O       0.127251       0.379778
     4   H  -   5   H       0.032171       0.064117

     5   H  -   2   C       0.755373       0.980831
     5   H  -   1   O       0.127251       0.379778
     5   H  -   4   H       0.032171       0.064117


 Valency analysis:

   CEN ATOM   TOT.VALENCE
     1   O       1.697793
     2   C       3.887133
     3   H       0.992038
     4   H       0.914938
     5   H       0.914938
 Localization group 2:   1 orbitals, occupancy  1.000
 Iterative localization: IB/PM,    1 iter; Final gradient 0.00E+00

 Bond order analysis:       [THRPRINT= 0.020]

   CEN ATOM   CEN ATOM     WIBERG.BO      RENORM.BO
     1   O  -   5   H       0.132589       0.500000
     1   O  -   4   H       0.132589       0.500000
     1   O  -   2   C       0.104274       0.500000

     2   C  -   1   O       0.104274       0.500000


     4   H  -   1   O       0.132589       0.500000

     5   H  -   1   O       0.132589       0.500000


 Valency analysis:

   CEN ATOM   TOT.VALENCE
     1   O       0.369453
     2   C       0.128497
     3   H       0.000000
     4   H       0.160101
     5   H       0.160101

 Total charge composition:

   CEN ATOM         s          p       ELECTRONS ->P.CHARGE
     1   O       3.78310    4.66084      8.44394   -0.44394
     2   C       3.00789    3.04521      6.05310   -0.05310
     3   H       0.91077                 0.91077    0.08923
     4   H       0.79610                 0.79610    0.20390
     5   H       0.79610                 0.79610    0.20390

 Total charge composition, AO contributions:

   CEN ATOM SHL      SPHERICAL COMPONENTS
     1   O  1s       1.99807
     1   O  2s       1.78502
     1   O  2p       1.95495    1.50295    1.20295

     2   C  1s       1.99160
     2   C  2s       1.01629
     2   C  2p       1.14973    0.80291    1.09256

     3   H  1s       0.91077

     4   H  1s       0.79610

     5   H  1s       0.79610

 Active orbital charges:

   CEN ATOM         s          p       ELECTRONS ->SPIN.DEN
     1   O       0.00000    0.75549      0.75549    0.75549
     2   C       0.00000    0.06901      0.06901    0.06901
     3   H       0.00000                 0.00000    0.00000
     4   H       0.08775                 0.08775    0.08775
     5   H       0.08775                 0.08775    0.08775

 Active orbital charges, AO contributions:

   CEN ATOM SHL      SPHERICAL COMPONENTS
     1   O  1s       0.00000
     1   O  2s       0.00000
     1   O  2p       0.00000    0.00000    0.75549

     2   C  1s       0.00000
     2   C  2s       0.00000
     2   C  2p       0.00000    0.00000    0.06901

     3   H  1s       0.00000

     4   H  1s       0.08775

     5   H  1s       0.08775

 Summary of localized orbital composition:   [THRPRINT= 0.020]

   ORB  GRP  ORB.ENERGY      CENTERS/CHARGES
     1   1   -18.909715      O  1   2.000
     2   1   -10.166697      C  2   2.000
     3   1    -0.893592      O  1   1.995
     4   1    -0.857119      O  1   1.283   C  2   0.717
     5   1    -0.562040      C  2   1.073   H  5   0.692   O  1   0.224
     6   1    -0.562040      C  2   1.073   H  4   0.692   O  1   0.224
     7   1    -0.544884      C  2   1.105   H  3   0.895
     8   1    -0.268267      O  1   1.962   (other: 0.038)
     9   2    -0.285520      O  1   0.755   H  5   0.088   H  4   0.088   C  2   0.069

 Localized orbitals saved to record      2200.2  (orbital set 4)


 **********************************************************************************************************************************
 DATASETS  * FILE   NREC   LENGTH (MB)   RECORD NAMES
              1      20       32.48       500      610      700      900      950      970     1000      129      960     1100   
                                          VAR    BASINP    GEOM    SYMINP    ZMAT    AOBASIS   BASIS     P2S    ABASIS      S 
                                         1400     1410     1200     1210     1080     1600     1650     1300     1700     1800   
                                           T        V       H0       H01     AOSYM     SMH    MOLCAS    ERIS     OPER     GRID   

              2       5        2.92       700     1000      520     1800     2200   
                                         GEOM     BASIS   MCVARS    GRID      UKS  

 PROGRAMS   *        TOTAL      IBBA       UKS       INT
 CPU TIMES  *         8.93      0.02      8.48      0.29
 REAL TIME  *        12.84 SEC
 DISK USED  *        41.20 MB      
 **********************************************************************************************************************************
 Molecular orbitals read from record     2200.2  Type=UKS/LOCAL(IBO)  
 Occupation numbers read from record     2200.2  Type=UKS/LOCAL(IBO)  
 Orbital energies read from record       2200.2  Type=UKS/LOCAL(IBO)  
 Redundancy group numbers read from rec  2200.2  Type=UKS/BETA (state 1.1)

 IBBA/SVP energy=      0.000000000000

        UKS-SCF 
   -114.88872942
 **********************************************************************************************************************************
 Molpro calculation terminated
