
 Primary working directories    : /tmp/sb13343
 Secondary working directories  : /tmp/sb13343
 Wavefunction directory         : /panfs/panasas01/chem/sb13343/wfu/
 Main file repository           : /tmp/sb13343/

 SHA1      : b4a5b34a9e711420743f49e6833241d17c61fb3c
 NAME      : 2099.9.b4a5b34
 ARCHNAME  : linux/x86_64_openmp
 FC        : /cm/shared/languages/GCC-6.1/bin/gfortran
 BLASLIB   : -lblas
 id        : simonbennie

 Nodes     nprocs
 node32-001    1

 Using customized tuning parameters: mindgm=1; mindgv=20; mindgc=4; mindgr=1; noblas=0; minvec=7
 default implementation of scratch files=df  

 memory,500,m
 geomtyp=xyz
 nosym
 noorient
 geometry={
 O         -0.07179        0.79048        0.00000
 C          0.07053       -0.57065        0.00000
 H         -0.96431       -0.97345        0.00000
 H          0.55775       -0.96326        0.90880
 H          0.55775       -0.96326       -0.90880
 }
 basis={ default,svp }
 {uks,M06-HF,direct;wf,17,1,1}
 {ibba,bonds=1}

 Variables initialized (895), CPU time= 0.01 sec
 Commands  initialized (725), CPU time= 0.01 sec, 591 directives.
 Default parameters read. Elapsed time= 0.08 sec

 Checking input...
 Passed
1


                                         ***  PROGRAM SYSTEM MOLPRO  ***
                                       Copyright, TTI GmbH Stuttgart, 2015
                                    Version 2099.9 linked May 26 2017 16:03:21


 **********************************************************************************************************************************
 LABEL *                                                                                 
  64 bit serial version                                                                  DATE: 08-Jun-17          TIME: 03:20:12  
 **********************************************************************************************************************************

 SHA1:             b4a5b34a9e711420743f49e6833241d17c61fb3c
 **********************************************************************************************************************************
 SETTING GEOMTYP        =    XYZ

 Variable memory set to  500000000 words,  buffer space 

 ZSYMEL=NOSYM

 SETTING BASIS          =    SVP


 Recomputing integrals since basis changed


 Using spherical harmonics

 Library entry O      S def2-SVP             selected for orbital group  1
 Library entry O      P def2-SVP             selected for orbital group  1
 Library entry O      D def2-SVP             selected for orbital group  1
 Library entry C      S def2-SVP             selected for orbital group  2
 Library entry C      P def2-SVP             selected for orbital group  2
 Library entry C      D def2-SVP             selected for orbital group  2
 Library entry H      S def2-SVP             selected for orbital group  3
 Library entry H      P def2-SVP             selected for orbital group  3


 PROGRAM * SEWARD (Integral evaluation for generally contracted gaussian basis sets)     Author: Roland Lindh, 1990

 Geometry written to block  1 of record 700


 Point group  C1  



 ATOMIC COORDINATES

 NR  ATOM    CHARGE       X              Y              Z

   1  O       8.00   -0.135663438    1.493790707    0.000000000
   2  C       6.00    0.133282384   -1.078372213    0.000000000
   3  H       1.00   -1.822281799   -1.839553896    0.000000000
   4  H       1.00    1.053994746   -1.820297587    1.717383102
   5  H       1.00    1.053994746   -1.820297587   -1.717383102

 Bond lengths in Bohr (Angstrom)

 1-2  2.586185210  2-3  2.098482506  2-4  2.085082548  2-5  2.085082548
     ( 1.368550276)     ( 1.110469120)     ( 1.103378167)     ( 1.103378167)

 Bond angles

  1-2-3  105.29875708   1-2-4  113.56671130   1-2-5  113.56671130   3-2-4  106.40524792

  3-2-5  106.40524792   4-2-5  110.90419060

 NUCLEAR CHARGE:                   17
 NUMBER OF PRIMITIVE AOS:          71
 NUMBER OF SYMMETRY AOS:           69
 NUMBER OF CONTRACTIONS:           43   (  43A   )
 NUMBER OF CORE ORBITALS:           2   (   2A   )
 NUMBER OF VALENCE ORBITALS:       11   (  11A   )


 NUCLEAR REPULSION ENERGY   34.28824494


 Eigenvalues of metric

         1 0.119E-01 0.382E-01 0.461E-01 0.536E-01 0.110E+00 0.137E+00 0.139E+00 0.243E+00


 Contracted 2-electron integrals neglected if value below      1.0D-11
 AO integral compression algorithm  1   Integral accuracy      1.0D-11

     2.359 MB (compressed) written to integral file ( 48.8%)


 NUMBER OF SORTED TWO-ELECTRON INTEGRALS:     447931.     BUFFER LENGTH:  32768
 NUMBER OF SEGMENTS:   1  SEGMENT LENGTH:     447931      RECORD LENGTH: 524288

 Memory used in sort:       1.00 MW

 SORT1 READ      553316. AND WROTE      366431. INTEGRALS IN      2 RECORDS. CPU TIME:     0.00 SEC, REAL TIME:     0.02 SEC
 SORT2 READ      366431. AND WROTE      447931. INTEGRALS IN      9 RECORDS. CPU TIME:     0.04 SEC, REAL TIME:     0.04 SEC

 FILE SIZES:   FILE 1:    32.4 MBYTE,  FILE 4:     8.4 MBYTE,   TOTAL:     40.9 MBYTE

 OPERATOR DM      FOR CENTER  0  COORDINATES:    0.000000    0.000000    0.000000


 **********************************************************************************************************************************
 DATASETS  * FILE   NREC   LENGTH (MB)   RECORD NAMES
              1      19       31.84       500      610      700      900      950      970     1000      129      960     1100   
                                          VAR    BASINP    GEOM    SYMINP    ZMAT    AOBASIS   BASIS     P2S    ABASIS      S 
                                         1400     1410     1200     1210     1080     1600     1650     1300     1700   
                                           T        V       H0       H01     AOSYM     SMH    MOLCAS    ERIS     OPER   

 PROGRAMS   *        TOTAL       INT
 CPU TIMES  *         0.44      0.30
 REAL TIME  *         0.77 SEC
 DISK USED  *        41.20 MB      
 **********************************************************************************************************************************

 Density functional group M06-HF=XC-M06-HF
 Functional: XC-M06-HF(via MFM 1.6)                                            Gradient terms: 1
 Use grid at  1800.2


 Exact exchange will be calculated, factor:  1.0000

 Functional: XC-M06-HF                 Factor:  1.0000

 Generated new metagrid on record  1800.2 with target accuracy 1.0D-06 and 19990 points in CPU time    0.5
 Computed new grid on record 1800.1 in CPU time    0.5
   38039 words reserved for DFT integration

 PROGRAM * UKS-SCF (Unrestricted Kohn-Sham)     Authors: W. Meyer, H.-J. Werner, P.J. Knowles, 1993

 NUMBER OF ELECTRONS:       9+    8-    SPACE SYMMETRY=1    SPIN SYMMETRY: Doublet 
 CONVERGENCE THRESHOLDS:    1.00E-05 (Density)    1.00E-06 (Energy)
 MAX. NUMBER OF ITERATIONS:       60
 INTERPOLATION TYPE:            DIIS
 INTERPOLATION STEPS:              2 (START)      1 (STEP)
 LEVEL SHIFTS:                 -0.20 (ALPHA)  -0.20 (BETA) 



 Use fine grid record 1800.2 for energy threshold  1.0D-06
 Orbital guess generated from atomic densities. Full valence occupancy:    9

 Molecular orbital dump at record        2200.2

 Initial alpha occupation   9
 Initial beta  occupation   8

 ITERATION    DDIFF          GRAD             ENERGY        2-EL.EN.            DIPOLE MOMENTS         DIIS
    1      0.000D+00      0.000D+00      -114.83702193    152.045414   -0.10111   -1.71538    0.00000    0
    2      0.805D-02      0.704D-02      -114.87968443    150.614416   -0.05594   -1.11871    0.00000    1
    3      0.326D-02      0.327D-02      -114.89029238    150.998622   -0.03754   -1.08903    0.00000    2
    4      0.225D-02      0.192D-02      -114.89910662    150.890561   -0.01620   -0.94824    0.00000    3
    5      0.227D-02      0.122D-02      -114.90393042    150.833065   -0.00051   -0.86462    0.00000    4
    6      0.136D-02      0.568D-03      -114.90503645    150.769509    0.00579   -0.82877    0.00000    5
    7      0.305D-03      0.131D-03      -114.90509123    150.775280    0.00590   -0.82330    0.00000    6
    8      0.675D-04      0.433D-04      -114.90509536    150.770384    0.00540   -0.82304    0.00000    7
    9      0.302D-04      0.203D-04      -114.90509666    150.772520    0.00497   -0.82339    0.00000    8
   10      0.229D-04      0.118D-04      -114.90509719    150.772189    0.00474   -0.82350    0.00000    8
   11      0.151D-04      0.627D-05      -114.90509737    150.772095    0.00461   -0.82350    0.00000    8
   12      0.831D-05      0.295D-05      -114.90509741    150.772286    0.00452   -0.82355    0.00000    7
   13      0.307D-05      0.128D-05      -114.90509741    150.772176    0.00449   -0.82354    0.00000    8

 Final alpha occupancy:   9
 Final beta  occupancy:   8

 !UKS STATE 1.1 Energy               -114.905097413797
 Nuclear energy                        34.28824494
 One-electron energy                 -223.99759088
 Two-electron energy                   75.38608790
 Density functional                    -0.58183937     XC-M06-HF=-0.58183937
 Virial quotient                       -1.00817038
 !UKS STATE 1.1 Dipole moment           0.00449040    -0.82353727     0.00000000
 Dipole moment /Debye                   0.01141271    -2.09308586     0.00000000

 Orbital energies for positive spin:

         1.1          2.1          3.1          4.1          5.1          6.1          7.1          8.1          9.1         10.1
    -20.247264   -11.035576    -1.244702    -0.863650    -0.665413    -0.640146    -0.607814    -0.493705    -0.463097     0.136626

        11.1
      0.202306

 Orbital energies for negative spin:

         1.1          2.1          3.1          4.1          5.1          6.1          7.1          8.1          9.1         10.1
    -20.234440   -11.035886    -1.208261    -0.844366    -0.631569    -0.585949    -0.576757    -0.441720     0.033266     0.132779

        11.1
      0.205435

 HOMO     -8.1    -0.441720 =     -12.0198eV
 LUMO     -9.1     0.033266 =       0.9052eV
 LUMO-HOMO         0.474986 =      12.9250eV

 EXPECTATION VALUE OF S**2:             0.75334620

 Occupation number threshold for canonical orbitals:  1.999000 (occupied),  0.001000 (virtual)

 Number of pseudo-canonical orbitals per symmetry:    8
 Number of active natural orbitals per symmetry:      1

 Natural orbitals saved to record    2200.2 (Orbital set 3)

 Orbital spaces for UNO-CAS (Min. occupation: 0.020  Max. occupation: 1.980):

 Closed:        8
 Active:        1


 **********************************************************************************************************************************
 DATASETS  * FILE   NREC   LENGTH (MB)   RECORD NAMES
              1      20       32.48       500      610      700      900      950      970     1000      129      960     1100   
                                          VAR    BASINP    GEOM    SYMINP    ZMAT    AOBASIS   BASIS     P2S    ABASIS      S 
                                         1400     1410     1200     1210     1080     1600     1650     1300     1700     1800   
                                           T        V       H0       H01     AOSYM     SMH    MOLCAS    ERIS     OPER     GRID   

              2       5        2.90       700     1000      520     1800     2200   
                                         GEOM     BASIS   MCVARS    GRID      UKS  

 PROGRAMS   *        TOTAL       UKS       INT
 CPU TIMES  *         7.90      7.46      0.30
 REAL TIME  *         8.38 SEC
 DISK USED  *        41.20 MB      
 **********************************************************************************************************************************


 PROGRAM * Intrinsic Basis Bonding Analysis (IBBA)          Author: G. Knizia

 Molecular orbitals read from record     2200.2  Type=UKS/ALPHA (state 1.1)
 Fock matrix read from record            2200.2  Type=UKS/TOTAL (state 1.1)
 Orbital energies read from record       2200.2  Type=UKS/ALPHA (state 1.1)
 Density matrix read from record         2200.2  Type=UKS/CHARGE (state 1.1)

 Number of core orbitals:           2 (   2 )
 Number of closed-shell orbitals:   6 (   6 )
 Number of active  orbitals:        1 (   1 )

 Basis set MINAO-AUTO-PP generated.      Number of basis functions:   13 

 Polarized AO type:                A = (O Ot + (1-O)(1-Ot)) P12
 Orthogonalization method:         Symmetric (Loewdin)
 Localization functional:          L = sum[A,i] <i|n_A|i>^4 -> max

 Localization group 1:   8 orbitals, occupancy  2.000
 Iterative localization: IB/PM,    6 iter; Final gradient 0.31E-09

 Bond order analysis:       [THRPRINT= 0.020]

   CEN ATOM   CEN ATOM     WIBERG.BO      RENORM.BO
     1   O  -   2   C       1.541146       2.011906
     1   O  -   5   H       0.150803       0.334388
     1   O  -   4   H       0.150803       0.334388
     1   O  -   3   H       0.021686       0.012179

     2   C  -   1   O       1.541146       2.011906
     2   C  -   3   H       0.967263       0.962500
     2   C  -   4   H       0.690197       0.984253
     2   C  -   5   H       0.690197       0.984253

     3   H  -   2   C       0.967263       0.962500
     3   H  -   1   O       0.021686       0.012179

     4   H  -   2   C       0.690197       0.984253
     4   H  -   1   O       0.150803       0.334388
     4   H  -   5   H       0.053336       0.116689

     5   H  -   2   C       0.690197       0.984253
     5   H  -   1   O       0.150803       0.334388
     5   H  -   4   H       0.053336       0.116689


 Valency analysis:

   CEN ATOM   TOT.VALENCE
     1   O       1.864439
     2   C       3.888802
     3   H       0.990420
     4   H       0.895072
     5   H       0.895072
 Localization group 2:   1 orbitals, occupancy  1.000
 Iterative localization: IB/PM,    1 iter; Final gradient 0.00E+00

 Bond order analysis:       [THRPRINT= 0.020]

   CEN ATOM   CEN ATOM     WIBERG.BO      RENORM.BO
     1   O  -   2   C       0.169246       0.500000
     1   O  -   5   H       0.137844       0.500000
     1   O  -   4   H       0.137844       0.500000

     2   C  -   1   O       0.169246       0.500000
     2   C  -   5   H       0.026304       0.500000
     2   C  -   4   H       0.026304       0.500000


     4   H  -   1   O       0.137844       0.500000
     4   H  -   2   C       0.026304       0.500000
     4   H  -   5   H       0.021423       0.500000

     5   H  -   1   O       0.137844       0.500000
     5   H  -   2   C       0.026304       0.500000
     5   H  -   4   H       0.021423       0.500000


 Valency analysis:

   CEN ATOM   TOT.VALENCE
     1   O       0.444935
     2   C       0.221854
     3   H       0.000000
     4   H       0.185571
     5   H       0.185571

 Total charge composition:

   CEN ATOM         s          p       ELECTRONS ->P.CHARGE
     1   O       3.75391    4.79707      8.55098   -0.55098
     2   C       2.98224    3.00551      5.98775    0.01225
     3   H       0.90212                 0.90212    0.09788
     4   H       0.77957                 0.77957    0.22043
     5   H       0.77957                 0.77957    0.22043

 Total charge composition, AO contributions:

   CEN ATOM SHL      SPHERICAL COMPONENTS
     1   O  1s       1.99798
     1   O  2s       1.75593
     1   O  2p       1.96540    1.51927    1.31240

     2   C  1s       1.99110
     2   C  2s       0.99114
     2   C  2p       1.15886    0.81118    1.03548

     3   H  1s       0.90212

     4   H  1s       0.77957

     5   H  1s       0.77957

 Active orbital charges:

   CEN ATOM         s          p       ELECTRONS ->SPIN.DEN
     1   O       0.00000    0.66593      0.66593    0.66593
     2   C       0.00000    0.12708      0.12708    0.12708
     3   H       0.00000                 0.00000    0.00000
     4   H       0.10350                 0.10350    0.10350
     5   H       0.10350                 0.10350    0.10350

 Active orbital charges, AO contributions:

   CEN ATOM SHL      SPHERICAL COMPONENTS
     1   O  1s       0.00000
     1   O  2s       0.00000
     1   O  2p       0.00000    0.00000    0.66593

     2   C  1s       0.00000
     2   C  2s       0.00000
     2   C  2p       0.00000    0.00000    0.12708

     3   H  1s       0.00000

     4   H  1s       0.10350

     5   H  1s       0.10350

 Summary of localized orbital composition:   [THRPRINT= 0.020]

   ORB  GRP  ORB.ENERGY      CENTERS/CHARGES
     1   1   -19.938207      O  1   2.000
     2   1   -10.921024      C  2   2.000
     3   1    -1.074468      O  1   1.996
     4   1    -1.066448      O  1   1.270   C  2   0.730
     5   1    -0.814557      C  2   1.103   H  4   0.449   H  5   0.449
     6   1    -0.698280      C  2   1.108   H  3   0.890
     7   1    -0.635326      C  2   0.908   O  1   0.646   H  5   0.223   H  4   0.223
     8   1    -0.274849      O  1   1.972   (other: 0.028)
     9   2    -0.452379      O  1   0.666   C  2   0.127   H  5   0.103   H  4   0.103

 Localized orbitals saved to record      2200.2  (orbital set 4)


 **********************************************************************************************************************************
 DATASETS  * FILE   NREC   LENGTH (MB)   RECORD NAMES
              1      20       32.48       500      610      700      900      950      970     1000      129      960     1100   
                                          VAR    BASINP    GEOM    SYMINP    ZMAT    AOBASIS   BASIS     P2S    ABASIS      S 
                                         1400     1410     1200     1210     1080     1600     1650     1300     1700     1800   
                                           T        V       H0       H01     AOSYM     SMH    MOLCAS    ERIS     OPER     GRID   

              2       5        2.92       700     1000      520     1800     2200   
                                         GEOM     BASIS   MCVARS    GRID      UKS  

 PROGRAMS   *        TOTAL      IBBA       UKS       INT
 CPU TIMES  *         7.92      0.02      7.46      0.30
 REAL TIME  *         8.44 SEC
 DISK USED  *        41.20 MB      
 **********************************************************************************************************************************
 Molecular orbitals read from record     2200.2  Type=UKS/LOCAL(IBO)  
 Occupation numbers read from record     2200.2  Type=UKS/LOCAL(IBO)  
 Orbital energies read from record       2200.2  Type=UKS/LOCAL(IBO)  
 Redundancy group numbers read from rec  2200.2  Type=UKS/BETA (state 1.1)

 IBBA/SVP energy=      0.000000000000

        UKS-SCF 
   -114.90509741
 **********************************************************************************************************************************
 Molpro calculation terminated
