
 Primary working directories    : /tmp/sb13343
 Secondary working directories  : /tmp/sb13343
 Wavefunction directory         : /panfs/panasas01/chem/sb13343/wfu/
 Main file repository           : /tmp/sb13343/

 SHA1      : b4a5b34a9e711420743f49e6833241d17c61fb3c
 NAME      : 2099.9.b4a5b34
 ARCHNAME  : linux/x86_64_openmp
 FC        : /cm/shared/languages/GCC-6.1/bin/gfortran
 BLASLIB   : -lblas
 id        : simonbennie

 Nodes     nprocs
 node35-048    1

 Using customized tuning parameters: mindgm=1; mindgv=20; mindgc=4; mindgr=1; noblas=0; minvec=7
 default implementation of scratch files=df  

 memory,500,m
 geomtyp=xyz
 nosym
 noorient
 geometry={
 O         -0.07179        0.79048        0.00000
 C          0.07053       -0.57065        0.00000
 H         -0.96431       -0.97345        0.00000
 H          0.55775       -0.96326        0.90880
 H          0.55775       -0.96326       -0.90880
 }
 basis={ default,sto-3g }
 {uks,B97,direct;wf,17,1,1}
 {ibba,bonds=1}

 Variables initialized (895), CPU time= 0.01 sec
 Commands  initialized (725), CPU time= 0.01 sec, 591 directives.
 Default parameters read. Elapsed time= 0.15 sec

 Checking input...
 Passed
1


                                         ***  PROGRAM SYSTEM MOLPRO  ***
                                       Copyright, TTI GmbH Stuttgart, 2015
                                    Version 2099.9 linked May 26 2017 16:03:21


 **********************************************************************************************************************************
 LABEL *                                                                                 
  64 bit serial version                                                                  DATE: 08-Jun-17          TIME: 02:51:24  
 **********************************************************************************************************************************

 SHA1:             b4a5b34a9e711420743f49e6833241d17c61fb3c
 **********************************************************************************************************************************
 SETTING GEOMTYP        =    XYZ

 Variable memory set to  500000000 words,  buffer space 

 ZSYMEL=NOSYM

 SETTING BASIS          =    STO-3G


 Recomputing integrals since basis changed


 Using spherical harmonics

 Library entry O      S STO-3G               selected for orbital group  1
 Library entry O      P STO-3G               selected for orbital group  1
 Library entry C      S STO-3G               selected for orbital group  2
 Library entry C      P STO-3G               selected for orbital group  2
 Library entry H      S STO-3G               selected for orbital group  3


 PROGRAM * SEWARD (Integral evaluation for generally contracted gaussian basis sets)     Author: Roland Lindh, 1990

 Geometry written to block  1 of record 700


 Point group  C1  



 ATOMIC COORDINATES

 NR  ATOM    CHARGE       X              Y              Z

   1  O       8.00   -0.135663438    1.493790707    0.000000000
   2  C       6.00    0.133282384   -1.078372213    0.000000000
   3  H       1.00   -1.822281799   -1.839553896    0.000000000
   4  H       1.00    1.053994746   -1.820297587    1.717383102
   5  H       1.00    1.053994746   -1.820297587   -1.717383102

 Bond lengths in Bohr (Angstrom)

 1-2  2.586185210  2-3  2.098482506  2-4  2.085082548  2-5  2.085082548
     ( 1.368550276)     ( 1.110469120)     ( 1.103378167)     ( 1.103378167)

 Bond angles

  1-2-3  105.29875708   1-2-4  113.56671130   1-2-5  113.56671130   3-2-4  106.40524792

  3-2-5  106.40524792   4-2-5  110.90419060

 NUCLEAR CHARGE:                   17
 NUMBER OF PRIMITIVE AOS:          39
 NUMBER OF SYMMETRY AOS:           39
 NUMBER OF CONTRACTIONS:           13   (  13A   )
 NUMBER OF CORE ORBITALS:           2   (   2A   )
 NUMBER OF VALENCE ORBITALS:       11   (  11A   )


 NUCLEAR REPULSION ENERGY   34.28824494


 Eigenvalues of metric

         1 0.234E+00 0.369E+00 0.377E+00 0.408E+00 0.839E+00 0.959E+00 0.965E+00 0.968E+00


 Contracted 2-electron integrals neglected if value below      1.0D-11
 AO integral compression algorithm  1   Integral accuracy      1.0D-11

     0.262 MB (compressed) written to integral file (100.0%)


 NUMBER OF SORTED TWO-ELECTRON INTEGRALS:       4186.     BUFFER LENGTH:  32768
 NUMBER OF SEGMENTS:   1  SEGMENT LENGTH:       4186      RECORD LENGTH: 524288

 Memory used in sort:       0.56 MW

 SORT1 READ        5522. AND WROTE        3217. INTEGRALS IN      1 RECORDS. CPU TIME:     0.00 SEC, REAL TIME:     0.01 SEC
 SORT2 READ        3217. AND WROTE        4186. INTEGRALS IN      1 RECORDS. CPU TIME:     0.00 SEC, REAL TIME:     0.00 SEC

 FILE SIZES:   FILE 1:    30.3 MBYTE,  FILE 4:     4.2 MBYTE,   TOTAL:     34.5 MBYTE

 OPERATOR DM      FOR CENTER  0  COORDINATES:    0.000000    0.000000    0.000000


 **********************************************************************************************************************************
 DATASETS  * FILE   NREC   LENGTH (MB)   RECORD NAMES
              1      19       30.03       500      610      700      900      950      970     1000      129      960     1100   
                                          VAR    BASINP    GEOM    SYMINP    ZMAT    AOBASIS   BASIS     P2S    ABASIS      S 
                                         1400     1410     1200     1210     1080     1600     1650     1300     1700   
                                           T        V       H0       H01     AOSYM     SMH    MOLCAS    ERIS     OPER   

 PROGRAMS   *        TOTAL       INT
 CPU TIMES  *         0.33      0.19
 REAL TIME  *         0.89 SEC
 DISK USED  *        34.83 MB      
 **********************************************************************************************************************************

 Density functional group B97=B97DF
 Functional: B97DF(Automatically generated (new) B97DF)                        Gradient terms: 1
 Use grid at  1800.2


 Exact exchange will be calculated, factor:  0.1943

 Functional: B97DF                     Factor:  1.0000

 Generated new metagrid on record  1800.2 with target accuracy 1.0D-06 and 19990 points in CPU time    0.5
 Computed new grid on record 1800.1 in CPU time    0.5
   14331 words reserved for DFT integration

 PROGRAM * UKS-SCF (Unrestricted Kohn-Sham)     Authors: W. Meyer, H.-J. Werner, P.J. Knowles, 1993

 NUMBER OF ELECTRONS:       9+    8-    SPACE SYMMETRY=1    SPIN SYMMETRY: Doublet 
 CONVERGENCE THRESHOLDS:    1.00E-05 (Density)    1.00E-06 (Energy)
 MAX. NUMBER OF ITERATIONS:       60
 INTERPOLATION TYPE:            DIIS
 INTERPOLATION STEPS:              2 (START)      1 (STEP)
 LEVEL SHIFTS:                 -0.20 (ALPHA)  -0.20 (BETA) 



 Use fine grid record 1800.2 for energy threshold  1.0D-06
 Orbital guess generated from atomic densities. Full valence occupancy:    9

 Molecular orbital dump at record        2200.2

 Initial alpha occupation   9
 Initial beta  occupation   8

 ITERATION    DDIFF          GRAD             ENERGY        2-EL.EN.            DIPOLE MOMENTS         DIIS
    1      0.000D+00      0.000D+00      -113.43754684    178.379034   -0.05750   -1.53482    0.00000    0
    2      0.500D-01      0.221D-01      -113.50277352    175.406856   -0.05152   -0.55597    0.00000    1
    3      0.801D-02      0.441D-02      -113.50663497    175.192064   -0.03362   -0.52068    0.00000    2
    4      0.378D-02      0.265D-02      -113.50801714    175.181570   -0.02971   -0.48964    0.00000    3
    5      0.354D-02      0.123D-02      -113.50846826    175.159095   -0.02535   -0.47991    0.00000    4
    6      0.561D-03      0.204D-03      -113.50848127    175.153751   -0.02537   -0.47742    0.00000    5
    7      0.140D-03      0.486D-04      -113.50848210    175.155116   -0.02544   -0.47795    0.00000    6
    8      0.255D-04      0.122D-04      -113.50848215    175.154849   -0.02549   -0.47786    0.00000    6
    9      0.957D-05      0.337D-05      -113.50848215    175.154888   -0.02550   -0.47786    0.00000    6
   10      0.413D-05      0.128D-05      -113.50848215    175.154840   -0.02551   -0.47785    0.00000    5

 Final alpha occupancy:   9
 Final beta  occupancy:   8

 !UKS STATE 1.1 Energy               -113.508482151055
 Nuclear energy                        34.28824494
 One-electron energy                 -223.06540982
 Two-electron energy                   87.57741995
 Density functional                   -12.30873722     B97DF=-12.30873722
 Virial quotient                       -1.01299806
 !UKS STATE 1.1 Dipole moment          -0.02551070    -0.47784957     0.00000000
 Dipole moment /Debye                  -0.06483750    -1.21449290     0.00000000

 Orbital energies for positive spin:

         1.1          2.1          3.1          4.1          5.1          6.1          7.1          8.1          9.1         10.1
    -18.866823   -10.045702    -0.957304    -0.621490    -0.421673    -0.409855    -0.328053    -0.219000    -0.154817     0.380162

        11.1
      0.427479

 Orbital energies for negative spin:

         1.1          2.1          3.1          4.1          5.1          6.1          7.1          8.1          9.1         10.1
    -18.853056   -10.046593    -0.902281    -0.606098    -0.406812    -0.396856    -0.301246    -0.125469     0.017089     0.396930

        11.1
      0.435539

 HOMO     -8.1    -0.125469 =      -3.4142eV
 LUMO     -9.1     0.017089 =       0.4650eV
 LUMO-HOMO         0.142558 =       3.8792eV

 EXPECTATION VALUE OF S**2:             0.75159509

 Occupation number threshold for canonical orbitals:  1.999000 (occupied),  0.001000 (virtual)

 Number of pseudo-canonical orbitals per symmetry:    8
 Number of active natural orbitals per symmetry:      1

 Natural orbitals saved to record    2200.2 (Orbital set 3)

 Orbital spaces for UNO-CAS (Min. occupation: 0.020  Max. occupation: 1.980):

 Closed:        8
 Active:        1


 **********************************************************************************************************************************
 DATASETS  * FILE   NREC   LENGTH (MB)   RECORD NAMES
              1      20       30.67       500      610      700      900      950      970     1000      129      960     1100   
                                          VAR    BASINP    GEOM    SYMINP    ZMAT    AOBASIS   BASIS     P2S    ABASIS      S 
                                         1400     1410     1200     1210     1080     1600     1650     1300     1700     1800   
                                           T        V       H0       H01     AOSYM     SMH    MOLCAS    ERIS     OPER     GRID   

              2       5        2.83       700     1000      520     1800     2200   
                                         GEOM     BASIS   MCVARS    GRID      UKS  

 PROGRAMS   *        TOTAL       UKS       INT
 CPU TIMES  *         1.60      1.27      0.19
 REAL TIME  *         2.81 SEC
 DISK USED  *        34.83 MB      
 **********************************************************************************************************************************


 PROGRAM * Intrinsic Basis Bonding Analysis (IBBA)          Author: G. Knizia

 Molecular orbitals read from record     2200.2  Type=UKS/ALPHA (state 1.1)
 Fock matrix read from record            2200.2  Type=UKS/TOTAL (state 1.1)
 Orbital energies read from record       2200.2  Type=UKS/ALPHA (state 1.1)
 Density matrix read from record         2200.2  Type=UKS/CHARGE (state 1.1)

 Number of core orbitals:           2 (   2 )
 Number of closed-shell orbitals:   6 (   6 )
 Number of active  orbitals:        1 (   1 )

 Basis set MINAO-AUTO-PP generated.      Number of basis functions:   13 

 Polarized AO type:                A = (O Ot + (1-O)(1-Ot)) P12
 Orthogonalization method:         Symmetric (Loewdin)
 Localization functional:          L = sum[A,i] <i|n_A|i>^4 -> max

 Localization group 1:   8 orbitals, occupancy  2.000
 Iterative localization: IB/PM,    6 iter; Final gradient 0.12E-08

 Bond order analysis:       [THRPRINT= 0.020]

   CEN ATOM   CEN ATOM     WIBERG.BO      RENORM.BO
     1   O  -   2   C       1.228865       2.015297
     1   O  -   5   H       0.073828       0.429421
     1   O  -   4   H       0.073828       0.429421
     1   O  -   3   H       0.029198       0.016243

     2   C  -   1   O       1.228865       2.015297
     2   C  -   3   H       0.962891       0.949501
     2   C  -   4   H       0.865735       0.984574
     2   C  -   5   H       0.865735       0.984574

     3   H  -   2   C       0.962891       0.949501
     3   H  -   1   O       0.029198       0.016243

     4   H  -   2   C       0.865735       0.984574
     4   H  -   1   O       0.073828       0.429421

     5   H  -   2   C       0.865735       0.984574
     5   H  -   1   O       0.073828       0.429421


 Valency analysis:

   CEN ATOM   TOT.VALENCE
     1   O       1.405718
     2   C       3.923226
     3   H       0.993217
     4   H       0.954354
     5   H       0.954354
 Localization group 2:   1 orbitals, occupancy  1.000
 Iterative localization: IB/PM,    1 iter; Final gradient 0.00E+00

 Bond order analysis:       [THRPRINT= 0.020]

   CEN ATOM   CEN ATOM     WIBERG.BO      RENORM.BO
     1   O  -   5   H       0.094360       0.500000
     1   O  -   4   H       0.094360       0.500000
     1   O  -   2   C       0.036766       0.500000

     2   C  -   1   O       0.036766       0.500000


     4   H  -   1   O       0.094360       0.500000

     5   H  -   1   O       0.094360       0.500000


 Valency analysis:

   CEN ATOM   TOT.VALENCE
     1   O       0.225485
     2   C       0.041345
     3   H       0.000000
     4   H       0.102524
     5   H       0.102524

 Total charge composition:

   CEN ATOM         s          p       ELECTRONS ->P.CHARGE
     1   O       3.82062    4.37742      8.19804   -0.19804
     2   C       2.99632    3.20689      6.20321   -0.20321
     3   H       0.91764                 0.91764    0.08236
     4   H       0.84055                 0.84055    0.15945
     5   H       0.84055                 0.84055    0.15945

 Total charge composition, AO contributions:

   CEN ATOM SHL      SPHERICAL COMPONENTS
     1   O  1s       1.99817
     1   O  2s       1.82245
     1   O  2p       1.95222    1.35764    1.06756

     2   C  1s       1.99241
     2   C  2s       1.00391
     2   C  2p       1.15470    0.89522    1.15696

     3   H  1s       0.91764

     4   H  1s       0.84055

     5   H  1s       0.84055

 Active orbital charges:

   CEN ATOM         s          p       ELECTRONS ->SPIN.DEN
     1   O       0.00000    0.87048      0.87048    0.87048
     2   C       0.00000    0.02112      0.02112    0.02112
     3   H       0.00000                 0.00000    0.00000
     4   H       0.05420                 0.05420    0.05420
     5   H       0.05420                 0.05420    0.05420

 Active orbital charges, AO contributions:

   CEN ATOM SHL      SPHERICAL COMPONENTS
     1   O  1s       0.00000
     1   O  2s       0.00000
     1   O  2p       0.00000    0.00000    0.87048

     2   C  1s       0.00000
     2   C  2s       0.00000
     2   C  2p       0.00000    0.00000    0.02112

     3   H  1s       0.00000

     4   H  1s       0.05420

     5   H  1s       0.05420

 Summary of localized orbital composition:   [THRPRINT= 0.020]

   ORB  GRP  ORB.ENERGY      CENTERS/CHARGES
     1   1   -18.683582      O  1   2.000
     2   1    -9.938792      C  2   2.000
     3   1    -0.727003      O  1   1.171   C  2   0.829
     4   1    -0.699077      O  1   1.997
     5   1    -0.503352      C  2   1.120   H  5   0.777   O  1   0.099
     6   1    -0.503352      C  2   1.120   H  4   0.777   O  1   0.099
     7   1    -0.492988      C  2   1.097   H  3   0.902
     8   1    -0.132769      O  1   1.962   (other: 0.038)
     9   2    -0.140237      O  1   0.870   H  5   0.054   H  4   0.054   C  2   0.021

 Localized orbitals saved to record      2200.2  (orbital set 4)


 **********************************************************************************************************************************
 DATASETS  * FILE   NREC   LENGTH (MB)   RECORD NAMES
              1      20       30.67       500      610      700      900      950      970     1000      129      960     1100   
                                          VAR    BASINP    GEOM    SYMINP    ZMAT    AOBASIS   BASIS     P2S    ABASIS      S 
                                         1400     1410     1200     1210     1080     1600     1650     1300     1700     1800   
                                           T        V       H0       H01     AOSYM     SMH    MOLCAS    ERIS     OPER     GRID   

              2       5        2.83       700     1000      520     1800     2200   
                                         GEOM     BASIS   MCVARS    GRID      UKS  

 PROGRAMS   *        TOTAL      IBBA       UKS       INT
 CPU TIMES  *         1.62      0.02      1.27      0.19
 REAL TIME  *         2.88 SEC
 DISK USED  *        34.83 MB      
 **********************************************************************************************************************************
 Molecular orbitals read from record     2200.2  Type=UKS/LOCAL(IBO)  
 Occupation numbers read from record     2200.2  Type=UKS/LOCAL(IBO)  
 Orbital energies read from record       2200.2  Type=UKS/LOCAL(IBO)  
 Redundancy group numbers read from rec  2200.2  Type=UKS/BETA (state 1.1)

 IBBA/STO-3G energy=      0.000000000000

        UKS-SCF 
   -113.50848215
 **********************************************************************************************************************************
 Molpro calculation terminated
