
 Primary working directories    : /tmp/sb13343
 Secondary working directories  : /tmp/sb13343
 Wavefunction directory         : /panfs/panasas01/chem/sb13343/wfu/
 Main file repository           : /tmp/sb13343/

 SHA1      : b4a5b34a9e711420743f49e6833241d17c61fb3c
 NAME      : 2099.9.b4a5b34
 ARCHNAME  : linux/x86_64_openmp
 FC        : /cm/shared/languages/GCC-6.1/bin/gfortran
 BLASLIB   : -lblas
 id        : simonbennie

 Nodes     nprocs
 node35-048    1

 Using customized tuning parameters: mindgm=1; mindgv=20; mindgc=4; mindgr=1; noblas=0; minvec=7
 default implementation of scratch files=df  

 memory,500,m
 geomtyp=xyz
 nosym
 noorient
 geometry={
 O         -0.07179        0.79048        0.00000
 C          0.07053       -0.57065        0.00000
 H         -0.96431       -0.97345        0.00000
 H          0.55775       -0.96326        0.90880
 H          0.55775       -0.96326       -0.90880
 }
 basis={ default,sto-3g }
 {uks,SOGGA11-X,direct;wf,17,1,1}
 {ibba,bonds=1}

 Variables initialized (895), CPU time= 0.00 sec
 Commands  initialized (725), CPU time= 0.02 sec, 591 directives.
 Default parameters read. Elapsed time= 0.17 sec

 Checking input...
 Passed
1


                                         ***  PROGRAM SYSTEM MOLPRO  ***
                                       Copyright, TTI GmbH Stuttgart, 2015
                                    Version 2099.9 linked May 26 2017 16:03:21


 **********************************************************************************************************************************
 LABEL *                                                                                 
  64 bit serial version                                                                  DATE: 08-Jun-17          TIME: 03:05:50  
 **********************************************************************************************************************************

 SHA1:             b4a5b34a9e711420743f49e6833241d17c61fb3c
 **********************************************************************************************************************************
 SETTING GEOMTYP        =    XYZ

 Variable memory set to  500000000 words,  buffer space 

 ZSYMEL=NOSYM

 SETTING BASIS          =    STO-3G


 Recomputing integrals since basis changed


 Using spherical harmonics

 Library entry O      S STO-3G               selected for orbital group  1
 Library entry O      P STO-3G               selected for orbital group  1
 Library entry C      S STO-3G               selected for orbital group  2
 Library entry C      P STO-3G               selected for orbital group  2
 Library entry H      S STO-3G               selected for orbital group  3


 PROGRAM * SEWARD (Integral evaluation for generally contracted gaussian basis sets)     Author: Roland Lindh, 1990

 Geometry written to block  1 of record 700


 Point group  C1  



 ATOMIC COORDINATES

 NR  ATOM    CHARGE       X              Y              Z

   1  O       8.00   -0.135663438    1.493790707    0.000000000
   2  C       6.00    0.133282384   -1.078372213    0.000000000
   3  H       1.00   -1.822281799   -1.839553896    0.000000000
   4  H       1.00    1.053994746   -1.820297587    1.717383102
   5  H       1.00    1.053994746   -1.820297587   -1.717383102

 Bond lengths in Bohr (Angstrom)

 1-2  2.586185210  2-3  2.098482506  2-4  2.085082548  2-5  2.085082548
     ( 1.368550276)     ( 1.110469120)     ( 1.103378167)     ( 1.103378167)

 Bond angles

  1-2-3  105.29875708   1-2-4  113.56671130   1-2-5  113.56671130   3-2-4  106.40524792

  3-2-5  106.40524792   4-2-5  110.90419060

 NUCLEAR CHARGE:                   17
 NUMBER OF PRIMITIVE AOS:          39
 NUMBER OF SYMMETRY AOS:           39
 NUMBER OF CONTRACTIONS:           13   (  13A   )
 NUMBER OF CORE ORBITALS:           2   (   2A   )
 NUMBER OF VALENCE ORBITALS:       11   (  11A   )


 NUCLEAR REPULSION ENERGY   34.28824494


 Eigenvalues of metric

         1 0.234E+00 0.369E+00 0.377E+00 0.408E+00 0.839E+00 0.959E+00 0.965E+00 0.968E+00


 Contracted 2-electron integrals neglected if value below      1.0D-11
 AO integral compression algorithm  1   Integral accuracy      1.0D-11

     0.262 MB (compressed) written to integral file (100.0%)


 NUMBER OF SORTED TWO-ELECTRON INTEGRALS:       4186.     BUFFER LENGTH:  32768
 NUMBER OF SEGMENTS:   1  SEGMENT LENGTH:       4186      RECORD LENGTH: 524288

 Memory used in sort:       0.56 MW

 SORT1 READ        5522. AND WROTE        3217. INTEGRALS IN      1 RECORDS. CPU TIME:     0.00 SEC, REAL TIME:     0.01 SEC
 SORT2 READ        3217. AND WROTE        4186. INTEGRALS IN      1 RECORDS. CPU TIME:     0.00 SEC, REAL TIME:     0.00 SEC

 FILE SIZES:   FILE 1:    30.3 MBYTE,  FILE 4:     4.2 MBYTE,   TOTAL:     34.5 MBYTE

 OPERATOR DM      FOR CENTER  0  COORDINATES:    0.000000    0.000000    0.000000


 **********************************************************************************************************************************
 DATASETS  * FILE   NREC   LENGTH (MB)   RECORD NAMES
              1      19       30.03       500      610      700      900      950      970     1000      129      960     1100   
                                          VAR    BASINP    GEOM    SYMINP    ZMAT    AOBASIS   BASIS     P2S    ABASIS      S 
                                         1400     1410     1200     1210     1080     1600     1650     1300     1700   
                                           T        V       H0       H01     AOSYM     SMH    MOLCAS    ERIS     OPER   

 PROGRAMS   *        TOTAL       INT
 CPU TIMES  *         0.35      0.20
 REAL TIME  *         0.92 SEC
 DISK USED  *        34.83 MB      
 **********************************************************************************************************************************

 Density functional group SOGGA11-X=XC-SOGGA11-X
 Functional: XC-SOGGA11-X(via MFM 1.6)                                         Gradient terms: 1
 Use grid at  1800.2


 Exact exchange will be calculated, factor:  0.4015

 Functional: XC-SOGGA11-X              Factor:  1.0000

 Generated new metagrid on record  1800.2 with target accuracy 1.0D-06 and 19990 points in CPU time    0.5
 Computed new grid on record 1800.1 in CPU time    0.5
   14331 words reserved for DFT integration

 PROGRAM * UKS-SCF (Unrestricted Kohn-Sham)     Authors: W. Meyer, H.-J. Werner, P.J. Knowles, 1993

 NUMBER OF ELECTRONS:       9+    8-    SPACE SYMMETRY=1    SPIN SYMMETRY: Doublet 
 CONVERGENCE THRESHOLDS:    1.00E-05 (Density)    1.00E-06 (Energy)
 MAX. NUMBER OF ITERATIONS:       60
 INTERPOLATION TYPE:            DIIS
 INTERPOLATION STEPS:              2 (START)      1 (STEP)
 LEVEL SHIFTS:                 -0.20 (ALPHA)  -0.20 (BETA) 



 Use fine grid record 1800.2 for energy threshold  1.0D-06
 Orbital guess generated from atomic densities. Full valence occupancy:    9

 Molecular orbital dump at record        2200.2

 Initial alpha occupation   9
 Initial beta  occupation   8

 ITERATION    DDIFF          GRAD             ENERGY        2-EL.EN.            DIPOLE MOMENTS         DIIS
    1      0.000D+00      0.000D+00      -113.44776779    172.243053   -0.05988   -1.60765    0.00000    0
    2      0.466D-01      0.245D-01      -113.52130944    169.575397   -0.05291   -0.62507    0.00000    1
    3      0.987D-02      0.615D-02      -113.52796397    169.161830   -0.03147   -0.53060    0.00000    2
    4      0.491D-02      0.345D-02      -113.53029685    169.118065   -0.02367   -0.49172    0.00000    3
    5      0.419D-02      0.154D-02      -113.53093594    169.105169   -0.01791   -0.48173    0.00000    4
    6      0.498D-03      0.242D-03      -113.53095136    169.099207   -0.01812   -0.47963    0.00000    5
    7      0.225D-03      0.762D-04      -113.53095335    169.101045   -0.01817   -0.48046    0.00000    6
    8      0.488D-04      0.204D-04      -113.53095346    169.100741   -0.01828   -0.48031    0.00000    6
    9      0.183D-04      0.642D-05      -113.53095347    169.100679   -0.01832   -0.48026    0.00000    6
   10      0.941D-05      0.274D-05      -113.53095348    169.100645   -0.01834   -0.48027    0.00000    6
   11      0.246D-05      0.777D-06      -113.53095348    169.100666   -0.01834   -0.48027    0.00000    6

 Final alpha occupancy:   9
 Final beta  occupancy:   8

 !UKS STATE 1.1 Energy               -113.530953477571
 Nuclear energy                        34.28824494
 One-electron energy                 -223.05799190
 Two-electron energy                   84.55033324
 Density functional                    -9.31153975     XC-SOGGA11-X=-9.31153975
 Virial quotient                       -1.01292288
 !UKS STATE 1.1 Dipole moment          -0.01834442    -0.48026851     0.00000000
 Dipole moment /Debye                  -0.04662381    -1.22064083     0.00000000

 Orbital energies for positive spin:

         1.1          2.1          3.1          4.1          5.1          6.1          7.1          8.1          9.1         10.1
    -19.239258   -10.314351    -1.065468    -0.697795    -0.480772    -0.466427    -0.388672    -0.282915    -0.218780     0.438090

        11.1
      0.485919

 Orbital energies for negative spin:

         1.1          2.1          3.1          4.1          5.1          6.1          7.1          8.1          9.1         10.1
    -19.217897   -10.315889    -0.995617    -0.678423    -0.461896    -0.444696    -0.359532    -0.187491     0.071939     0.456364

        11.1
      0.494698

 HOMO     -8.1    -0.187491 =      -5.1019eV
 LUMO     -9.1     0.071939 =       1.9576eV
 LUMO-HOMO         0.259430 =       7.0594eV

 EXPECTATION VALUE OF S**2:             0.75163899

 Occupation number threshold for canonical orbitals:  1.999000 (occupied),  0.001000 (virtual)

 Number of pseudo-canonical orbitals per symmetry:    8
 Number of active natural orbitals per symmetry:      1

 Natural orbitals saved to record    2200.2 (Orbital set 3)

 Orbital spaces for UNO-CAS (Min. occupation: 0.020  Max. occupation: 1.980):

 Closed:        8
 Active:        1


 **********************************************************************************************************************************
 DATASETS  * FILE   NREC   LENGTH (MB)   RECORD NAMES
              1      20       30.67       500      610      700      900      950      970     1000      129      960     1100   
                                          VAR    BASINP    GEOM    SYMINP    ZMAT    AOBASIS   BASIS     P2S    ABASIS      S 
                                         1400     1410     1200     1210     1080     1600     1650     1300     1700     1800   
                                           T        V       H0       H01     AOSYM     SMH    MOLCAS    ERIS     OPER     GRID   

              2       5        2.83       700     1000      520     1800     2200   
                                         GEOM     BASIS   MCVARS    GRID      UKS  

 PROGRAMS   *        TOTAL       UKS       INT
 CPU TIMES  *         2.04      1.69      0.20
 REAL TIME  *         3.15 SEC
 DISK USED  *        34.83 MB      
 **********************************************************************************************************************************


 PROGRAM * Intrinsic Basis Bonding Analysis (IBBA)          Author: G. Knizia

 Molecular orbitals read from record     2200.2  Type=UKS/ALPHA (state 1.1)
 Fock matrix read from record            2200.2  Type=UKS/TOTAL (state 1.1)
 Orbital energies read from record       2200.2  Type=UKS/ALPHA (state 1.1)
 Density matrix read from record         2200.2  Type=UKS/CHARGE (state 1.1)

 Number of core orbitals:           2 (   2 )
 Number of closed-shell orbitals:   6 (   6 )
 Number of active  orbitals:        1 (   1 )

 Basis set MINAO-AUTO-PP generated.      Number of basis functions:   13 

 Polarized AO type:                A = (O Ot + (1-O)(1-Ot)) P12
 Orthogonalization method:         Symmetric (Loewdin)
 Localization functional:          L = sum[A,i] <i|n_A|i>^4 -> max

 Localization group 1:   8 orbitals, occupancy  2.000
 Iterative localization: IB/PM,    6 iter; Final gradient 0.12E-08

 Bond order analysis:       [THRPRINT= 0.020]

   CEN ATOM   CEN ATOM     WIBERG.BO      RENORM.BO
     1   O  -   2   C       1.274231       2.013739
     1   O  -   5   H       0.086335       0.420847
     1   O  -   4   H       0.086335       0.420847
     1   O  -   3   H       0.025915       0.014391

     2   C  -   1   O       1.274231       2.013739
     2   C  -   3   H       0.966011       0.955031
     2   C  -   4   H       0.845931       0.985814
     2   C  -   5   H       0.845931       0.985814

     3   H  -   2   C       0.966011       0.955031
     3   H  -   1   O       0.025915       0.014391

     4   H  -   2   C       0.845931       0.985814
     4   H  -   1   O       0.086335       0.420847

     5   H  -   2   C       0.845931       0.985814
     5   H  -   1   O       0.086335       0.420847


 Valency analysis:

   CEN ATOM   TOT.VALENCE
     1   O       1.472817
     2   C       3.932106
     3   H       0.993106
     4   H       0.949833
     5   H       0.949833
 Localization group 2:   1 orbitals, occupancy  1.000
 Iterative localization: IB/PM,    1 iter; Final gradient 0.00E+00

 Bond order analysis:       [THRPRINT= 0.020]

   CEN ATOM   CEN ATOM     WIBERG.BO      RENORM.BO
     1   O  -   5   H       0.100077       0.500000
     1   O  -   4   H       0.100077       0.500000
     1   O  -   2   C       0.054695       0.500000

     2   C  -   1   O       0.054695       0.500000


     4   H  -   1   O       0.100077       0.500000

     5   H  -   1   O       0.100077       0.500000


 Valency analysis:

   CEN ATOM   TOT.VALENCE
     1   O       0.254850
     2   C       0.062270
     3   H       0.000000
     4   H       0.110794
     5   H       0.110794

 Total charge composition:

   CEN ATOM         s          p       ELECTRONS ->P.CHARGE
     1   O       3.81948    4.40693      8.22641   -0.22641
     2   C       2.99765    3.18921      6.18685   -0.18685
     3   H       0.91697                 0.91697    0.08303
     4   H       0.83488                 0.83488    0.16512
     5   H       0.83488                 0.83488    0.16512

 Total charge composition, AO contributions:

   CEN ATOM SHL      SPHERICAL COMPONENTS
     1   O  1s       1.99813
     1   O  2s       1.82135
     1   O  2p       1.95658    1.35545    1.09491

     2   C  1s       1.99204
     2   C  2s       1.00560
     2   C  2p       1.15134    0.89623    1.14164

     3   H  1s       0.91697

     4   H  1s       0.83488

     5   H  1s       0.83488

 Active orbital charges:

   CEN ATOM         s          p       ELECTRONS ->SPIN.DEN
     1   O       0.00000    0.85011      0.85011    0.85011
     2   C       0.00000    0.03217      0.03217    0.03217
     3   H       0.00000                 0.00000    0.00000
     4   H       0.05886                 0.05886    0.05886
     5   H       0.05886                 0.05886    0.05886

 Active orbital charges, AO contributions:

   CEN ATOM SHL      SPHERICAL COMPONENTS
     1   O  1s       0.00000
     1   O  2s       0.00000
     1   O  2p       0.00000    0.00000    0.85011

     2   C  1s       0.00000
     2   C  2s       0.00000
     2   C  2p       0.00000    0.00000    0.03217

     3   H  1s       0.00000

     4   H  1s       0.05886

     5   H  1s       0.05886

 Summary of localized orbital composition:   [THRPRINT= 0.020]

   ORB  GRP  ORB.ENERGY      CENTERS/CHARGES
     1   1   -19.044212      O  1   2.000
     2   1   -10.204710      C  2   2.000
     3   1    -0.800342      O  1   1.168   C  2   0.832
     4   1    -0.797850      O  1   1.997
     5   1    -0.564292      C  2   1.106   H  5   0.766   O  1   0.122
     6   1    -0.564292      C  2   1.106   H  4   0.766   O  1   0.122
     7   1    -0.548031      C  2   1.096   H  3   0.903
     8   1    -0.142205      O  1   1.966   (other: 0.034)
     9   2    -0.203293      O  1   0.850   H  5   0.059   H  4   0.059   C  2   0.032

 Localized orbitals saved to record      2200.2  (orbital set 4)


 **********************************************************************************************************************************
 DATASETS  * FILE   NREC   LENGTH (MB)   RECORD NAMES
              1      20       30.67       500      610      700      900      950      970     1000      129      960     1100   
                                          VAR    BASINP    GEOM    SYMINP    ZMAT    AOBASIS   BASIS     P2S    ABASIS      S 
                                         1400     1410     1200     1210     1080     1600     1650     1300     1700     1800   
                                           T        V       H0       H01     AOSYM     SMH    MOLCAS    ERIS     OPER     GRID   

              2       5        2.83       700     1000      520     1800     2200   
                                         GEOM     BASIS   MCVARS    GRID      UKS  

 PROGRAMS   *        TOTAL      IBBA       UKS       INT
 CPU TIMES  *         2.07      0.02      1.69      0.20
 REAL TIME  *         3.25 SEC
 DISK USED  *        34.83 MB      
 **********************************************************************************************************************************
 Molecular orbitals read from record     2200.2  Type=UKS/LOCAL(IBO)  
 Occupation numbers read from record     2200.2  Type=UKS/LOCAL(IBO)  
 Orbital energies read from record       2200.2  Type=UKS/LOCAL(IBO)  
 Redundancy group numbers read from rec  2200.2  Type=UKS/BETA (state 1.1)

 IBBA/STO-3G energy=      0.000000000000

        UKS-SCF 
   -113.53095348
 **********************************************************************************************************************************
 Molpro calculation terminated
