
 Primary working directories    : /tmp/sb13343
 Secondary working directories  : /tmp/sb13343
 Wavefunction directory         : /panfs/panasas01/chem/sb13343/wfu/
 Main file repository           : /tmp/sb13343/

 SHA1      : b4a5b34a9e711420743f49e6833241d17c61fb3c
 NAME      : 2099.9.b4a5b34
 ARCHNAME  : linux/x86_64_openmp
 FC        : /cm/shared/languages/GCC-6.1/bin/gfortran
 BLASLIB   : -lblas
 id        : simonbennie

 Nodes     nprocs
 node35-048    1

 Using customized tuning parameters: mindgm=1; mindgv=20; mindgc=4; mindgr=1; noblas=0; minvec=7
 default implementation of scratch files=df  

 memory,500,m
 geomtyp=xyz
 nosym
 noorient
 geometry={
 O         -0.07179        0.79048        0.00000
 C          0.07053       -0.57065        0.00000
 H         -0.96431       -0.97345        0.00000
 H          0.55775       -0.96326        0.90880
 H          0.55775       -0.96326       -0.90880
 }
 basis={ default,svp }
 {uks,LYP88,direct;wf,17,1,1}
 {ibba,bonds=1}

 Variables initialized (895), CPU time= 0.00 sec
 Commands  initialized (725), CPU time= 0.01 sec, 591 directives.
 Default parameters read. Elapsed time= 2.75 sec

 Checking input...
 Passed
1


                                         ***  PROGRAM SYSTEM MOLPRO  ***
                                       Copyright, TTI GmbH Stuttgart, 2015
                                    Version 2099.9 linked May 26 2017 16:03:21


 **********************************************************************************************************************************
 LABEL *                                                                                 
  64 bit serial version                                                                  DATE: 08-Jun-17          TIME: 03:13:54  
 **********************************************************************************************************************************

 SHA1:             b4a5b34a9e711420743f49e6833241d17c61fb3c
 **********************************************************************************************************************************
 SETTING GEOMTYP        =    XYZ

 Variable memory set to  500000000 words,  buffer space 

 ZSYMEL=NOSYM

 SETTING BASIS          =    SVP


 Recomputing integrals since basis changed


 Using spherical harmonics

 Library entry O      S def2-SVP             selected for orbital group  1
 Library entry O      P def2-SVP             selected for orbital group  1
 Library entry O      D def2-SVP             selected for orbital group  1
 Library entry C      S def2-SVP             selected for orbital group  2
 Library entry C      P def2-SVP             selected for orbital group  2
 Library entry C      D def2-SVP             selected for orbital group  2
 Library entry H      S def2-SVP             selected for orbital group  3
 Library entry H      P def2-SVP             selected for orbital group  3


 PROGRAM * SEWARD (Integral evaluation for generally contracted gaussian basis sets)     Author: Roland Lindh, 1990

 Geometry written to block  1 of record 700


 Point group  C1  



 ATOMIC COORDINATES

 NR  ATOM    CHARGE       X              Y              Z

   1  O       8.00   -0.135663438    1.493790707    0.000000000
   2  C       6.00    0.133282384   -1.078372213    0.000000000
   3  H       1.00   -1.822281799   -1.839553896    0.000000000
   4  H       1.00    1.053994746   -1.820297587    1.717383102
   5  H       1.00    1.053994746   -1.820297587   -1.717383102

 Bond lengths in Bohr (Angstrom)

 1-2  2.586185210  2-3  2.098482506  2-4  2.085082548  2-5  2.085082548
     ( 1.368550276)     ( 1.110469120)     ( 1.103378167)     ( 1.103378167)

 Bond angles

  1-2-3  105.29875708   1-2-4  113.56671130   1-2-5  113.56671130   3-2-4  106.40524792

  3-2-5  106.40524792   4-2-5  110.90419060

 NUCLEAR CHARGE:                   17
 NUMBER OF PRIMITIVE AOS:          71
 NUMBER OF SYMMETRY AOS:           69
 NUMBER OF CONTRACTIONS:           43   (  43A   )
 NUMBER OF CORE ORBITALS:           2   (   2A   )
 NUMBER OF VALENCE ORBITALS:       11   (  11A   )


 NUCLEAR REPULSION ENERGY   34.28824494


 Eigenvalues of metric

         1 0.119E-01 0.382E-01 0.461E-01 0.536E-01 0.110E+00 0.137E+00 0.139E+00 0.243E+00


 Contracted 2-electron integrals neglected if value below      1.0D-11
 AO integral compression algorithm  1   Integral accuracy      1.0D-11

     2.359 MB (compressed) written to integral file ( 48.8%)


 NUMBER OF SORTED TWO-ELECTRON INTEGRALS:     447931.     BUFFER LENGTH:  32768
 NUMBER OF SEGMENTS:   1  SEGMENT LENGTH:     447931      RECORD LENGTH: 524288

 Memory used in sort:       1.00 MW

 SORT1 READ      553316. AND WROTE      366431. INTEGRALS IN      2 RECORDS. CPU TIME:     0.01 SEC, REAL TIME:     0.02 SEC
 SORT2 READ      366431. AND WROTE      447931. INTEGRALS IN      9 RECORDS. CPU TIME:     0.03 SEC, REAL TIME:     0.04 SEC

 FILE SIZES:   FILE 1:    32.4 MBYTE,  FILE 4:     8.4 MBYTE,   TOTAL:     40.9 MBYTE

 OPERATOR DM      FOR CENTER  0  COORDINATES:    0.000000    0.000000    0.000000


 **********************************************************************************************************************************
 DATASETS  * FILE   NREC   LENGTH (MB)   RECORD NAMES
              1      19       31.84       500      610      700      900      950      970     1000      129      960     1100   
                                          VAR    BASINP    GEOM    SYMINP    ZMAT    AOBASIS   BASIS     P2S    ABASIS      S 
                                         1400     1410     1200     1210     1080     1600     1650     1300     1700   
                                           T        V       H0       H01     AOSYM     SMH    MOLCAS    ERIS     OPER   

 PROGRAMS   *        TOTAL       INT
 CPU TIMES  *         0.43      0.29
 REAL TIME  *         3.66 SEC
 DISK USED  *        41.20 MB      
 **********************************************************************************************************************************

 Density functional group LYP88=LYP
 Functional: LYP(Automatically generated (new) LYP)                            Gradient terms: 1
 Use grid at  1800.2

 Functional: LYP                       Factor:  1.0000

 Generated new metagrid on record  1800.2 with target accuracy 1.0D-06 and 19990 points in CPU time    0.5
 Computed new grid on record 1800.1 in CPU time    0.5
   38039 words reserved for DFT integration

 PROGRAM * UKS-SCF (Unrestricted Kohn-Sham)     Authors: W. Meyer, H.-J. Werner, P.J. Knowles, 1993

 NUMBER OF ELECTRONS:       9+    8-    SPACE SYMMETRY=1    SPIN SYMMETRY: Doublet 
 CONVERGENCE THRESHOLDS:    1.00E-05 (Density)    1.00E-06 (Energy)
 MAX. NUMBER OF ITERATIONS:       60
 INTERPOLATION TYPE:            DIIS
 INTERPOLATION STEPS:              2 (START)      1 (STEP)
 LEVEL SHIFTS:                 -0.20 (ALPHA)  -0.20 (BETA) 



 Use fine grid record 1800.2 for energy threshold  1.0D-06
 Orbital guess generated from atomic densities. Full valence occupancy:    9

 Molecular orbital dump at record        2200.2

 Initial alpha occupation   9
 Initial beta  occupation   8

 ITERATION    DDIFF          GRAD             ENERGY        2-EL.EN.            DIPOLE MOMENTS         DIIS
    1      0.000D+00      0.000D+00       -98.72936938    144.417450   -0.80385    8.17056    0.00000    0
    2      0.910D+00      0.424D-01       -96.82446651    201.949918    0.72173   -5.71864    0.00000    1
    3      0.583D-01      0.709D-01      -100.45114515    178.575058    0.28248   -2.53790    0.00000    2
    4      0.177D-01      0.232D-01      -100.78137186    171.728799    0.18545   -1.29701    0.00000    3
    5      0.144D-01      0.957D-02      -100.85185782    169.323932    0.11017   -0.49231    0.00000    4
    6      0.157D-01      0.210D-02      -100.86086914    167.609511    0.14709   -0.10574    0.00000    5
    7      0.816D-02      0.130D-02      -100.86273902    167.720171    0.16271   -0.03644    0.00000    6
    8      0.380D-02      0.805D-03      -100.86342817    167.865019    0.17729   -0.08514   -0.00000    7
    9      0.226D-02      0.217D-03      -100.86352898    167.947350    0.17533   -0.09626    0.00000    8
   10      0.119D-02      0.446D-04      -100.86354329    167.941731    0.17222   -0.09658    0.00000    7
   11      0.622D-03      0.158D-04      -100.86354617    167.943601    0.16897   -0.09767    0.00000    7
   12      0.340D-03      0.677D-05      -100.86354678    167.943041    0.16718   -0.09733    0.00000    7
   13      0.127D-03      0.263D-05      -100.86354685    167.942970    0.16638   -0.09736    0.00000    8
   14      0.171D-04      0.773D-06      -100.86354686    167.942976    0.16633   -0.09736    0.00000    6
   15      0.176D-05      0.369D-06      -100.86354686    167.943035    0.16631   -0.09734    0.00000    7
   16      0.188D-05      0.139D-06      -100.86354686    167.943030    0.16630   -0.09734    0.00000    7

 Final alpha occupancy:   9
 Final beta  occupancy:   8

 !UKS STATE 1.1 Energy               -100.863546856496
 Nuclear energy                        34.28824494
 One-electron energy                 -218.57882702
 Two-electron energy                   83.97151507
 Density functional                    -0.54447985     LYP=-0.54447985
 Virial quotient                       -0.93971887
 !UKS STATE 1.1 Dipole moment           0.16630331    -0.09734359     0.00000000
 Dipole moment /Debye                   0.42267318    -0.24740651     0.00000000

 Orbital energies for positive spin:

         1.1          2.1          3.1          4.1          5.1          6.1          7.1          8.1          9.1         10.1
    -16.582479    -8.246869    -0.510168    -0.244223    -0.122357    -0.097806    -0.021301     0.085605     0.132165     0.209811

        11.1
      0.280701

 Orbital energies for negative spin:

         1.1          2.1          3.1          4.1          5.1          6.1          7.1          8.1          9.1         10.1
    -16.584322    -8.247007    -0.516361    -0.247375    -0.127683    -0.099326    -0.025552     0.128513     0.071516     0.205652

        11.1
      0.274447

 HOMO      9.1     0.132165 =       3.5964eV
 LUMO     -9.1     0.071516 =       1.9461eV
 LUMO-HOMO        -0.060649 =      -1.6503eV

 EXPECTATION VALUE OF S**2:             0.75017412

 Occupation number threshold for canonical orbitals:  1.999000 (occupied),  0.001000 (virtual)

 Number of pseudo-canonical orbitals per symmetry:    8
 Number of active natural orbitals per symmetry:      1

 Natural orbitals saved to record    2200.2 (Orbital set 3)

 Orbital spaces for UNO-CAS (Min. occupation: 0.020  Max. occupation: 1.980):

 Closed:        8
 Active:        1


 **********************************************************************************************************************************
 DATASETS  * FILE   NREC   LENGTH (MB)   RECORD NAMES
              1      20       32.48       500      610      700      900      950      970     1000      129      960     1100   
                                          VAR    BASINP    GEOM    SYMINP    ZMAT    AOBASIS   BASIS     P2S    ABASIS      S 
                                         1400     1410     1200     1210     1080     1600     1650     1300     1700     1800   
                                           T        V       H0       H01     AOSYM     SMH    MOLCAS    ERIS     OPER     GRID   

              2       5        2.90       700     1000      520     1800     2200   
                                         GEOM     BASIS   MCVARS    GRID      UKS  

 PROGRAMS   *        TOTAL       UKS       INT
 CPU TIMES  *         3.49      3.06      0.29
 REAL TIME  *         7.73 SEC
 DISK USED  *        41.20 MB      
 **********************************************************************************************************************************


 PROGRAM * Intrinsic Basis Bonding Analysis (IBBA)          Author: G. Knizia

 Molecular orbitals read from record     2200.2  Type=UKS/ALPHA (state 1.1)
 Fock matrix read from record            2200.2  Type=UKS/TOTAL (state 1.1)
 Orbital energies read from record       2200.2  Type=UKS/ALPHA (state 1.1)
 Density matrix read from record         2200.2  Type=UKS/CHARGE (state 1.1)

 Number of core orbitals:           2 (   2 )
 Number of closed-shell orbitals:   6 (   6 )
 Number of active  orbitals:        1 (   1 )

 Basis set MINAO-AUTO-PP generated.      Number of basis functions:   13 

 Polarized AO type:                A = (O Ot + (1-O)(1-Ot)) P12
 Orthogonalization method:         Symmetric (Loewdin)
 Localization functional:          L = sum[A,i] <i|n_A|i>^4 -> max

 Localization group 1:   8 orbitals, occupancy  2.000
 Iterative localization: IB/PM,    6 iter; Final gradient 0.51E-08

 Bond order analysis:       [THRPRINT= 0.020]

   CEN ATOM   CEN ATOM     WIBERG.BO      RENORM.BO
     1   O  -   2   C       1.416303       2.064178
     1   O  -   3   H       0.135801       0.637957
     1   O  -   4   H       0.089359       0.112799
     1   O  -   5   H       0.089359       0.112799

     2   C  -   1   O       1.416303       2.064178
     2   C  -   4   H       0.888922       0.869039
     2   C  -   5   H       0.888922       0.869039
     2   C  -   3   H       0.761394       0.994056

     3   H  -   2   C       0.761394       0.994056
     3   H  -   1   O       0.135801       0.637957

     4   H  -   2   C       0.888922       0.869039
     4   H  -   1   O       0.089359       0.112799

     5   H  -   2   C       0.888922       0.869039
     5   H  -   1   O       0.089359       0.112799


 Valency analysis:

   CEN ATOM   TOT.VALENCE
     1   O       1.730823
     2   C       3.955541
     3   H       0.936180
     4   H       0.999889
     5   H       0.999889
 Localization group 2:   1 orbitals, occupancy  1.000
 Iterative localization: IB/PM,    1 iter; Final gradient 0.00E+00

 Bond order analysis:       [THRPRINT= 0.020]

   CEN ATOM   CEN ATOM     WIBERG.BO      RENORM.BO
     1   O  -   3   H       0.217205       0.500000
     1   O  -   5   H       0.049521       0.500000
     1   O  -   4   H       0.049521       0.500000
     1   O  -   2   C       0.021550       0.500000

     2   C  -   1   O       0.021550       0.500000

     3   H  -   1   O       0.217205       0.500000

     4   H  -   1   O       0.049521       0.500000

     5   H  -   1   O       0.049521       0.500000


 Valency analysis:

   CEN ATOM   TOT.VALENCE
     1   O       0.337796
     2   C       0.027083
     3   H       0.238469
     4   H       0.061110
     5   H       0.061110

 Total charge composition:

   CEN ATOM         s          p       ELECTRONS ->P.CHARGE
     1   O       3.69739    4.36519      8.06259   -0.06259
     2   C       2.88909    3.12056      6.00965   -0.00965
     3   H       0.88576                 0.88576    0.11424
     4   H       1.02100                 1.02100   -0.02100
     5   H       1.02100                 1.02100   -0.02100

 Total charge composition, AO contributions:

   CEN ATOM SHL      SPHERICAL COMPONENTS
     1   O  1s       1.99931
     1   O  2s       1.69808
     1   O  2p       1.07312    1.42518    1.86689

     2   C  1s       1.99807
     2   C  2s       0.89101
     2   C  2p       1.10638    0.91652    1.09766

     3   H  1s       0.88576

     4   H  1s       1.02100

     5   H  1s       1.02100

 Active orbital charges:

   CEN ATOM         s          p       ELECTRONS ->SPIN.DEN
     1   O       0.00001    0.78478      0.78478    0.78478
     2   C       0.00069    0.01304      0.01373    0.01373
     3   H       0.13839                 0.13839    0.13839
     4   H       0.03155                 0.03155    0.03155
     5   H       0.03155                 0.03155    0.03155

 Active orbital charges, AO contributions:

   CEN ATOM SHL      SPHERICAL COMPONENTS
     1   O  1s       0.00000
     1   O  2s       0.00001
     1   O  2p       0.76787    0.01691    0.00000

     2   C  1s       0.00000
     2   C  2s       0.00069
     2   C  2p       0.01186    0.00118    0.00000

     3   H  1s       0.13839

     4   H  1s       0.03155

     5   H  1s       0.03155

 Summary of localized orbital composition:   [THRPRINT= 0.020]

   ORB  GRP  ORB.ENERGY      CENTERS/CHARGES
     1   1   -16.432373      O  1   2.000
     2   1    -8.170861      C  2   2.000
     3   1    -0.423418      O  1   1.140   C  2   0.858
     4   1    -0.261642      O  1   1.990
     5   1    -0.181243      C  2   1.009   H  4   0.951   O  1   0.028
     6   1    -0.181243      C  2   1.009   H  5   0.951   O  1   0.028
     7   1    -0.151031      C  2   1.053   H  3   0.720   O  1   0.225
     8   1     0.044008      O  1   1.867   C  2   0.063   H  5   0.035   H  4   0.035
     9   2     0.130341      O  1   0.785   H  3   0.138   H  5   0.032   H  4   0.032

 Localized orbitals saved to record      2200.2  (orbital set 4)


 **********************************************************************************************************************************
 DATASETS  * FILE   NREC   LENGTH (MB)   RECORD NAMES
              1      20       32.48       500      610      700      900      950      970     1000      129      960     1100   
                                          VAR    BASINP    GEOM    SYMINP    ZMAT    AOBASIS   BASIS     P2S    ABASIS      S 
                                         1400     1410     1200     1210     1080     1600     1650     1300     1700     1800   
                                           T        V       H0       H01     AOSYM     SMH    MOLCAS    ERIS     OPER     GRID   

              2       5        2.92       700     1000      520     1800     2200   
                                         GEOM     BASIS   MCVARS    GRID      UKS  

 PROGRAMS   *        TOTAL      IBBA       UKS       INT
 CPU TIMES  *         3.51      0.02      3.06      0.29
 REAL TIME  *         7.81 SEC
 DISK USED  *        41.20 MB      
 **********************************************************************************************************************************
 Molecular orbitals read from record     2200.2  Type=UKS/LOCAL(IBO)  
 Occupation numbers read from record     2200.2  Type=UKS/LOCAL(IBO)  
 Orbital energies read from record       2200.2  Type=UKS/LOCAL(IBO)  
 Redundancy group numbers read from rec  2200.2  Type=UKS/BETA (state 1.1)

 IBBA/SVP energy=      0.000000000000

        UKS-SCF 
   -100.86354686
 **********************************************************************************************************************************
 Molpro calculation terminated
