
 Primary working directories    : /tmp/sb13343
 Secondary working directories  : /tmp/sb13343
 Wavefunction directory         : /panfs/panasas01/chem/sb13343/wfu/
 Main file repository           : /tmp/sb13343/

 SHA1      : b4a5b34a9e711420743f49e6833241d17c61fb3c
 NAME      : 2099.9.b4a5b34
 ARCHNAME  : linux/x86_64_openmp
 FC        : /cm/shared/languages/GCC-6.1/bin/gfortran
 BLASLIB   : -lblas
 id        : simonbennie

 Nodes     nprocs
 node35-048    1

 Using customized tuning parameters: mindgm=1; mindgv=20; mindgc=4; mindgr=1; noblas=0; minvec=7
 default implementation of scratch files=df  

 memory,500,m
 geomtyp=xyz
 nosym
 noorient
 geometry={
 O         -0.07179        0.79048        0.00000
 C          0.07053       -0.57065        0.00000
 H         -0.96431       -0.97345        0.00000
 H          0.55775       -0.96326        0.90880
 H          0.55775       -0.96326       -0.90880
 }
 basis={ default,svp }
 {ks,M06-HF,direct;wf,17,1,1}
 {ibba,bonds=1}

 Variables initialized (895), CPU time= 0.00 sec
 Commands  initialized (725), CPU time= 0.02 sec, 591 directives.
 Default parameters read. Elapsed time= 0.16 sec

 Checking input...
 Passed
1


                                         ***  PROGRAM SYSTEM MOLPRO  ***
                                       Copyright, TTI GmbH Stuttgart, 2015
                                    Version 2099.9 linked May 26 2017 16:03:21


 **********************************************************************************************************************************
 LABEL *                                                                                 
  64 bit serial version                                                                  DATE: 08-Jun-17          TIME: 03:20:13  
 **********************************************************************************************************************************

 SHA1:             b4a5b34a9e711420743f49e6833241d17c61fb3c
 **********************************************************************************************************************************
 SETTING GEOMTYP        =    XYZ

 Variable memory set to  500000000 words,  buffer space 

 ZSYMEL=NOSYM

 SETTING BASIS          =    SVP


 Recomputing integrals since basis changed


 Using spherical harmonics

 Library entry O      S def2-SVP             selected for orbital group  1
 Library entry O      P def2-SVP             selected for orbital group  1
 Library entry O      D def2-SVP             selected for orbital group  1
 Library entry C      S def2-SVP             selected for orbital group  2
 Library entry C      P def2-SVP             selected for orbital group  2
 Library entry C      D def2-SVP             selected for orbital group  2
 Library entry H      S def2-SVP             selected for orbital group  3
 Library entry H      P def2-SVP             selected for orbital group  3


 PROGRAM * SEWARD (Integral evaluation for generally contracted gaussian basis sets)     Author: Roland Lindh, 1990

 Geometry written to block  1 of record 700


 Point group  C1  



 ATOMIC COORDINATES

 NR  ATOM    CHARGE       X              Y              Z

   1  O       8.00   -0.135663438    1.493790707    0.000000000
   2  C       6.00    0.133282384   -1.078372213    0.000000000
   3  H       1.00   -1.822281799   -1.839553896    0.000000000
   4  H       1.00    1.053994746   -1.820297587    1.717383102
   5  H       1.00    1.053994746   -1.820297587   -1.717383102

 Bond lengths in Bohr (Angstrom)

 1-2  2.586185210  2-3  2.098482506  2-4  2.085082548  2-5  2.085082548
     ( 1.368550276)     ( 1.110469120)     ( 1.103378167)     ( 1.103378167)

 Bond angles

  1-2-3  105.29875708   1-2-4  113.56671130   1-2-5  113.56671130   3-2-4  106.40524792

  3-2-5  106.40524792   4-2-5  110.90419060

 NUCLEAR CHARGE:                   17
 NUMBER OF PRIMITIVE AOS:          71
 NUMBER OF SYMMETRY AOS:           69
 NUMBER OF CONTRACTIONS:           43   (  43A   )
 NUMBER OF CORE ORBITALS:           2   (   2A   )
 NUMBER OF VALENCE ORBITALS:       11   (  11A   )


 NUCLEAR REPULSION ENERGY   34.28824494


 Eigenvalues of metric

         1 0.119E-01 0.382E-01 0.461E-01 0.536E-01 0.110E+00 0.137E+00 0.139E+00 0.243E+00


 Contracted 2-electron integrals neglected if value below      1.0D-11
 AO integral compression algorithm  1   Integral accuracy      1.0D-11

     2.359 MB (compressed) written to integral file ( 48.8%)


 NUMBER OF SORTED TWO-ELECTRON INTEGRALS:     447931.     BUFFER LENGTH:  32768
 NUMBER OF SEGMENTS:   1  SEGMENT LENGTH:     447931      RECORD LENGTH: 524288

 Memory used in sort:       1.00 MW

 SORT1 READ      553316. AND WROTE      366431. INTEGRALS IN      2 RECORDS. CPU TIME:     0.00 SEC, REAL TIME:     0.02 SEC
 SORT2 READ      366431. AND WROTE      447931. INTEGRALS IN      9 RECORDS. CPU TIME:     0.03 SEC, REAL TIME:     0.04 SEC

 FILE SIZES:   FILE 1:    32.4 MBYTE,  FILE 4:     8.4 MBYTE,   TOTAL:     40.9 MBYTE

 OPERATOR DM      FOR CENTER  0  COORDINATES:    0.000000    0.000000    0.000000


 **********************************************************************************************************************************
 DATASETS  * FILE   NREC   LENGTH (MB)   RECORD NAMES
              1      19       31.84       500      610      700      900      950      970     1000      129      960     1100   
                                          VAR    BASINP    GEOM    SYMINP    ZMAT    AOBASIS   BASIS     P2S    ABASIS      S 
                                         1400     1410     1200     1210     1080     1600     1650     1300     1700   
                                           T        V       H0       H01     AOSYM     SMH    MOLCAS    ERIS     OPER   

 PROGRAMS   *        TOTAL       INT
 CPU TIMES  *         0.43      0.28
 REAL TIME  *         0.93 SEC
 DISK USED  *        41.20 MB      
 **********************************************************************************************************************************

 Density functional group M06-HF=XC-M06-HF
 Functional: XC-M06-HF(via MFM 1.6)                                            Gradient terms: 1
 Use grid at  1800.2


 Exact exchange will be calculated, factor:  1.0000

 Functional: XC-M06-HF                 Factor:  1.0000

 Generated new metagrid on record  1800.2 with target accuracy 1.0D-06 and 19990 points in CPU time    0.5
 Computed new grid on record 1800.1 in CPU time    0.5
   38039 words reserved for DFT integration

 PROGRAM * RKS-SCF (Restricted open shell Kohn-Sham)     Authors: W. Meyer, H.-J. Werner, P.J. Knowles, 1993

 NUMBER OF ELECTRONS:       9+    8-    SPACE SYMMETRY=1    SPIN SYMMETRY: Doublet 
 CONVERGENCE THRESHOLDS:    1.00E-05 (Density)    1.00E-06 (Energy)
 MAX. NUMBER OF ITERATIONS:       60
 INTERPOLATION TYPE:            DIIS
 INTERPOLATION STEPS:              2 (START)      1 (STEP)
 LEVEL SHIFTS:                 -0.60 (CLOSED) -0.30 (OPEN) 



 Use fine grid record 1800.2 for energy threshold  1.0D-06
 Orbital guess generated from atomic densities. Full valence occupancy:    9

 Molecular orbital dump at record        2100.2

 Initial alpha occupancy:   9
 Initial beta  occupancy:   8
 Wave function symmetry:    1

 ITERATION    DDIFF          GRAD             ENERGY        2-EL.EN.            DIPOLE MOMENTS         DIIS   ORB.
    1      0.000D+00      0.000D+00      -114.83702193    152.045414   -0.10111   -1.71538    0.00000    0    start
    2      0.000D+00      0.976D-02      -114.88007605    150.474802   -0.04200   -1.04930    0.00000    1    diag,B
    3      0.813D-02      0.508D-02      -114.89051555    150.901858   -0.03012   -1.03492    0.00000    2    diag,B
    4      0.313D-02      0.215D-02      -114.89897593    150.830797   -0.01096   -0.90669    0.00000    3    diag,B
    5      0.232D-02      0.121D-02      -114.90282004    150.805411    0.00096   -0.84109    0.00000    4    diag,B
    6      0.209D-02      0.500D-03      -114.90347997    150.773513    0.00618   -0.81915    0.00000    5    diag,B
    7      0.114D-02      0.132D-03      -114.90350849    150.770695    0.00709   -0.81624    0.00000    6    fixocc
    8      0.272D-03      0.407D-04      -114.90351116    150.771485    0.00654   -0.81708    0.00000    7    diag,B
    9      0.821D-04      0.193D-04      -114.90351226    150.772203    0.00585   -0.81797    0.00000    8    diag,B
   10      0.487D-04      0.939D-05      -114.90351264    150.772081    0.00553   -0.81815    0.00000    9    orth
   11      0.218D-04      0.548D-05      -114.90351281    150.772116    0.00533   -0.81818    0.00000    9    diag,B
   12      0.188D-04      0.194D-05      -114.90351283    150.772019    0.00530   -0.81815    0.00000    9    diag,B
   13      0.619D-05      0.724D-06      -114.90351283    150.772040    0.00530   -0.81813    0.00000    0    orth

 Final alpha occupancy:   9
 Final beta  occupancy:   8

 !RKS STATE 1.1 Energy               -114.903512826784
 Nuclear energy                        34.28824494
 One-electron energy                 -223.99502708
 Two-electron energy                   75.38601976
 Density functional                    -0.58275044     XC-M06-HF=-0.58275044
 Virial quotient                       -1.00816392
 !RKS STATE 1.1 Dipole moment           0.00530491    -0.81812996     0.00000000
 Dipole moment /Debye                   0.01348286    -2.07934274     0.00000000

 Orbital energies:

         1.1          2.1          3.1          4.1          5.1          6.1          7.1          8.1          9.1         10.1
    -20.241739   -11.035484    -1.226981    -0.853875    -0.635829    -0.602157    -0.592731    -0.453194    -0.537032     0.137205

        11.1
      0.201909

 HOMO      9.1    -0.537032 =     -14.6134eV
 LUMO     10.1     0.137205 =       3.7335eV
 LUMO-HOMO         0.674236 =      18.3469eV


 **********************************************************************************************************************************
 DATASETS  * FILE   NREC   LENGTH (MB)   RECORD NAMES
              1      20       32.48       500      610      700      900      950      970     1000      129      960     1100   
                                          VAR    BASINP    GEOM    SYMINP    ZMAT    AOBASIS   BASIS     P2S    ABASIS      S 
                                         1400     1410     1200     1210     1080     1600     1650     1300     1700     1800   
                                           T        V       H0       H01     AOSYM     SMH    MOLCAS    ERIS     OPER     GRID   

              2       5        2.87       700     1000      520     1800     2100   
                                         GEOM     BASIS   MCVARS    GRID      RKS  

 PROGRAMS   *        TOTAL        KS       INT
 CPU TIMES  *         7.51      7.08      0.28
 REAL TIME  *         9.20 SEC
 DISK USED  *        41.20 MB      
 **********************************************************************************************************************************


 PROGRAM * Intrinsic Basis Bonding Analysis (IBBA)          Author: G. Knizia

 Molecular orbitals read from record     2100.2  Type=RKS/CANONICAL (state 1.1)
 Fock matrix read from record            2100.2  Type=RKS/TOTAL (state 1.1)
 Orbital energies read from record       2100.2  Type=RKS/CANONICAL (state 1.1)
 Density matrix read from record         2100.2  Type=RKS/CHARGE (state 1.1)

 Number of core orbitals:           2 (   2 )
 Number of closed-shell orbitals:   6 (   6 )
 Number of active  orbitals:        1 (   1 )

 Basis set MINAO-AUTO-PP generated.      Number of basis functions:   13 

 Polarized AO type:                A = (O Ot + (1-O)(1-Ot)) P12
 Orthogonalization method:         Symmetric (Loewdin)
 Localization functional:          L = sum[A,i] <i|n_A|i>^4 -> max

 Localization group 1:   8 orbitals, occupancy  2.000
 Iterative localization: IB/PM,    6 iter; Final gradient 0.50E-08

 Bond order analysis:       [THRPRINT= 0.020]

   CEN ATOM   CEN ATOM     WIBERG.BO      RENORM.BO
     1   O  -   2   C       1.096953       2.016296
     1   O  -   3   H       0.057932       0.664401
     1   O  -   5   H       0.035255       0.128829
     1   O  -   4   H       0.035255       0.128829

     2   C  -   1   O       1.096953       2.016296
     2   C  -   4   H       0.941357       0.956830
     2   C  -   5   H       0.941357       0.956830
     2   C  -   3   H       0.892969       0.997429

     3   H  -   2   C       0.892969       0.997429
     3   H  -   1   O       0.057932       0.664401

     4   H  -   2   C       0.941357       0.956830
     4   H  -   1   O       0.035255       0.128829

     5   H  -   2   C       0.941357       0.956830
     5   H  -   1   O       0.035255       0.128829


 Valency analysis:

   CEN ATOM   TOT.VALENCE
     1   O       1.225395
     2   C       3.872636
     3   H       0.960935
     4   H       0.981629
     5   H       0.981629
 Localization group 2:   1 orbitals, occupancy  1.000
 Iterative localization: IB/PM,    1 iter; Final gradient 0.00E+00

 Bond order analysis:       [THRPRINT= 0.020]

   CEN ATOM   CEN ATOM     WIBERG.BO      RENORM.BO
     1   O  -   3   H       0.072891       0.500000


     3   H  -   1   O       0.072891       0.500000




 Valency analysis:

   CEN ATOM   TOT.VALENCE
     1   O       0.122961
     2   C       0.020532
     3   H       0.074982
     4   H       0.016290
     5   H       0.016290

 Total charge composition:

   CEN ATOM         s          p       ELECTRONS ->P.CHARGE
     1   O       3.75471    4.49508      8.24979   -0.24979
     2   C       2.98576    3.17774      6.16350   -0.16350
     3   H       0.84136                 0.84136    0.15864
     4   H       0.87267                 0.87267    0.12733
     5   H       0.87267                 0.87267    0.12733

 Total charge composition, AO contributions:

   CEN ATOM SHL      SPHERICAL COMPONENTS
     1   O  1s       1.99798
     1   O  2s       1.75673
     1   O  2p       1.04780    1.48776    1.95952

     2   C  1s       1.99109
     2   C  2s       0.99468
     2   C  2p       1.17384    0.82702    1.17688

     3   H  1s       0.84136

     4   H  1s       0.87267

     5   H  1s       0.87267

 Active orbital charges:

   CEN ATOM         s          p       ELECTRONS ->SPIN.DEN
     1   O       0.00001    0.93418      0.93419    0.93419
     2   C       0.00002    0.01036      0.01037    0.01037
     3   H       0.03901                 0.03901    0.03901
     4   H       0.00821                 0.00821    0.00821
     5   H       0.00821                 0.00821    0.00821

 Active orbital charges, AO contributions:

   CEN ATOM SHL      SPHERICAL COMPONENTS
     1   O  1s       0.00000
     1   O  2s       0.00001
     1   O  2p       0.91961    0.01457    0.00000

     2   C  1s       0.00000
     2   C  2s       0.00002
     2   C  2p       0.01025    0.00010    0.00000

     3   H  1s       0.03901

     4   H  1s       0.00821

     5   H  1s       0.00821

 Summary of localized orbital composition:   [THRPRINT= 0.020]

   ORB  GRP  ORB.ENERGY      CENTERS/CHARGES
     1   1   -19.939232      O  1   2.000
     2   1   -10.920532      C  2   2.000
     3   1    -1.081842      O  1   1.996
     4   1    -1.063217      O  1   1.254   C  2   0.746
     5   1    -0.715413      C  2   1.122   H  3   0.798   O  1   0.077
     6   1    -0.707670      C  2   1.134   H  4   0.849
     7   1    -0.707670      C  2   1.134   H  5   0.849
     8   1    -0.506408      O  1   1.959   (other: 0.041)
     9   2    -0.238104      O  1   0.934   H  3   0.039   (other: 0.027)

 Localized orbitals saved to record      2100.2  (orbital set 2)


 **********************************************************************************************************************************
 DATASETS  * FILE   NREC   LENGTH (MB)   RECORD NAMES
              1      20       32.48       500      610      700      900      950      970     1000      129      960     1100   
                                          VAR    BASINP    GEOM    SYMINP    ZMAT    AOBASIS   BASIS     P2S    ABASIS      S 
                                         1400     1410     1200     1210     1080     1600     1650     1300     1700     1800   
                                           T        V       H0       H01     AOSYM     SMH    MOLCAS    ERIS     OPER     GRID   

              2       5        2.89       700     1000      520     1800     2100   
                                         GEOM     BASIS   MCVARS    GRID      RKS  

 PROGRAMS   *        TOTAL      IBBA        KS       INT
 CPU TIMES  *         7.54      0.03      7.08      0.28
 REAL TIME  *         9.28 SEC
 DISK USED  *        41.20 MB      
 **********************************************************************************************************************************
 Molecular orbitals read from record     2100.2  Type=RKS/LOCAL(IBO)  
 Occupation numbers read from record     2100.2  Type=RKS/LOCAL(IBO)  
 Orbital energies read from record       2100.2  Type=RKS/LOCAL(IBO)  
 Redundancy group numbers read from rec  2100.2  Type=RKS/LOCAL(IBO)  

 IBBA/SVP energy=      0.000000000000

        KS-SCF  
   -114.90351283
 **********************************************************************************************************************************
 Molpro calculation terminated
