
 Primary working directories    : /tmp/sb13343
 Secondary working directories  : /tmp/sb13343
 Wavefunction directory         : /panfs/panasas01/chem/sb13343/wfu/
 Main file repository           : /tmp/sb13343/

 SHA1      : b4a5b34a9e711420743f49e6833241d17c61fb3c
 NAME      : 2099.9.b4a5b34
 ARCHNAME  : linux/x86_64_openmp
 FC        : /cm/shared/languages/GCC-6.1/bin/gfortran
 BLASLIB   : -lblas
 id        : simonbennie

 Nodes     nprocs
 node32-001    1

 Using customized tuning parameters: mindgm=1; mindgv=20; mindgc=4; mindgr=1; noblas=0; minvec=7
 default implementation of scratch files=df  

 memory,500,m
 geomtyp=xyz
 nosym
 noorient
 geometry={
 O         -0.07179        0.79048        0.00000
 C          0.07053       -0.57065        0.00000
 H         -0.96431       -0.97345        0.00000
 H          0.55775       -0.96326        0.90880
 H          0.55775       -0.96326       -0.90880
 }
 basis={ default,sto-3g }
 {ks,M06-L,direct;wf,17,1,1}
 {ibba,bonds=1}

 Variables initialized (895), CPU time= 0.00 sec
 Commands  initialized (725), CPU time= 0.02 sec, 591 directives.
 Default parameters read. Elapsed time= 2.42 sec

 Checking input...
 Passed
1


                                         ***  PROGRAM SYSTEM MOLPRO  ***
                                       Copyright, TTI GmbH Stuttgart, 2015
                                    Version 2099.9 linked May 26 2017 16:03:21


 **********************************************************************************************************************************
 LABEL *                                                                                 
  64 bit serial version                                                                  DATE: 08-Jun-17          TIME: 03:03:13  
 **********************************************************************************************************************************

 SHA1:             b4a5b34a9e711420743f49e6833241d17c61fb3c
 **********************************************************************************************************************************
 SETTING GEOMTYP        =    XYZ

 Variable memory set to  500000000 words,  buffer space 

 ZSYMEL=NOSYM

 SETTING BASIS          =    STO-3G


 Recomputing integrals since basis changed


 Using spherical harmonics

 Library entry O      S STO-3G               selected for orbital group  1
 Library entry O      P STO-3G               selected for orbital group  1
 Library entry C      S STO-3G               selected for orbital group  2
 Library entry C      P STO-3G               selected for orbital group  2
 Library entry H      S STO-3G               selected for orbital group  3


 PROGRAM * SEWARD (Integral evaluation for generally contracted gaussian basis sets)     Author: Roland Lindh, 1990

 Geometry written to block  1 of record 700


 Point group  C1  



 ATOMIC COORDINATES

 NR  ATOM    CHARGE       X              Y              Z

   1  O       8.00   -0.135663438    1.493790707    0.000000000
   2  C       6.00    0.133282384   -1.078372213    0.000000000
   3  H       1.00   -1.822281799   -1.839553896    0.000000000
   4  H       1.00    1.053994746   -1.820297587    1.717383102
   5  H       1.00    1.053994746   -1.820297587   -1.717383102

 Bond lengths in Bohr (Angstrom)

 1-2  2.586185210  2-3  2.098482506  2-4  2.085082548  2-5  2.085082548
     ( 1.368550276)     ( 1.110469120)     ( 1.103378167)     ( 1.103378167)

 Bond angles

  1-2-3  105.29875708   1-2-4  113.56671130   1-2-5  113.56671130   3-2-4  106.40524792

  3-2-5  106.40524792   4-2-5  110.90419060

 NUCLEAR CHARGE:                   17
 NUMBER OF PRIMITIVE AOS:          39
 NUMBER OF SYMMETRY AOS:           39
 NUMBER OF CONTRACTIONS:           13   (  13A   )
 NUMBER OF CORE ORBITALS:           2   (   2A   )
 NUMBER OF VALENCE ORBITALS:       11   (  11A   )


 NUCLEAR REPULSION ENERGY   34.28824494


 Eigenvalues of metric

         1 0.234E+00 0.369E+00 0.377E+00 0.408E+00 0.839E+00 0.959E+00 0.965E+00 0.968E+00


 Contracted 2-electron integrals neglected if value below      1.0D-11
 AO integral compression algorithm  1   Integral accuracy      1.0D-11

     0.262 MB (compressed) written to integral file (100.0%)


 NUMBER OF SORTED TWO-ELECTRON INTEGRALS:       4186.     BUFFER LENGTH:  32768
 NUMBER OF SEGMENTS:   1  SEGMENT LENGTH:       4186      RECORD LENGTH: 524288

 Memory used in sort:       0.56 MW

 SORT1 READ        5522. AND WROTE        3217. INTEGRALS IN      1 RECORDS. CPU TIME:     0.00 SEC, REAL TIME:     0.00 SEC
 SORT2 READ        3217. AND WROTE        4186. INTEGRALS IN      1 RECORDS. CPU TIME:     0.00 SEC, REAL TIME:     0.01 SEC

 FILE SIZES:   FILE 1:    30.3 MBYTE,  FILE 4:     4.2 MBYTE,   TOTAL:     34.5 MBYTE

 OPERATOR DM      FOR CENTER  0  COORDINATES:    0.000000    0.000000    0.000000


 **********************************************************************************************************************************
 DATASETS  * FILE   NREC   LENGTH (MB)   RECORD NAMES
              1      19       30.03       500      610      700      900      950      970     1000      129      960     1100   
                                          VAR    BASINP    GEOM    SYMINP    ZMAT    AOBASIS   BASIS     P2S    ABASIS      S 
                                         1400     1410     1200     1210     1080     1600     1650     1300     1700   
                                           T        V       H0       H01     AOSYM     SMH    MOLCAS    ERIS     OPER   

 PROGRAMS   *        TOTAL       INT
 CPU TIMES  *         0.34      0.19
 REAL TIME  *         3.67 SEC
 DISK USED  *        34.83 MB      
 **********************************************************************************************************************************

 Density functional group M06-L=XC-M06-L
 Functional: XC-M06-L(via MFM 1.6)                                             Gradient terms: 1
 Use grid at  1800.2

 Functional: XC-M06-L                  Factor:  1.0000

 Generated new metagrid on record  1800.2 with target accuracy 1.0D-06 and 19990 points in CPU time    0.5
 Computed new grid on record 1800.1 in CPU time    0.5
   14331 words reserved for DFT integration

 PROGRAM * RKS-SCF (Restricted open shell Kohn-Sham)     Authors: W. Meyer, H.-J. Werner, P.J. Knowles, 1993

 NUMBER OF ELECTRONS:       9+    8-    SPACE SYMMETRY=1    SPIN SYMMETRY: Doublet 
 CONVERGENCE THRESHOLDS:    1.00E-05 (Density)    1.00E-06 (Energy)
 MAX. NUMBER OF ITERATIONS:       60
 INTERPOLATION TYPE:            DIIS
 INTERPOLATION STEPS:              2 (START)      1 (STEP)
 LEVEL SHIFTS:                 -0.60 (CLOSED) -0.30 (OPEN) 



 Use fine grid record 1800.2 for energy threshold  1.0D-06
 Orbital guess generated from atomic densities. Full valence occupancy:    9

 Molecular orbital dump at record        2100.2

 Initial alpha occupancy:   9
 Initial beta  occupancy:   8
 Wave function symmetry:    1

 ITERATION    DDIFF          GRAD             ENERGY        2-EL.EN.            DIPOLE MOMENTS         DIIS   ORB.
    1      0.000D+00      0.000D+00      -113.43879973    184.144412   -0.05397   -1.49696    0.00000    0    start
    2      0.000D+00      0.249D-01      -113.50155481    180.818215   -0.01879   -0.43161    0.00000    1    diag,B
    3      0.534D-01      0.507D-02      -113.50401037    180.871692   -0.02914   -0.50419    0.00000    2    diag,B
    4      0.864D-02      0.119D-02      -113.50446047    180.860359   -0.03152   -0.48580    0.00000    3    diag,B
    5      0.258D-02      0.563D-03      -113.50456581    180.848913   -0.03026   -0.48138    0.00000    4    diag,B
    6      0.175D-02      0.101D-03      -113.50456880    180.848212   -0.02923   -0.48100    0.00000    5    diag,B
    7      0.322D-03      0.225D-04      -113.50456890    180.848737   -0.02926   -0.48123   -0.00000    6    fixocc
    8      0.732D-04      0.440D-05      -113.50456891    180.848745   -0.02933   -0.48124   -0.00000    7    diag,B
    9      0.148D-04      0.133D-05      -113.50456891    180.848751   -0.02933   -0.48124   -0.00000    8    diag,B
   10      0.685D-05      0.279D-06      -113.50456891    180.848750   -0.02934   -0.48124   -0.00000    0    orth

 Final alpha occupancy:   9
 Final beta  occupancy:   8

 !RKS STATE 1.1 Energy               -113.504568906657
 Nuclear energy                        34.28824494
 One-electron energy                 -223.07898555
 Two-electron energy                   90.42437488
 Density functional                   -15.13820317     XC-M06-L=-15.13820317
 Virial quotient                       -1.01275881
 !RKS STATE 1.1 Dipole moment          -0.02933539    -0.48124080    -0.00000000
 Dipole moment /Debye                  -0.07455824    -1.22311199    -0.00000000

 Orbital energies:

         1.1          2.1          3.1          4.1          5.1          6.1          7.1          8.1          9.1         10.1
    -18.694935    -9.924275    -0.890929    -0.582743    -0.375318    -0.374627    -0.283313    -0.096740    -0.180499     0.348505

        11.1
      0.399675

 HOMO      9.1    -0.180499 =      -4.9116eV
 LUMO     10.1     0.348505 =       9.4833eV
 LUMO-HOMO         0.529004 =      14.3949eV


 **********************************************************************************************************************************
 DATASETS  * FILE   NREC   LENGTH (MB)   RECORD NAMES
              1      20       30.67       500      610      700      900      950      970     1000      129      960     1100   
                                          VAR    BASINP    GEOM    SYMINP    ZMAT    AOBASIS   BASIS     P2S    ABASIS      S 
                                         1400     1410     1200     1210     1080     1600     1650     1300     1700     1800   
                                           T        V       H0       H01     AOSYM     SMH    MOLCAS    ERIS     OPER     GRID   

              2       5        2.82       700     1000      520     1800     2100   
                                         GEOM     BASIS   MCVARS    GRID      RKS  

 PROGRAMS   *        TOTAL        KS       INT
 CPU TIMES  *         3.06      2.72      0.19
 REAL TIME  *         6.47 SEC
 DISK USED  *        34.83 MB      
 **********************************************************************************************************************************


 PROGRAM * Intrinsic Basis Bonding Analysis (IBBA)          Author: G. Knizia

 Molecular orbitals read from record     2100.2  Type=RKS/CANONICAL (state 1.1)
 Fock matrix read from record            2100.2  Type=RKS/TOTAL (state 1.1)
 Orbital energies read from record       2100.2  Type=RKS/CANONICAL (state 1.1)
 Density matrix read from record         2100.2  Type=RKS/CHARGE (state 1.1)

 Number of core orbitals:           2 (   2 )
 Number of closed-shell orbitals:   6 (   6 )
 Number of active  orbitals:        1 (   1 )

 Basis set MINAO-AUTO-PP generated.      Number of basis functions:   13 

 Polarized AO type:                A = (O Ot + (1-O)(1-Ot)) P12
 Orthogonalization method:         Symmetric (Loewdin)
 Localization functional:          L = sum[A,i] <i|n_A|i>^4 -> max

 Localization group 1:   8 orbitals, occupancy  2.000
 Iterative localization: IB/PM,    6 iter; Final gradient 0.13E-09

 Bond order analysis:       [THRPRINT= 0.020]

   CEN ATOM   CEN ATOM     WIBERG.BO      RENORM.BO
     1   O  -   2   C       1.167289       2.024131
     1   O  -   3   H       0.062740       0.666319
     1   O  -   4   H       0.048394       0.134351
     1   O  -   5   H       0.048394       0.134351

     2   C  -   1   O       1.167289       2.024131
     2   C  -   5   H       0.929525       0.935165
     2   C  -   4   H       0.929525       0.935165
     2   C  -   3   H       0.887734       0.998936

     3   H  -   2   C       0.887734       0.998936
     3   H  -   1   O       0.062740       0.666319

     4   H  -   2   C       0.929525       0.935165
     4   H  -   1   O       0.048394       0.134351

     5   H  -   2   C       0.929525       0.935165
     5   H  -   1   O       0.048394       0.134351


 Valency analysis:

   CEN ATOM   TOT.VALENCE
     1   O       1.326817
     2   C       3.914072
     3   H       0.959826
     4   H       0.982834
     5   H       0.982834
 Localization group 2:   1 orbitals, occupancy  1.000
 Iterative localization: IB/PM,    1 iter; Final gradient 0.00E+00

 Bond order analysis:       [THRPRINT= 0.020]

   CEN ATOM   CEN ATOM     WIBERG.BO      RENORM.BO
     1   O  -   3   H       0.095287       0.500000


     3   H  -   1   O       0.095287       0.500000




 Valency analysis:

   CEN ATOM   TOT.VALENCE
     1   O       0.152598
     2   C       0.019698
     3   H       0.098535
     4   H       0.021082
     5   H       0.021082

 Total charge composition:

   CEN ATOM         s          p       ELECTRONS ->P.CHARGE
     1   O       3.81513    4.30214      8.11727   -0.11727
     2   C       3.01442    3.25751      6.27193   -0.27193
     3   H       0.85153                 0.85153    0.14847
     4   H       0.87963                 0.87963    0.12037
     5   H       0.87963                 0.87963    0.12037

 Total charge composition, AO contributions:

   CEN ATOM SHL      SPHERICAL COMPONENTS
     1   O  1s       1.99817
     1   O  2s       1.81696
     1   O  2p       1.03894    1.32690    1.93629

     2   C  1s       1.99228
     2   C  2s       1.02214
     2   C  2p       1.16597    0.91225    1.17929

     3   H  1s       0.85153

     4   H  1s       0.87963

     5   H  1s       0.87963

 Active orbital charges:

   CEN ATOM         s          p       ELECTRONS ->SPIN.DEN
     1   O       0.00000    0.91677      0.91677    0.91677
     2   C       0.00000    0.00995      0.00995    0.00995
     3   H       0.05197                 0.05197    0.05197
     4   H       0.01065                 0.01065    0.01065
     5   H       0.01065                 0.01065    0.01065

 Active orbital charges, AO contributions:

   CEN ATOM SHL      SPHERICAL COMPONENTS
     1   O  1s       0.00000
     1   O  2s       0.00000
     1   O  2p       0.90107    0.01571    0.00000

     2   C  1s       0.00000
     2   C  2s       0.00000
     2   C  2p       0.00983    0.00012    0.00000

     3   H  1s       0.05197

     4   H  1s       0.01065

     5   H  1s       0.01065

 Summary of localized orbital composition:   [THRPRINT= 0.020]

   ORB  GRP  ORB.ENERGY      CENTERS/CHARGES
     1   1   -18.516462      O  1   2.000
     2   1    -9.816244      C  2   2.000
     3   1    -0.693280      O  1   1.150   C  2   0.850
     4   1    -0.667007      O  1   1.997
     5   1    -0.478241      C  2   1.117   H  3   0.796   O  1   0.085
     6   1    -0.466560      C  2   1.135   H  4   0.847
     7   1    -0.466560      C  2   1.135   H  5   0.847
     8   1    -0.118527      O  1   1.936   C  2   0.024   H  5   0.020   H  4   0.020
     9   2    -0.098354      O  1   0.917   H  3   0.052   (other: 0.031)

 Localized orbitals saved to record      2100.2  (orbital set 2)


 **********************************************************************************************************************************
 DATASETS  * FILE   NREC   LENGTH (MB)   RECORD NAMES
              1      20       30.67       500      610      700      900      950      970     1000      129      960     1100   
                                          VAR    BASINP    GEOM    SYMINP    ZMAT    AOBASIS   BASIS     P2S    ABASIS      S 
                                         1400     1410     1200     1210     1080     1600     1650     1300     1700     1800   
                                           T        V       H0       H01     AOSYM     SMH    MOLCAS    ERIS     OPER     GRID   

              2       5        2.82       700     1000      520     1800     2100   
                                         GEOM     BASIS   MCVARS    GRID      RKS  

 PROGRAMS   *        TOTAL      IBBA        KS       INT
 CPU TIMES  *         3.08      0.02      2.72      0.19
 REAL TIME  *         6.54 SEC
 DISK USED  *        34.83 MB      
 **********************************************************************************************************************************
 Molecular orbitals read from record     2100.2  Type=RKS/LOCAL(IBO)  
 Occupation numbers read from record     2100.2  Type=RKS/LOCAL(IBO)  
 Orbital energies read from record       2100.2  Type=RKS/LOCAL(IBO)  
 Redundancy group numbers read from rec  2100.2  Type=RKS/LOCAL(IBO)  

 IBBA/STO-3G energy=      0.000000000000

        KS-SCF  
   -113.50456891
 **********************************************************************************************************************************
 Molpro calculation terminated
