
 Primary working directories    : /tmp/sb13343
 Secondary working directories  : /tmp/sb13343
 Wavefunction directory         : /panfs/panasas01/chem/sb13343/wfu/
 Main file repository           : /tmp/sb13343/

 SHA1      : b4a5b34a9e711420743f49e6833241d17c61fb3c
 NAME      : 2099.9.b4a5b34
 ARCHNAME  : linux/x86_64_openmp
 FC        : /cm/shared/languages/GCC-6.1/bin/gfortran
 BLASLIB   : -lblas
 id        : simonbennie

 Nodes     nprocs
 node35-048    1

 Using customized tuning parameters: mindgm=1; mindgv=20; mindgc=4; mindgr=1; noblas=0; minvec=7
 default implementation of scratch files=df  

 memory,500,m
 geomtyp=xyz
 nosym
 noorient
 geometry={
 O         -0.07179        0.79048        0.00000
 C          0.07053       -0.57065        0.00000
 H         -0.96431       -0.97345        0.00000
 H          0.55775       -0.96326        0.90880
 H          0.55775       -0.96326       -0.90880
 }
 basis={ default,sto-3g }
 {uks,B-LYP,direct;wf,17,1,1}
 {ibba,bonds=1}

 Variables initialized (895), CPU time= 0.00 sec
 Commands  initialized (725), CPU time= 0.01 sec, 591 directives.
 Default parameters read. Elapsed time= 0.14 sec

 Checking input...
 Passed
1


                                         ***  PROGRAM SYSTEM MOLPRO  ***
                                       Copyright, TTI GmbH Stuttgart, 2015
                                    Version 2099.9 linked May 26 2017 16:03:21


 **********************************************************************************************************************************
 LABEL *                                                                                 
  64 bit serial version                                                                  DATE: 08-Jun-17          TIME: 02:50:53  
 **********************************************************************************************************************************

 SHA1:             b4a5b34a9e711420743f49e6833241d17c61fb3c
 **********************************************************************************************************************************
 SETTING GEOMTYP        =    XYZ

 Variable memory set to  500000000 words,  buffer space 

 ZSYMEL=NOSYM

 SETTING BASIS          =    STO-3G


 Recomputing integrals since basis changed


 Using spherical harmonics

 Library entry O      S STO-3G               selected for orbital group  1
 Library entry O      P STO-3G               selected for orbital group  1
 Library entry C      S STO-3G               selected for orbital group  2
 Library entry C      P STO-3G               selected for orbital group  2
 Library entry H      S STO-3G               selected for orbital group  3


 PROGRAM * SEWARD (Integral evaluation for generally contracted gaussian basis sets)     Author: Roland Lindh, 1990

 Geometry written to block  1 of record 700


 Point group  C1  



 ATOMIC COORDINATES

 NR  ATOM    CHARGE       X              Y              Z

   1  O       8.00   -0.135663438    1.493790707    0.000000000
   2  C       6.00    0.133282384   -1.078372213    0.000000000
   3  H       1.00   -1.822281799   -1.839553896    0.000000000
   4  H       1.00    1.053994746   -1.820297587    1.717383102
   5  H       1.00    1.053994746   -1.820297587   -1.717383102

 Bond lengths in Bohr (Angstrom)

 1-2  2.586185210  2-3  2.098482506  2-4  2.085082548  2-5  2.085082548
     ( 1.368550276)     ( 1.110469120)     ( 1.103378167)     ( 1.103378167)

 Bond angles

  1-2-3  105.29875708   1-2-4  113.56671130   1-2-5  113.56671130   3-2-4  106.40524792

  3-2-5  106.40524792   4-2-5  110.90419060

 NUCLEAR CHARGE:                   17
 NUMBER OF PRIMITIVE AOS:          39
 NUMBER OF SYMMETRY AOS:           39
 NUMBER OF CONTRACTIONS:           13   (  13A   )
 NUMBER OF CORE ORBITALS:           2   (   2A   )
 NUMBER OF VALENCE ORBITALS:       11   (  11A   )


 NUCLEAR REPULSION ENERGY   34.28824494


 Eigenvalues of metric

         1 0.234E+00 0.369E+00 0.377E+00 0.408E+00 0.839E+00 0.959E+00 0.965E+00 0.968E+00


 Contracted 2-electron integrals neglected if value below      1.0D-11
 AO integral compression algorithm  1   Integral accuracy      1.0D-11

     0.262 MB (compressed) written to integral file (100.0%)


 NUMBER OF SORTED TWO-ELECTRON INTEGRALS:       4186.     BUFFER LENGTH:  32768
 NUMBER OF SEGMENTS:   1  SEGMENT LENGTH:       4186      RECORD LENGTH: 524288

 Memory used in sort:       0.56 MW

 SORT1 READ        5522. AND WROTE        3217. INTEGRALS IN      1 RECORDS. CPU TIME:     0.00 SEC, REAL TIME:     0.00 SEC
 SORT2 READ        3217. AND WROTE        4186. INTEGRALS IN      1 RECORDS. CPU TIME:     0.01 SEC, REAL TIME:     0.01 SEC

 FILE SIZES:   FILE 1:    30.3 MBYTE,  FILE 4:     4.2 MBYTE,   TOTAL:     34.5 MBYTE

 OPERATOR DM      FOR CENTER  0  COORDINATES:    0.000000    0.000000    0.000000


 **********************************************************************************************************************************
 DATASETS  * FILE   NREC   LENGTH (MB)   RECORD NAMES
              1      19       30.03       500      610      700      900      950      970     1000      129      960     1100   
                                          VAR    BASINP    GEOM    SYMINP    ZMAT    AOBASIS   BASIS     P2S    ABASIS      S 
                                         1400     1410     1200     1210     1080     1600     1650     1300     1700   
                                           T        V       H0       H01     AOSYM     SMH    MOLCAS    ERIS     OPER   

 PROGRAMS   *        TOTAL       INT
 CPU TIMES  *         0.34      0.20
 REAL TIME  *         0.77 SEC
 DISK USED  *        34.83 MB      
 **********************************************************************************************************************************

 Density functional group B-LYP=B88+LYP
 Functional: B88(Automatically generated (new) B88)                            Gradient terms: 1
 Functional: LYP(Automatically generated (new) LYP)                            Gradient terms: 1
 Use grid at  1800.2

 Functional: B88                       Factor:  1.0000
 Functional: LYP                       Factor:  1.0000

 Generated new metagrid on record  1800.2 with target accuracy 1.0D-06 and 19990 points in CPU time    0.5
 Computed new grid on record 1800.1 in CPU time    0.5
   14331 words reserved for DFT integration

 PROGRAM * UKS-SCF (Unrestricted Kohn-Sham)     Authors: W. Meyer, H.-J. Werner, P.J. Knowles, 1993

 NUMBER OF ELECTRONS:       9+    8-    SPACE SYMMETRY=1    SPIN SYMMETRY: Doublet 
 CONVERGENCE THRESHOLDS:    1.00E-05 (Density)    1.00E-06 (Energy)
 MAX. NUMBER OF ITERATIONS:       60
 INTERPOLATION TYPE:            DIIS
 INTERPOLATION STEPS:              2 (START)      1 (STEP)
 LEVEL SHIFTS:                 -0.20 (ALPHA)  -0.20 (BETA) 



 Use fine grid record 1800.2 for energy threshold  1.0D-06
 Orbital guess generated from atomic densities. Full valence occupancy:    9

 Molecular orbital dump at record        2200.2

 Initial alpha occupation   9
 Initial beta  occupation   8

 ITERATION    DDIFF          GRAD             ENERGY        2-EL.EN.            DIPOLE MOMENTS         DIIS
    1      0.000D+00      0.000D+00      -113.41200170    183.992130   -0.05555   -1.41562    0.00000    0
    2      0.541D-01      0.198D-01      -113.46853403    180.746212   -0.05118   -0.46751    0.00000    1
    3      0.591D-02      0.312D-02      -113.47030166    180.802445   -0.03863   -0.49238    0.00000    2
    4      0.284D-02      0.174D-02      -113.47093481    180.802863   -0.03727   -0.46792    0.00000    3
    5      0.222D-02      0.741D-03      -113.47111224    180.782470   -0.03484   -0.46342    0.00000    4
    6      0.635D-03      0.197D-03      -113.47112473    180.779507   -0.03471   -0.46092    0.00000    5
    7      0.101D-03      0.338D-04      -113.47112512    180.779655   -0.03478   -0.46097    0.00000    6
    8      0.166D-04      0.823D-05      -113.47112515    180.779660   -0.03477   -0.46098    0.00000    6
    9      0.481D-05      0.138D-05      -113.47112515    180.779632   -0.03478   -0.46097    0.00000    6
   10      0.640D-06      0.242D-06      -113.47112515    180.779636   -0.03478   -0.46097    0.00000    5

 Final alpha occupancy:   9
 Final beta  occupancy:   8

 !UKS STATE 1.1 Energy               -113.471125145757
 Nuclear energy                        34.28824494
 One-electron energy                 -223.05086935
 Two-electron energy                   90.38981820
 Density functional                   -15.09831893     B88=-14.54067709 LYP= -0.55764184
 Virial quotient                       -1.01297312
 !UKS STATE 1.1 Dipole moment          -0.03478043    -0.46097123     0.00000000
 Dipole moment /Debye                  -0.08839724    -1.17159527     0.00000000

 Orbital energies for positive spin:

         1.1          2.1          3.1          4.1          5.1          6.1          7.1          8.1          9.1         10.1
    -18.535081    -9.797756    -0.852823    -0.547579    -0.364199    -0.353275    -0.265518    -0.152525    -0.085932     0.329921

        11.1
      0.377076

 Orbital energies for negative spin:

         1.1          2.1          3.1          4.1          5.1          6.1          7.1          8.1          9.1         10.1
    -18.521316    -9.798615    -0.811515    -0.535140    -0.350912    -0.347657    -0.242725    -0.061902    -0.034618     0.345133

        11.1
      0.384862

 HOMO     -8.1    -0.061902 =      -1.6844eV
 LUMO     -9.1    -0.034618 =      -0.9420eV
 LUMO-HOMO         0.027284 =       0.7424eV

 EXPECTATION VALUE OF S**2:             0.75126921

 Occupation number threshold for canonical orbitals:  1.999000 (occupied),  0.001000 (virtual)

 Number of pseudo-canonical orbitals per symmetry:    8
 Number of active natural orbitals per symmetry:      1

 Natural orbitals saved to record    2200.2 (Orbital set 3)

 Orbital spaces for UNO-CAS (Min. occupation: 0.020  Max. occupation: 1.980):

 Closed:        8
 Active:        1


 **********************************************************************************************************************************
 DATASETS  * FILE   NREC   LENGTH (MB)   RECORD NAMES
              1      20       30.67       500      610      700      900      950      970     1000      129      960     1100   
                                          VAR    BASINP    GEOM    SYMINP    ZMAT    AOBASIS   BASIS     P2S    ABASIS      S 
                                         1400     1410     1200     1210     1080     1600     1650     1300     1700     1800   
                                           T        V       H0       H01     AOSYM     SMH    MOLCAS    ERIS     OPER     GRID   

              2       5        2.83       700     1000      520     1800     2200   
                                         GEOM     BASIS   MCVARS    GRID      UKS  

 PROGRAMS   *        TOTAL       UKS       INT
 CPU TIMES  *         1.46      1.12      0.20
 REAL TIME  *         2.79 SEC
 DISK USED  *        34.83 MB      
 **********************************************************************************************************************************


 PROGRAM * Intrinsic Basis Bonding Analysis (IBBA)          Author: G. Knizia

 Molecular orbitals read from record     2200.2  Type=UKS/ALPHA (state 1.1)
 Fock matrix read from record            2200.2  Type=UKS/TOTAL (state 1.1)
 Orbital energies read from record       2200.2  Type=UKS/ALPHA (state 1.1)
 Density matrix read from record         2200.2  Type=UKS/CHARGE (state 1.1)

 Number of core orbitals:           2 (   2 )
 Number of closed-shell orbitals:   6 (   6 )
 Number of active  orbitals:        1 (   1 )

 Basis set MINAO-AUTO-PP generated.      Number of basis functions:   13 

 Polarized AO type:                A = (O Ot + (1-O)(1-Ot)) P12
 Orthogonalization method:         Symmetric (Loewdin)
 Localization functional:          L = sum[A,i] <i|n_A|i>^4 -> max

 Localization group 1:   8 orbitals, occupancy  2.000
 Iterative localization: IB/PM,    6 iter; Final gradient 0.11E-08

 Bond order analysis:       [THRPRINT= 0.020]

   CEN ATOM   CEN ATOM     WIBERG.BO      RENORM.BO
     1   O  -   2   C       1.190405       2.017698
     1   O  -   5   H       0.062116       0.437614
     1   O  -   4   H       0.062116       0.437614
     1   O  -   3   H       0.033681       0.018652

     2   C  -   1   O       1.190405       2.017698
     2   C  -   3   H       0.959686       0.941622
     2   C  -   4   H       0.884628       0.982840
     2   C  -   5   H       0.884628       0.982840

     3   H  -   2   C       0.959686       0.941622
     3   H  -   1   O       0.033681       0.018652

     4   H  -   2   C       0.884628       0.982840
     4   H  -   1   O       0.062116       0.437614

     5   H  -   2   C       0.884628       0.982840
     5   H  -   1   O       0.062116       0.437614


 Valency analysis:

   CEN ATOM   TOT.VALENCE
     1   O       1.348318
     2   C       3.919347
     3   H       0.994338
     4   H       0.959093
     5   H       0.959093
 Localization group 2:   1 orbitals, occupancy  1.000
 Iterative localization: IB/PM,    1 iter; Final gradient 0.00E+00

 Bond order analysis:       [THRPRINT= 0.020]

   CEN ATOM   CEN ATOM     WIBERG.BO      RENORM.BO
     1   O  -   5   H       0.089742       0.500000
     1   O  -   4   H       0.089742       0.500000
     1   O  -   2   C       0.020662       0.500000

     2   C  -   1   O       0.020662       0.500000


     4   H  -   1   O       0.089742       0.500000

     5   H  -   1   O       0.089742       0.500000


 Valency analysis:

   CEN ATOM   TOT.VALENCE
     1   O       0.200145
     2   C       0.023017
     3   H       0.000000
     4   H       0.096035
     5   H       0.096035

 Total charge composition:

   CEN ATOM         s          p       ELECTRONS ->P.CHARGE
     1   O       3.82270    4.33620      8.15890   -0.15890
     2   C       2.99611    3.22359      6.21970   -0.21970
     3   H       0.92475                 0.92475    0.07525
     4   H       0.84832                 0.84832    0.15168
     5   H       0.84832                 0.84832    0.15168

 Total charge composition, AO contributions:

   CEN ATOM SHL      SPHERICAL COMPONENTS
     1   O  1s       1.99820
     1   O  2s       1.82450
     1   O  2p       1.94594    1.34925    1.04101

     2   C  1s       1.99271
     2   C  2s       1.00340
     2   C  2p       1.15336    0.90122    1.16901

     3   H  1s       0.92475

     4   H  1s       0.84832

     5   H  1s       0.84832

 Active orbital charges:

   CEN ATOM         s          p       ELECTRONS ->SPIN.DEN
     1   O       0.00000    0.88720      0.88720    0.88720
     2   C       0.00000    0.01164      0.01164    0.01164
     3   H       0.00000                 0.00000    0.00000
     4   H       0.05058                 0.05058    0.05058
     5   H       0.05058                 0.05058    0.05058

 Active orbital charges, AO contributions:

   CEN ATOM SHL      SPHERICAL COMPONENTS
     1   O  1s       0.00000
     1   O  2s       0.00000
     1   O  2p       0.00000    0.00000    0.88720

     2   C  1s       0.00000
     2   C  2s       0.00000
     2   C  2p       0.00000    0.00000    0.01164

     3   H  1s       0.00000

     4   H  1s       0.05058

     5   H  1s       0.05058

 Summary of localized orbital composition:   [THRPRINT= 0.020]

   ORB  GRP  ORB.ENERGY      CENTERS/CHARGES
     1   1   -18.354516      O  1   2.000
     2   1    -9.693695      C  2   2.000
     3   1    -0.651213      O  1   1.165   C  2   0.835
     4   1    -0.611235      O  1   1.997
     5   1    -0.442438      C  2   1.131   H  5   0.789   O  1   0.077
     6   1    -0.442438      C  2   1.131   H  4   0.789   O  1   0.077
     7   1    -0.438091      C  2   1.092   H  3   0.906
     8   1    -0.121015      O  1   1.956   (other: 0.044)
     9   2    -0.073953      O  1   0.887   H  5   0.051   H  4   0.051

 Localized orbitals saved to record      2200.2  (orbital set 4)


 **********************************************************************************************************************************
 DATASETS  * FILE   NREC   LENGTH (MB)   RECORD NAMES
              1      20       30.67       500      610      700      900      950      970     1000      129      960     1100   
                                          VAR    BASINP    GEOM    SYMINP    ZMAT    AOBASIS   BASIS     P2S    ABASIS      S 
                                         1400     1410     1200     1210     1080     1600     1650     1300     1700     1800   
                                           T        V       H0       H01     AOSYM     SMH    MOLCAS    ERIS     OPER     GRID   

              2       5        2.83       700     1000      520     1800     2200   
                                         GEOM     BASIS   MCVARS    GRID      UKS  

 PROGRAMS   *        TOTAL      IBBA       UKS       INT
 CPU TIMES  *         1.48      0.02      1.12      0.20
 REAL TIME  *         2.92 SEC
 DISK USED  *        34.83 MB      
 **********************************************************************************************************************************
 Molecular orbitals read from record     2200.2  Type=UKS/LOCAL(IBO)  
 Occupation numbers read from record     2200.2  Type=UKS/LOCAL(IBO)  
 Orbital energies read from record       2200.2  Type=UKS/LOCAL(IBO)  
 Redundancy group numbers read from rec  2200.2  Type=UKS/BETA (state 1.1)

 IBBA/STO-3G energy=      0.000000000000

        UKS-SCF 
   -113.47112515
 **********************************************************************************************************************************
 Molpro calculation terminated
