
 Primary working directories    : /tmp/sb13343
 Secondary working directories  : /tmp/sb13343
 Wavefunction directory         : /panfs/panasas01/chem/sb13343/wfu/
 Main file repository           : /tmp/sb13343/

 SHA1      : b4a5b34a9e711420743f49e6833241d17c61fb3c
 NAME      : 2099.9.b4a5b34
 ARCHNAME  : linux/x86_64_openmp
 FC        : /cm/shared/languages/GCC-6.1/bin/gfortran
 BLASLIB   : -lblas
 id        : simonbennie

 Nodes     nprocs
 node32-007    1

 Using customized tuning parameters: mindgm=1; mindgv=20; mindgc=4; mindgr=1; noblas=0; minvec=7
 default implementation of scratch files=df  

 memory,500,m
 geomtyp=xyz
 nosym
 noorient
 geometry={
 C         -0.00146        0.79548        0.00000
 C          0.02225       -0.69390        0.00000
 H         -0.99481       -1.12636        0.00000
 H         -0.09300        1.35197        0.92746
 H         -0.09300        1.35197       -0.92746
 H          0.52802       -1.09351        0.88764
 H          0.52802       -1.09351       -0.88764
 }
 basis={ default,svp }
 {uks,SLATER,direct;wf,17,1,1}
 {ibba,bonds=1}

 Variables initialized (895), CPU time= 0.00 sec
 Commands  initialized (725), CPU time= 0.01 sec, 591 directives.
 Default parameters read. Elapsed time= 0.08 sec

 Checking input...
 Passed
1


                                         ***  PROGRAM SYSTEM MOLPRO  ***
                                       Copyright, TTI GmbH Stuttgart, 2015
                                    Version 2099.9 linked May 26 2017 16:03:21


 **********************************************************************************************************************************
 LABEL *                                                                                 
  64 bit serial version                                                                  DATE: 08-Jun-17          TIME: 05:02:37  
 **********************************************************************************************************************************

 SHA1:             b4a5b34a9e711420743f49e6833241d17c61fb3c
 **********************************************************************************************************************************
 SETTING GEOMTYP        =    XYZ

 Variable memory set to  500000000 words,  buffer space 

 ZSYMEL=NOSYM

 SETTING BASIS          =    SVP


 Recomputing integrals since basis changed


 Using spherical harmonics

 Library entry C      S def2-SVP             selected for orbital group  1
 Library entry C      P def2-SVP             selected for orbital group  1
 Library entry C      D def2-SVP             selected for orbital group  1
 Library entry H      S def2-SVP             selected for orbital group  2
 Library entry H      P def2-SVP             selected for orbital group  2


 PROGRAM * SEWARD (Integral evaluation for generally contracted gaussian basis sets)     Author: Roland Lindh, 1990

 Geometry written to block  1 of record 700


 Point group  C1  



 ATOMIC COORDINATES

 NR  ATOM    CHARGE       X              Y              Z

   1  C       6.00   -0.002759000    1.503239338    0.000000000
   2  C       6.00    0.042046406   -1.311280958    0.000000000
   3  H       1.00   -1.879918446   -2.128511918    0.000000000
   4  H       1.00   -0.175744530    2.554853029    1.752645391
   5  H       1.00   -0.175744530    2.554853029   -1.752645391
   6  H       1.00    0.997813188   -2.066434414    1.677396497
   7  H       1.00    0.997813188   -2.066434414   -1.677396497

 Bond lengths in Bohr (Angstrom)

 1-2  2.814876910  1-4  2.051238947  1-5  2.051238947  2-3  2.088495950  2-6  2.073018546
     ( 1.489568712)     ( 1.085468905)     ( 1.085468905)     ( 1.105184462)     ( 1.096994173)

 2-7  2.073018546
     ( 1.096994173)

 Bond angles

  1-2-3  112.12345176   1-2-6  111.81246303   1-2-7  111.81246303   2-1-4  120.92728687

  2-1-5  120.92728687   3-2-6  106.36442052   3-2-7  106.36442052   4-1-5  117.39421083

  6-2-7  108.02720793

 NUCLEAR CHARGE:                   17
 NUMBER OF PRIMITIVE AOS:          85
 NUMBER OF SYMMETRY AOS:           83
 NUMBER OF CONTRACTIONS:           53   (  53A   )
 NUMBER OF CORE ORBITALS:           2   (   2A   )
 NUMBER OF VALENCE ORBITALS:       13   (  13A   )


 NUCLEAR REPULSION ENERGY   36.86300145


 Eigenvalues of metric

         1 0.525E-02 0.232E-01 0.271E-01 0.397E-01 0.503E-01 0.635E-01 0.102E+00 0.110E+00


 Contracted 2-electron integrals neglected if value below      1.0D-11
 AO integral compression algorithm  1   Integral accuracy      1.0D-11

     5.243 MB (compressed) written to integral file ( 52.3%)


 NUMBER OF SORTED TWO-ELECTRON INTEGRALS:    1024596.     BUFFER LENGTH:  32768
 NUMBER OF SEGMENTS:   1  SEGMENT LENGTH:    1024596      RECORD LENGTH: 524288

 Memory used in sort:       1.58 MW

 SORT1 READ     1206537. AND WROTE      940164. INTEGRALS IN      3 RECORDS. CPU TIME:     0.01 SEC, REAL TIME:     0.03 SEC
 SORT2 READ      940164. AND WROTE     1024596. INTEGRALS IN     20 RECORDS. CPU TIME:     0.06 SEC, REAL TIME:     0.07 SEC

 FILE SIZES:   FILE 1:    35.4 MBYTE,  FILE 4:    12.6 MBYTE,   TOTAL:     48.0 MBYTE

 OPERATOR DM      FOR CENTER  0  COORDINATES:    0.000000    0.000000    0.000000


 **********************************************************************************************************************************
 DATASETS  * FILE   NREC   LENGTH (MB)   RECORD NAMES
              1      19       34.42       500      610      700      900      950      970     1000      129      960     1100   
                                          VAR    BASINP    GEOM    SYMINP    ZMAT    AOBASIS   BASIS     P2S    ABASIS      S 
                                         1400     1410     1200     1210     1080     1600     1650     1300     1700   
                                           T        V       H0       H01     AOSYM     SMH    MOLCAS    ERIS     OPER   

 PROGRAMS   *        TOTAL       INT
 CPU TIMES  *         0.61      0.47
 REAL TIME  *         0.98 SEC
 DISK USED  *        48.39 MB      
 **********************************************************************************************************************************

 Density functional group SLATER=DIRAC
 Functional: DIRAC(Automatically generated (new) DIRAC)                        Gradient terms: 0
 Use grid at  1800.2

 Functional: DIRAC                     Factor:  1.0000

 Generated new metagrid on record  1800.2 with target accuracy 1.0D-06 and 23794 points in CPU time    0.5
 Computed new grid on record 1800.1 in CPU time    0.6
   25820 words reserved for DFT integration

 PROGRAM * UKS-SCF (Unrestricted Kohn-Sham)     Authors: W. Meyer, H.-J. Werner, P.J. Knowles, 1993

 NUMBER OF ELECTRONS:       9+    8-    SPACE SYMMETRY=1    SPIN SYMMETRY: Doublet 
 CONVERGENCE THRESHOLDS:    1.00E-05 (Density)    1.00E-06 (Energy)
 MAX. NUMBER OF ITERATIONS:       60
 INTERPOLATION TYPE:            DIIS
 INTERPOLATION STEPS:              2 (START)      1 (STEP)
 LEVEL SHIFTS:                 -0.20 (ALPHA)  -0.20 (BETA) 



 Use fine grid record 1800.2 for energy threshold  1.0D-06
 Orbital guess generated from atomic densities. Full valence occupancy:    9

 Molecular orbital dump at record        2200.2

 Initial alpha occupation   9
 Initial beta  occupation   8

 ITERATION    DDIFF          GRAD             ENERGY        2-EL.EN.            DIPOLE MOMENTS         DIIS
    1      0.000D+00      0.000D+00       -77.15541755    154.926310   -0.11937   -0.27259    0.00000    0
    2      0.187D-01      0.893D-02       -77.26044317    146.030170   -0.05681   -0.16393    0.00000    1
    3      0.622D-02      0.436D-02       -77.28464150    148.423130   -0.06782   -0.16623    0.00000    2
    4      0.154D-02      0.426D-03       -77.28516548    148.362040   -0.06438   -0.15697    0.00000    3
    5      0.857D-03      0.204D-03       -77.28530399    148.330833   -0.06094   -0.14530    0.00000    4
    6      0.390D-03      0.906D-04       -77.28533874    148.330868   -0.05916   -0.13968    0.00000    5
    7      0.921D-04      0.340D-04       -77.28534265    148.328662   -0.05844   -0.13728    0.00000    6
    8      0.289D-04      0.853D-05       -77.28534295    148.328686   -0.05821   -0.13696    0.00000    7
    9      0.606D-05      0.127D-05       -77.28534296    148.328364   -0.05821   -0.13693    0.00000    6
   10      0.129D-05      0.448D-06       -77.28534296    148.328664   -0.05820   -0.13695    0.00000    7

 Final alpha occupancy:   9
 Final beta  occupancy:   8

 !UKS STATE 1.1 Energy                -77.285342962552
 Nuclear energy                        36.86300145
 One-electron energy                 -177.53470017
 Two-electron energy                   74.16433194
 Density functional                   -10.77797619     DIRAC=-10.77797619
 Virial quotient                       -0.99665601
 !UKS STATE 1.1 Dipole moment          -0.05820236    -0.13694998     0.00000000
 Dipole moment /Debye                  -0.14792596    -0.34806934     0.00000000

 Orbital energies for positive spin:

         1.1          2.1          3.1          4.1          5.1          6.1          7.1          8.1          9.1         10.1
     -9.720860    -9.709652    -0.624714    -0.486227    -0.354275    -0.319824    -0.303759    -0.261681    -0.122550     0.082088

        11.1
      0.114739

 Orbital energies for negative spin:

         1.1          2.1          3.1          4.1          5.1          6.1          7.1          8.1          9.1         10.1
     -9.710842    -9.703274    -0.606655    -0.461704    -0.342829    -0.305707    -0.289223    -0.253056    -0.036945     0.087837

        11.1
      0.125888

 HOMO      9.1    -0.122550 =      -3.3347eV
 LUMO     -9.1    -0.036945 =      -1.0053eV
 LUMO-HOMO         0.085605 =       2.3294eV

 EXPECTATION VALUE OF S**2:             0.75448448

 Occupation number threshold for canonical orbitals:  1.999000 (occupied),  0.001000 (virtual)

 Number of pseudo-canonical orbitals per symmetry:    7
 Number of active natural orbitals per symmetry:      3

 Natural orbitals saved to record    2200.2 (Orbital set 3)

 Orbital spaces for UNO-CAS (Min. occupation: 0.020  Max. occupation: 1.980):

 Closed:        8
 Active:        1


 **********************************************************************************************************************************
 DATASETS  * FILE   NREC   LENGTH (MB)   RECORD NAMES
              1      20       35.18       500      610      700      900      950      970     1000      129      960     1100   
                                          VAR    BASINP    GEOM    SYMINP    ZMAT    AOBASIS   BASIS     P2S    ABASIS      S 
                                         1400     1410     1200     1210     1080     1600     1650     1300     1700     1800   
                                           T        V       H0       H01     AOSYM     SMH    MOLCAS    ERIS     OPER     GRID   

              2       5        2.98       700     1000      520     1800     2200   
                                         GEOM     BASIS   MCVARS    GRID      UKS  

 PROGRAMS   *        TOTAL       UKS       INT
 CPU TIMES  *         2.93      2.32      0.47
 REAL TIME  *         3.39 SEC
 DISK USED  *        48.39 MB      
 **********************************************************************************************************************************


 PROGRAM * Intrinsic Basis Bonding Analysis (IBBA)          Author: G. Knizia

 Molecular orbitals read from record     2200.2  Type=UKS/ALPHA (state 1.1)
 Fock matrix read from record            2200.2  Type=UKS/TOTAL (state 1.1)
 Orbital energies read from record       2200.2  Type=UKS/ALPHA (state 1.1)
 Density matrix read from record         2200.2  Type=UKS/CHARGE (state 1.1)

 Number of core orbitals:           2 (   2 )
 Number of closed-shell orbitals:   6 (   6 )
 Number of active  orbitals:        1 (   1 )

 Basis set MINAO-AUTO-PP generated.      Number of basis functions:   15 

 Polarized AO type:                A = (O Ot + (1-O)(1-Ot)) P12
 Orthogonalization method:         Symmetric (Loewdin)
 Localization functional:          L = sum[A,i] <i|n_A|i>^4 -> max

 Localization group 1:   8 orbitals, occupancy  2.000
 Iterative localization: IB/PM,    6 iter; Final gradient 0.84E-08

 Bond order analysis:       [THRPRINT= 0.020]

   CEN ATOM   CEN ATOM     WIBERG.BO      RENORM.BO
     1   C  -   2   C       1.267447       2.021467
     1   C  -   5   H       0.953654       0.981750
     1   C  -   4   H       0.953654       0.981750
     1   C  -   3   H       0.101932       0.606111
     1   C  -   6   H       0.024653       0.129375
     1   C  -   7   H       0.024653       0.129375

     2   C  -   1   C       1.267447       2.021467
     2   C  -   7   H       0.925572       0.987335
     2   C  -   6   H       0.925572       0.987335
     2   C  -   3   H       0.825296       0.998519

     3   H  -   2   C       0.825296       0.998519
     3   H  -   1   C       0.101932       0.606111

     4   H  -   1   C       0.953654       0.981750

     5   H  -   1   C       0.953654       0.981750

     6   H  -   2   C       0.925572       0.987335
     6   H  -   1   C       0.024653       0.129375

     7   H  -   2   C       0.925572       0.987335
     7   H  -   1   C       0.024653       0.129375


 Valency analysis:

   CEN ATOM   TOT.VALENCE
     1   C       3.325993
     2   C       3.946602
     3   H       0.943789
     4   H       0.970394
     5   H       0.970394
     6   H       0.972161
     7   H       0.972161
 Localization group 2:   1 orbitals, occupancy  1.000
 Iterative localization: IB/PM,    1 iter; Final gradient 0.00E+00

 Bond order analysis:       [THRPRINT= 0.020]

   CEN ATOM   CEN ATOM     WIBERG.BO      RENORM.BO
     1   C  -   3   H       0.133062       0.500000
     1   C  -   2   C       0.039564       0.500000
     1   C  -   6   H       0.029273       0.500000
     1   C  -   7   H       0.029273       0.500000

     2   C  -   1   C       0.039564       0.500000

     3   H  -   1   C       0.133062       0.500000



     6   H  -   1   C       0.029273       0.500000

     7   H  -   1   C       0.029273       0.500000


 Valency analysis:

   CEN ATOM   TOT.VALENCE
     1   C       0.232322
     2   C       0.044651
     3   H       0.141871
     4   H       0.000663
     5   H       0.000663
     6   H       0.033238
     7   H       0.033238

 Total charge composition:

   CEN ATOM         s          p       ELECTRONS ->P.CHARGE
     1   C       3.08125    3.37238      6.45362   -0.45362
     2   C       2.98892    3.36106      6.34998   -0.34998
     3   H       0.83975                 0.83975    0.16025
     4   H       0.82827                 0.82827    0.17173
     5   H       0.82827                 0.82827    0.17173
     6   H       0.85005                 0.85005    0.14995
     7   H       0.85005                 0.85005    0.14995

 Total charge composition, AO contributions:

   CEN ATOM SHL      SPHERICAL COMPONENTS
     1   C  1s       1.99324
     1   C  2s       1.08801
     1   C  2p       1.08298    1.09078    1.19862

     2   C  1s       1.99204
     2   C  2s       0.99689
     2   C  2p       1.12938    1.05687    1.17480

     3   H  1s       0.83975

     4   H  1s       0.82827

     5   H  1s       0.82827

     6   H  1s       0.85005

     7   H  1s       0.85005

 Active orbital charges:

   CEN ATOM         s          p       ELECTRONS ->SPIN.DEN
     1   C       0.00225    0.86359      0.86584    0.86584
     2   C       0.00007    0.02278      0.02285    0.02285
     3   H       0.07684                 0.07684    0.07684
     4   H       0.00033                 0.00033    0.00033
     5   H       0.00033                 0.00033    0.00033
     6   H       0.01690                 0.01690    0.01690
     7   H       0.01690                 0.01690    0.01690

 Active orbital charges, AO contributions:

   CEN ATOM SHL      SPHERICAL COMPONENTS
     1   C  1s       0.00000
     1   C  2s       0.00225
     1   C  2p       0.85997    0.00362    0.00000

     2   C  1s       0.00000
     2   C  2s       0.00006
     2   C  2p       0.02267    0.00012    0.00000

     3   H  1s       0.07684

     4   H  1s       0.00033

     5   H  1s       0.00033

     6   H  1s       0.01690

     7   H  1s       0.01690

 Summary of localized orbital composition:   [THRPRINT= 0.020]

   ORB  GRP  ORB.ENERGY      CENTERS/CHARGES
     1   1    -9.610824      C  1   2.000
     2   1    -9.602098      C  2   2.000
     3   1    -0.499809      C  1   1.019   C  2   0.977
     4   1    -0.412508      C  1   1.172   H  4   0.821
     5   1    -0.412508      C  1   1.172   H  5   0.821
     6   1    -0.398507      C  2   1.089   H  3   0.756   C  1   0.151
     7   1    -0.393803      C  2   1.127   H  7   0.827   C  1   0.037
     8   1    -0.393803      C  2   1.127   H  6   0.827   C  1   0.037
     9   2    -0.079893      C  1   0.866   H  3   0.077   C  2   0.023   (other: 0.034)

 Localized orbitals saved to record      2200.2  (orbital set 4)


 **********************************************************************************************************************************
 DATASETS  * FILE   NREC   LENGTH (MB)   RECORD NAMES
              1      20       35.18       500      610      700      900      950      970     1000      129      960     1100   
                                          VAR    BASINP    GEOM    SYMINP    ZMAT    AOBASIS   BASIS     P2S    ABASIS      S 
                                         1400     1410     1200     1210     1080     1600     1650     1300     1700     1800   
                                           T        V       H0       H01     AOSYM     SMH    MOLCAS    ERIS     OPER     GRID   

              2       5        3.00       700     1000      520     1800     2200   
                                         GEOM     BASIS   MCVARS    GRID      UKS  

 PROGRAMS   *        TOTAL      IBBA       UKS       INT
 CPU TIMES  *         2.95      0.02      2.32      0.47
 REAL TIME  *         3.46 SEC
 DISK USED  *        48.39 MB      
 **********************************************************************************************************************************
 Molecular orbitals read from record     2200.2  Type=UKS/LOCAL(IBO)  
 Occupation numbers read from record     2200.2  Type=UKS/LOCAL(IBO)  
 Orbital energies read from record       2200.2  Type=UKS/LOCAL(IBO)  
 Redundancy group numbers read from rec  2200.2  Type=UKS/BETA (state 1.1)

 IBBA/SVP energy=      0.000000000000

        UKS-SCF 
    -77.28534296
 **********************************************************************************************************************************
 Molpro calculation terminated
