
 Primary working directories    : /tmp/sb13343
 Secondary working directories  : /tmp/sb13343
 Wavefunction directory         : /panfs/panasas01/chem/sb13343/wfu/
 Main file repository           : /tmp/sb13343/

 SHA1      : b4a5b34a9e711420743f49e6833241d17c61fb3c
 NAME      : 2099.9.b4a5b34
 ARCHNAME  : linux/x86_64_openmp
 FC        : /cm/shared/languages/GCC-6.1/bin/gfortran
 BLASLIB   : -lblas
 id        : simonbennie

 Nodes     nprocs
 node32-007    1

 Using customized tuning parameters: mindgm=1; mindgv=20; mindgc=4; mindgr=1; noblas=0; minvec=7
 default implementation of scratch files=df  

 memory,500,m
 geomtyp=xyz
 nosym
 noorient
 geometry={
 C         -0.00146        0.79548        0.00000
 C          0.02225       -0.69390        0.00000
 H         -0.99481       -1.12636        0.00000
 H         -0.09300        1.35197        0.92746
 H         -0.09300        1.35197       -0.92746
 H          0.52802       -1.09351        0.88764
 H          0.52802       -1.09351       -0.88764
 }
 basis={ default,svp }
 {uks,PBE,direct;wf,17,1,1}
 {ibba,bonds=1}

 Variables initialized (895), CPU time= 0.00 sec
 Commands  initialized (725), CPU time= 0.02 sec, 591 directives.
 Default parameters read. Elapsed time= 3.33 sec

 Checking input...
 Passed
1


                                         ***  PROGRAM SYSTEM MOLPRO  ***
                                       Copyright, TTI GmbH Stuttgart, 2015
                                    Version 2099.9 linked May 26 2017 16:03:21


 **********************************************************************************************************************************
 LABEL *                                                                                 
  64 bit serial version                                                                  DATE: 08-Jun-17          TIME: 04:59:31  
 **********************************************************************************************************************************

 SHA1:             b4a5b34a9e711420743f49e6833241d17c61fb3c
 **********************************************************************************************************************************
 SETTING GEOMTYP        =    XYZ

 Variable memory set to  500000000 words,  buffer space 

 ZSYMEL=NOSYM

 SETTING BASIS          =    SVP


 Recomputing integrals since basis changed


 Using spherical harmonics

 Library entry C      S def2-SVP             selected for orbital group  1
 Library entry C      P def2-SVP             selected for orbital group  1
 Library entry C      D def2-SVP             selected for orbital group  1
 Library entry H      S def2-SVP             selected for orbital group  2
 Library entry H      P def2-SVP             selected for orbital group  2


 PROGRAM * SEWARD (Integral evaluation for generally contracted gaussian basis sets)     Author: Roland Lindh, 1990

 Geometry written to block  1 of record 700


 Point group  C1  



 ATOMIC COORDINATES

 NR  ATOM    CHARGE       X              Y              Z

   1  C       6.00   -0.002759000    1.503239338    0.000000000
   2  C       6.00    0.042046406   -1.311280958    0.000000000
   3  H       1.00   -1.879918446   -2.128511918    0.000000000
   4  H       1.00   -0.175744530    2.554853029    1.752645391
   5  H       1.00   -0.175744530    2.554853029   -1.752645391
   6  H       1.00    0.997813188   -2.066434414    1.677396497
   7  H       1.00    0.997813188   -2.066434414   -1.677396497

 Bond lengths in Bohr (Angstrom)

 1-2  2.814876910  1-4  2.051238947  1-5  2.051238947  2-3  2.088495950  2-6  2.073018546
     ( 1.489568712)     ( 1.085468905)     ( 1.085468905)     ( 1.105184462)     ( 1.096994173)

 2-7  2.073018546
     ( 1.096994173)

 Bond angles

  1-2-3  112.12345176   1-2-6  111.81246303   1-2-7  111.81246303   2-1-4  120.92728687

  2-1-5  120.92728687   3-2-6  106.36442052   3-2-7  106.36442052   4-1-5  117.39421083

  6-2-7  108.02720793

 NUCLEAR CHARGE:                   17
 NUMBER OF PRIMITIVE AOS:          85
 NUMBER OF SYMMETRY AOS:           83
 NUMBER OF CONTRACTIONS:           53   (  53A   )
 NUMBER OF CORE ORBITALS:           2   (   2A   )
 NUMBER OF VALENCE ORBITALS:       13   (  13A   )


 NUCLEAR REPULSION ENERGY   36.86300145


 Eigenvalues of metric

         1 0.525E-02 0.232E-01 0.271E-01 0.397E-01 0.503E-01 0.635E-01 0.102E+00 0.110E+00


 Contracted 2-electron integrals neglected if value below      1.0D-11
 AO integral compression algorithm  1   Integral accuracy      1.0D-11

     5.243 MB (compressed) written to integral file ( 52.3%)


 NUMBER OF SORTED TWO-ELECTRON INTEGRALS:    1024596.     BUFFER LENGTH:  32768
 NUMBER OF SEGMENTS:   1  SEGMENT LENGTH:    1024596      RECORD LENGTH: 524288

 Memory used in sort:       1.58 MW

 SORT1 READ     1206537. AND WROTE      940164. INTEGRALS IN      3 RECORDS. CPU TIME:     0.01 SEC, REAL TIME:     0.03 SEC
 SORT2 READ      940164. AND WROTE     1024596. INTEGRALS IN     20 RECORDS. CPU TIME:     0.06 SEC, REAL TIME:     0.07 SEC

 FILE SIZES:   FILE 1:    35.4 MBYTE,  FILE 4:    12.6 MBYTE,   TOTAL:     48.0 MBYTE

 OPERATOR DM      FOR CENTER  0  COORDINATES:    0.000000    0.000000    0.000000


 **********************************************************************************************************************************
 DATASETS  * FILE   NREC   LENGTH (MB)   RECORD NAMES
              1      19       34.42       500      610      700      900      950      970     1000      129      960     1100   
                                          VAR    BASINP    GEOM    SYMINP    ZMAT    AOBASIS   BASIS     P2S    ABASIS      S 
                                         1400     1410     1200     1210     1080     1600     1650     1300     1700   
                                           T        V       H0       H01     AOSYM     SMH    MOLCAS    ERIS     OPER   

 PROGRAMS   *        TOTAL       INT
 CPU TIMES  *         0.54      0.39
 REAL TIME  *         4.27 SEC
 DISK USED  *        48.39 MB      
 **********************************************************************************************************************************

 Density functional group PBE=PBEX+PBEC
 Functional: PBEX(Automatically generated (new) PBEX)                          Gradient terms: 1
 Functional: PBEC(Automatically generated (new) PBEC)                          Gradient terms: 1
 Use grid at  1800.2

 Functional: PBEX                      Factor:  1.0000
 Functional: PBEC                      Factor:  1.0000

 Generated new metagrid on record  1800.2 with target accuracy 1.0D-06 and 23794 points in CPU time    0.5
 Computed new grid on record 1800.1 in CPU time    0.6
   46013 words reserved for DFT integration

 PROGRAM * UKS-SCF (Unrestricted Kohn-Sham)     Authors: W. Meyer, H.-J. Werner, P.J. Knowles, 1993

 NUMBER OF ELECTRONS:       9+    8-    SPACE SYMMETRY=1    SPIN SYMMETRY: Doublet 
 CONVERGENCE THRESHOLDS:    1.00E-05 (Density)    1.00E-06 (Energy)
 MAX. NUMBER OF ITERATIONS:       60
 INTERPOLATION TYPE:            DIIS
 INTERPOLATION STEPS:              2 (START)      1 (STEP)
 LEVEL SHIFTS:                 -0.20 (ALPHA)  -0.20 (BETA) 



 Use fine grid record 1800.2 for energy threshold  1.0D-06
 Orbital guess generated from atomic densities. Full valence occupancy:    9

 Molecular orbital dump at record        2200.2

 Initial alpha occupation   9
 Initial beta  occupation   8

 ITERATION    DDIFF          GRAD             ENERGY        2-EL.EN.            DIPOLE MOMENTS         DIIS
    1      0.000D+00      0.000D+00       -78.85081630    155.361248   -0.11199   -0.24362    0.00000    0
    2      0.183D-01      0.873D-02       -78.95403255    146.893827   -0.05293   -0.14449    0.00000    1
    3      0.585D-02      0.397D-02       -78.97423337    149.037960   -0.06374   -0.14629    0.00000    2
    4      0.146D-02      0.400D-03       -78.97470099    148.975172   -0.06076   -0.13827    0.00000    3
    5      0.757D-03      0.180D-03       -78.97480715    148.949456   -0.05804   -0.12876    0.00000    4
    6      0.352D-03      0.694D-04       -78.97483347    148.947392   -0.05632   -0.12316    0.00000    5
    7      0.734D-04      0.268D-04       -78.97483593    148.946165   -0.05580   -0.12118    0.00000    6
    8      0.203D-04      0.670D-05       -78.97483611    148.946097   -0.05562   -0.12093    0.00000    6
    9      0.490D-05      0.119D-05       -78.97483611    148.946466   -0.05562   -0.12088    0.00000    6
   10      0.130D-05      0.364D-06       -78.97483611    148.946199   -0.05561   -0.12089    0.00000    7

 Final alpha occupancy:   9
 Final beta  occupancy:   8

 !UKS STATE 1.1 Energy                -78.974836112504
 Nuclear energy                        36.86300145
 One-electron energy                 -177.78038607
 Two-electron energy                   74.47309938
 Density functional                   -12.53055087     PBEX=-12.00366883 PBEC= -0.52688205
 Virial quotient                       -1.01237342
 !UKS STATE 1.1 Dipole moment          -0.05560594    -0.12088584     0.00000000
 Dipole moment /Debye                  -0.14132696    -0.30724104     0.00000000

 Orbital energies for positive spin:

         1.1          2.1          3.1          4.1          5.1          6.1          7.1          8.1          9.1         10.1
     -9.899724    -9.893659    -0.675014    -0.536773    -0.398158    -0.364136    -0.346028    -0.309670    -0.162914     0.054052

        11.1
      0.083310

 Orbital energies for negative spin:

         1.1          2.1          3.1          4.1          5.1          6.1          7.1          8.1          9.1         10.1
     -9.894434    -9.886023    -0.660885    -0.516682    -0.391633    -0.352804    -0.338032    -0.305084    -0.076078     0.058024

        11.1
      0.093353

 HOMO      9.1    -0.162914 =      -4.4331eV
 LUMO     -9.1    -0.076078 =      -2.0702eV
 LUMO-HOMO         0.086836 =       2.3629eV

 EXPECTATION VALUE OF S**2:             0.75341676

 Occupation number threshold for canonical orbitals:  1.999000 (occupied),  0.001000 (virtual)

 Number of pseudo-canonical orbitals per symmetry:    7
 Number of active natural orbitals per symmetry:      3

 Natural orbitals saved to record    2200.2 (Orbital set 3)

 Orbital spaces for UNO-CAS (Min. occupation: 0.020  Max. occupation: 1.980):

 Closed:        8
 Active:        1


 **********************************************************************************************************************************
 DATASETS  * FILE   NREC   LENGTH (MB)   RECORD NAMES
              1      20       35.18       500      610      700      900      950      970     1000      129      960     1100   
                                          VAR    BASINP    GEOM    SYMINP    ZMAT    AOBASIS   BASIS     P2S    ABASIS      S 
                                         1400     1410     1200     1210     1080     1600     1650     1300     1700     1800   
                                           T        V       H0       H01     AOSYM     SMH    MOLCAS    ERIS     OPER     GRID   

              2       5        2.98       700     1000      520     1800     2200   
                                         GEOM     BASIS   MCVARS    GRID      UKS  

 PROGRAMS   *        TOTAL       UKS       INT
 CPU TIMES  *         4.06      3.51      0.39
 REAL TIME  *         8.12 SEC
 DISK USED  *        48.39 MB      
 **********************************************************************************************************************************


 PROGRAM * Intrinsic Basis Bonding Analysis (IBBA)          Author: G. Knizia

 Molecular orbitals read from record     2200.2  Type=UKS/ALPHA (state 1.1)
 Fock matrix read from record            2200.2  Type=UKS/TOTAL (state 1.1)
 Orbital energies read from record       2200.2  Type=UKS/ALPHA (state 1.1)
 Density matrix read from record         2200.2  Type=UKS/CHARGE (state 1.1)

 Number of core orbitals:           2 (   2 )
 Number of closed-shell orbitals:   6 (   6 )
 Number of active  orbitals:        1 (   1 )

 Basis set MINAO-AUTO-PP generated.      Number of basis functions:   15 

 Polarized AO type:                A = (O Ot + (1-O)(1-Ot)) P12
 Orthogonalization method:         Symmetric (Loewdin)
 Localization functional:          L = sum[A,i] <i|n_A|i>^4 -> max

 Localization group 1:   8 orbitals, occupancy  2.000
 Iterative localization: IB/PM,    6 iter; Final gradient 0.37E-08

 Bond order analysis:       [THRPRINT= 0.020]

   CEN ATOM   CEN ATOM     WIBERG.BO      RENORM.BO
     1   C  -   2   C       1.244894       2.021186
     1   C  -   5   H       0.957742       0.982278
     1   C  -   4   H       0.957742       0.982278
     1   C  -   3   H       0.095233       0.619554
     1   C  -   6   H       0.022435       0.130546
     1   C  -   7   H       0.022435       0.130546

     2   C  -   1   C       1.244894       2.021186
     2   C  -   7   H       0.931853       0.987860
     2   C  -   6   H       0.931853       0.987860
     2   C  -   3   H       0.839987       0.998588

     3   H  -   2   C       0.839987       0.998588
     3   H  -   1   C       0.095233       0.619554

     4   H  -   1   C       0.957742       0.982278

     5   H  -   1   C       0.957742       0.982278

     6   H  -   2   C       0.931853       0.987860
     6   H  -   1   C       0.022435       0.130546

     7   H  -   2   C       0.931853       0.987860
     7   H  -   1   C       0.022435       0.130546


 Valency analysis:

   CEN ATOM   TOT.VALENCE
     1   C       3.300480
     2   C       3.950661
     3   H       0.948361
     4   H       0.973343
     5   H       0.973343
     6   H       0.973944
     7   H       0.973944
 Localization group 2:   1 orbitals, occupancy  1.000
 Iterative localization: IB/PM,    1 iter; Final gradient 0.00E+00

 Bond order analysis:       [THRPRINT= 0.020]

   CEN ATOM   CEN ATOM     WIBERG.BO      RENORM.BO
     1   C  -   3   H       0.128158       0.500000
     1   C  -   2   C       0.032084       0.500000
     1   C  -   6   H       0.027912       0.500000
     1   C  -   7   H       0.027912       0.500000

     2   C  -   1   C       0.032084       0.500000

     3   H  -   1   C       0.128158       0.500000



     6   H  -   1   C       0.027912       0.500000

     7   H  -   1   C       0.027912       0.500000


 Valency analysis:

   CEN ATOM   TOT.VALENCE
     1   C       0.217178
     2   C       0.035953
     3   H       0.135591
     4   H       0.000635
     5   H       0.000635
     6   H       0.031353
     7   H       0.031353

 Total charge composition:

   CEN ATOM         s          p       ELECTRONS ->P.CHARGE
     1   C       3.09192    3.33025      6.42217   -0.42217
     2   C       3.00572    3.34308      6.34880   -0.34880
     3   H       0.84590                 0.84590    0.15410
     4   H       0.83705                 0.83705    0.16295
     5   H       0.83705                 0.83705    0.16295
     6   H       0.85451                 0.85451    0.14549
     7   H       0.85451                 0.85451    0.14549

 Total charge composition, AO contributions:

   CEN ATOM SHL      SPHERICAL COMPONENTS
     1   C  1s       1.99241
     1   C  2s       1.09951
     1   C  2p       1.07215    1.07685    1.18125

     2   C  1s       1.99104
     2   C  2s       1.01468
     2   C  2p       1.12520    1.05256    1.16531

     3   H  1s       0.84590

     4   H  1s       0.83705

     5   H  1s       0.83705

     6   H  1s       0.85451

     7   H  1s       0.85451

 Active orbital charges:

   CEN ATOM         s          p       ELECTRONS ->SPIN.DEN
     1   C       0.00234    0.87370      0.87605    0.87605
     2   C       0.00006    0.01825      0.01831    0.01831
     3   H       0.07315                 0.07315    0.07315
     4   H       0.00032                 0.00032    0.00032
     5   H       0.00032                 0.00032    0.00032
     6   H       0.01593                 0.01593    0.01593
     7   H       0.01593                 0.01593    0.01593

 Active orbital charges, AO contributions:

   CEN ATOM SHL      SPHERICAL COMPONENTS
     1   C  1s       0.00000
     1   C  2s       0.00234
     1   C  2p       0.86994    0.00376    0.00000

     2   C  1s       0.00000
     2   C  2s       0.00006
     2   C  2p       0.01811    0.00014    0.00000

     3   H  1s       0.07315

     4   H  1s       0.00032

     5   H  1s       0.00032

     6   H  1s       0.01593

     7   H  1s       0.01593

 Summary of localized orbital composition:   [THRPRINT= 0.020]

   ORB  GRP  ORB.ENERGY      CENTERS/CHARGES
     1   1    -9.788254      C  1   2.000
     2   1    -9.781845      C  2   2.000
     3   1    -0.545375      C  1   1.016   C  2   0.981
     4   1    -0.465311      C  1   1.163   H  4   0.831
     5   1    -0.465311      C  1   1.163   H  5   0.831
     6   1    -0.447644      C  2   1.092   H  3   0.768   C  1   0.137
     7   1    -0.443880      C  2   1.125   H  7   0.833   C  1   0.034
     8   1    -0.443880      C  2   1.125   H  6   0.833   C  1   0.034
     9   2    -0.119124      C  1   0.876   H  3   0.073   (other: 0.051)

 Localized orbitals saved to record      2200.2  (orbital set 4)


 **********************************************************************************************************************************
 DATASETS  * FILE   NREC   LENGTH (MB)   RECORD NAMES
              1      20       35.18       500      610      700      900      950      970     1000      129      960     1100   
                                          VAR    BASINP    GEOM    SYMINP    ZMAT    AOBASIS   BASIS     P2S    ABASIS      S 
                                         1400     1410     1200     1210     1080     1600     1650     1300     1700     1800   
                                           T        V       H0       H01     AOSYM     SMH    MOLCAS    ERIS     OPER     GRID   

              2       5        3.00       700     1000      520     1800     2200   
                                         GEOM     BASIS   MCVARS    GRID      UKS  

 PROGRAMS   *        TOTAL      IBBA       UKS       INT
 CPU TIMES  *         4.08      0.03      3.51      0.39
 REAL TIME  *         8.19 SEC
 DISK USED  *        48.39 MB      
 **********************************************************************************************************************************
 Molecular orbitals read from record     2200.2  Type=UKS/LOCAL(IBO)  
 Occupation numbers read from record     2200.2  Type=UKS/LOCAL(IBO)  
 Orbital energies read from record       2200.2  Type=UKS/LOCAL(IBO)  
 Redundancy group numbers read from rec  2200.2  Type=UKS/BETA (state 1.1)

 IBBA/SVP energy=      0.000000000000

        UKS-SCF 
    -78.97483611
 **********************************************************************************************************************************
 Molpro calculation terminated
