
 Primary working directories    : /tmp/sb13343
 Secondary working directories  : /tmp/sb13343
 Wavefunction directory         : /panfs/panasas01/chem/sb13343/wfu/
 Main file repository           : /tmp/sb13343/

 SHA1      : b4a5b34a9e711420743f49e6833241d17c61fb3c
 NAME      : 2099.9.b4a5b34
 ARCHNAME  : linux/x86_64_openmp
 FC        : /cm/shared/languages/GCC-6.1/bin/gfortran
 BLASLIB   : -lblas
 id        : simonbennie

 Nodes     nprocs
 node32-007    1

 Using customized tuning parameters: mindgm=1; mindgv=20; mindgc=4; mindgr=1; noblas=0; minvec=7
 default implementation of scratch files=df  

 memory,500,m
 geomtyp=xyz
 nosym
 noorient
 geometry={
 C         -0.00146        0.79548        0.00000
 C          0.02225       -0.69390        0.00000
 H         -0.99481       -1.12636        0.00000
 H         -0.09300        1.35197        0.92746
 H         -0.09300        1.35197       -0.92746
 H          0.52802       -1.09351        0.88764
 H          0.52802       -1.09351       -0.88764
 }
 basis={ default,svp }
 {uks,B-LYP,direct;wf,17,1,1}
 {ibba,bonds=1}

 Variables initialized (895), CPU time= 0.00 sec
 Commands  initialized (725), CPU time= 0.02 sec, 591 directives.
 Default parameters read. Elapsed time= 0.08 sec

 Checking input...
 Passed
1


                                         ***  PROGRAM SYSTEM MOLPRO  ***
                                       Copyright, TTI GmbH Stuttgart, 2015
                                    Version 2099.9 linked May 26 2017 16:03:21


 **********************************************************************************************************************************
 LABEL *                                                                                 
  64 bit serial version                                                                  DATE: 08-Jun-17          TIME: 04:51:25  
 **********************************************************************************************************************************

 SHA1:             b4a5b34a9e711420743f49e6833241d17c61fb3c
 **********************************************************************************************************************************
 SETTING GEOMTYP        =    XYZ

 Variable memory set to  500000000 words,  buffer space 

 ZSYMEL=NOSYM

 SETTING BASIS          =    SVP


 Recomputing integrals since basis changed


 Using spherical harmonics

 Library entry C      S def2-SVP             selected for orbital group  1
 Library entry C      P def2-SVP             selected for orbital group  1
 Library entry C      D def2-SVP             selected for orbital group  1
 Library entry H      S def2-SVP             selected for orbital group  2
 Library entry H      P def2-SVP             selected for orbital group  2


 PROGRAM * SEWARD (Integral evaluation for generally contracted gaussian basis sets)     Author: Roland Lindh, 1990

 Geometry written to block  1 of record 700


 Point group  C1  



 ATOMIC COORDINATES

 NR  ATOM    CHARGE       X              Y              Z

   1  C       6.00   -0.002759000    1.503239338    0.000000000
   2  C       6.00    0.042046406   -1.311280958    0.000000000
   3  H       1.00   -1.879918446   -2.128511918    0.000000000
   4  H       1.00   -0.175744530    2.554853029    1.752645391
   5  H       1.00   -0.175744530    2.554853029   -1.752645391
   6  H       1.00    0.997813188   -2.066434414    1.677396497
   7  H       1.00    0.997813188   -2.066434414   -1.677396497

 Bond lengths in Bohr (Angstrom)

 1-2  2.814876910  1-4  2.051238947  1-5  2.051238947  2-3  2.088495950  2-6  2.073018546
     ( 1.489568712)     ( 1.085468905)     ( 1.085468905)     ( 1.105184462)     ( 1.096994173)

 2-7  2.073018546
     ( 1.096994173)

 Bond angles

  1-2-3  112.12345176   1-2-6  111.81246303   1-2-7  111.81246303   2-1-4  120.92728687

  2-1-5  120.92728687   3-2-6  106.36442052   3-2-7  106.36442052   4-1-5  117.39421083

  6-2-7  108.02720793

 NUCLEAR CHARGE:                   17
 NUMBER OF PRIMITIVE AOS:          85
 NUMBER OF SYMMETRY AOS:           83
 NUMBER OF CONTRACTIONS:           53   (  53A   )
 NUMBER OF CORE ORBITALS:           2   (   2A   )
 NUMBER OF VALENCE ORBITALS:       13   (  13A   )


 NUCLEAR REPULSION ENERGY   36.86300145


 Eigenvalues of metric

         1 0.525E-02 0.232E-01 0.271E-01 0.397E-01 0.503E-01 0.635E-01 0.102E+00 0.110E+00


 Contracted 2-electron integrals neglected if value below      1.0D-11
 AO integral compression algorithm  1   Integral accuracy      1.0D-11

     5.243 MB (compressed) written to integral file ( 52.3%)


 NUMBER OF SORTED TWO-ELECTRON INTEGRALS:    1024596.     BUFFER LENGTH:  32768
 NUMBER OF SEGMENTS:   1  SEGMENT LENGTH:    1024596      RECORD LENGTH: 524288

 Memory used in sort:       1.58 MW

 SORT1 READ     1206537. AND WROTE      940164. INTEGRALS IN      3 RECORDS. CPU TIME:     0.02 SEC, REAL TIME:     0.03 SEC
 SORT2 READ      940164. AND WROTE     1024596. INTEGRALS IN     20 RECORDS. CPU TIME:     0.06 SEC, REAL TIME:     0.06 SEC

 FILE SIZES:   FILE 1:    35.4 MBYTE,  FILE 4:    12.6 MBYTE,   TOTAL:     48.0 MBYTE

 OPERATOR DM      FOR CENTER  0  COORDINATES:    0.000000    0.000000    0.000000


 **********************************************************************************************************************************
 DATASETS  * FILE   NREC   LENGTH (MB)   RECORD NAMES
              1      19       34.42       500      610      700      900      950      970     1000      129      960     1100   
                                          VAR    BASINP    GEOM    SYMINP    ZMAT    AOBASIS   BASIS     P2S    ABASIS      S 
                                         1400     1410     1200     1210     1080     1600     1650     1300     1700   
                                           T        V       H0       H01     AOSYM     SMH    MOLCAS    ERIS     OPER   

 PROGRAMS   *        TOTAL       INT
 CPU TIMES  *         0.66      0.52
 REAL TIME  *         0.99 SEC
 DISK USED  *        48.39 MB      
 **********************************************************************************************************************************

 Density functional group B-LYP=B88+LYP
 Functional: B88(Automatically generated (new) B88)                            Gradient terms: 1
 Functional: LYP(Automatically generated (new) LYP)                            Gradient terms: 1
 Use grid at  1800.2

 Functional: B88                       Factor:  1.0000
 Functional: LYP                       Factor:  1.0000

 Generated new metagrid on record  1800.2 with target accuracy 1.0D-06 and 23794 points in CPU time    0.5
 Computed new grid on record 1800.1 in CPU time    0.6
   46013 words reserved for DFT integration

 PROGRAM * UKS-SCF (Unrestricted Kohn-Sham)     Authors: W. Meyer, H.-J. Werner, P.J. Knowles, 1993

 NUMBER OF ELECTRONS:       9+    8-    SPACE SYMMETRY=1    SPIN SYMMETRY: Doublet 
 CONVERGENCE THRESHOLDS:    1.00E-05 (Density)    1.00E-06 (Energy)
 MAX. NUMBER OF ITERATIONS:       60
 INTERPOLATION TYPE:            DIIS
 INTERPOLATION STEPS:              2 (START)      1 (STEP)
 LEVEL SHIFTS:                 -0.20 (ALPHA)  -0.20 (BETA) 



 Use fine grid record 1800.2 for energy threshold  1.0D-06
 Orbital guess generated from atomic densities. Full valence occupancy:    9

 Molecular orbital dump at record        2200.2

 Initial alpha occupation   9
 Initial beta  occupation   8

 ITERATION    DDIFF          GRAD             ENERGY        2-EL.EN.            DIPOLE MOMENTS         DIIS
    1      0.000D+00      0.000D+00       -78.90205822    155.709364   -0.10926   -0.23510    0.00000    0
    2      0.197D-01      0.914D-02       -79.01520877    146.702175   -0.04929   -0.13646    0.00000    1
    3      0.627D-02      0.423D-02       -79.03838521    149.035408   -0.06074   -0.14025    0.00000    2
    4      0.151D-02      0.405D-03       -79.03884259    148.977002   -0.05787   -0.13335    0.00000    3
    5      0.795D-03      0.174D-03       -79.03894289    148.949519   -0.05521   -0.12446    0.00000    4
    6      0.356D-03      0.684D-04       -79.03896519    148.946775   -0.05369   -0.11960    0.00000    5
    7      0.801D-04      0.259D-04       -79.03896738    148.945568   -0.05316   -0.11776    0.00000    6
    8      0.213D-04      0.658D-05       -79.03896754    148.945439   -0.05300   -0.11752    0.00000    6
    9      0.507D-05      0.113D-05       -79.03896755    148.945785   -0.05298   -0.11747    0.00000    6
   10      0.137D-05      0.320D-06       -79.03896755    148.945533   -0.05297   -0.11747    0.00000    7

 Final alpha occupancy:   9
 Final beta  occupancy:   8

 !UKS STATE 1.1 Energy                -79.038967545835
 Nuclear energy                        36.86300145
 One-electron energy                 -177.77339154
 Two-electron energy                   74.47276625
 Density functional                   -12.60134371     B88=-12.08518260 LYP= -0.51616111
 Virial quotient                       -1.01251805
 !UKS STATE 1.1 Dipole moment          -0.05297128    -0.11747140     0.00000000
 Dipole moment /Debye                  -0.13463075    -0.29856297     0.00000000

 Orbital energies for positive spin:

         1.1          2.1          3.1          4.1          5.1          6.1          7.1          8.1          9.1         10.1
     -9.924261    -9.921569    -0.666079    -0.529984    -0.392676    -0.359005    -0.340191    -0.306527    -0.155086     0.052651

        11.1
      0.082018

 Orbital energies for negative spin:

         1.1          2.1          3.1          4.1          5.1          6.1          7.1          8.1          9.1         10.1
     -9.922258    -9.911697    -0.653317    -0.511726    -0.387013    -0.348444    -0.333033    -0.302420    -0.076102     0.055067

        11.1
      0.091387

 HOMO      9.1    -0.155086 =      -4.2201eV
 LUMO     -9.1    -0.076102 =      -2.0708eV
 LUMO-HOMO         0.078985 =       2.1493eV

 EXPECTATION VALUE OF S**2:             0.75304051

 Occupation number threshold for canonical orbitals:  1.999000 (occupied),  0.001000 (virtual)

 Number of pseudo-canonical orbitals per symmetry:    8
 Number of active natural orbitals per symmetry:      1

 Natural orbitals saved to record    2200.2 (Orbital set 3)

 Orbital spaces for UNO-CAS (Min. occupation: 0.020  Max. occupation: 1.980):

 Closed:        8
 Active:        1


 **********************************************************************************************************************************
 DATASETS  * FILE   NREC   LENGTH (MB)   RECORD NAMES
              1      20       35.18       500      610      700      900      950      970     1000      129      960     1100   
                                          VAR    BASINP    GEOM    SYMINP    ZMAT    AOBASIS   BASIS     P2S    ABASIS      S 
                                         1400     1410     1200     1210     1080     1600     1650     1300     1700     1800   
                                           T        V       H0       H01     AOSYM     SMH    MOLCAS    ERIS     OPER     GRID   

              2       5        2.98       700     1000      520     1800     2200   
                                         GEOM     BASIS   MCVARS    GRID      UKS  

 PROGRAMS   *        TOTAL       UKS       INT
 CPU TIMES  *         4.11      3.45      0.52
 REAL TIME  *         4.87 SEC
 DISK USED  *        48.39 MB      
 **********************************************************************************************************************************


 PROGRAM * Intrinsic Basis Bonding Analysis (IBBA)          Author: G. Knizia

 Molecular orbitals read from record     2200.2  Type=UKS/ALPHA (state 1.1)
 Fock matrix read from record            2200.2  Type=UKS/TOTAL (state 1.1)
 Orbital energies read from record       2200.2  Type=UKS/ALPHA (state 1.1)
 Density matrix read from record         2200.2  Type=UKS/CHARGE (state 1.1)

 Number of core orbitals:           2 (   2 )
 Number of closed-shell orbitals:   6 (   6 )
 Number of active  orbitals:        1 (   1 )

 Basis set MINAO-AUTO-PP generated.      Number of basis functions:   15 

 Polarized AO type:                A = (O Ot + (1-O)(1-Ot)) P12
 Orthogonalization method:         Symmetric (Loewdin)
 Localization functional:          L = sum[A,i] <i|n_A|i>^4 -> max

 Localization group 1:   8 orbitals, occupancy  2.000
 Iterative localization: IB/PM,    6 iter; Final gradient 0.28E-08

 Bond order analysis:       [THRPRINT= 0.020]

   CEN ATOM   CEN ATOM     WIBERG.BO      RENORM.BO
     1   C  -   2   C       1.227784       2.020914
     1   C  -   5   H       0.960943       0.982935
     1   C  -   4   H       0.960943       0.982935
     1   C  -   3   H       0.090725       0.624254
     1   C  -   6   H       0.021316       0.132090
     1   C  -   7   H       0.021316       0.132090

     2   C  -   1   C       1.227784       2.020914
     2   C  -   7   H       0.937076       0.988264
     2   C  -   6   H       0.937076       0.988264
     2   C  -   3   H       0.851968       0.998577

     3   H  -   2   C       0.851968       0.998577
     3   H  -   1   C       0.090725       0.624254

     4   H  -   1   C       0.960943       0.982935

     5   H  -   1   C       0.960943       0.982935

     6   H  -   2   C       0.937076       0.988264
     6   H  -   1   C       0.021316       0.132090

     7   H  -   2   C       0.937076       0.988264
     7   H  -   1   C       0.021316       0.132090


 Valency analysis:

   CEN ATOM   TOT.VALENCE
     1   C       3.283027
     2   C       3.955749
     3   H       0.954748
     4   H       0.976028
     5   H       0.976028
     6   H       0.977100
     7   H       0.977100
 Localization group 2:   1 orbitals, occupancy  1.000
 Iterative localization: IB/PM,    1 iter; Final gradient 0.00E+00

 Bond order analysis:       [THRPRINT= 0.020]

   CEN ATOM   CEN ATOM     WIBERG.BO      RENORM.BO
     1   C  -   3   H       0.124621       0.500000
     1   C  -   2   C       0.027175       0.500000
     1   C  -   6   H       0.027046       0.500000
     1   C  -   7   H       0.027046       0.500000

     2   C  -   1   C       0.027175       0.500000

     3   H  -   1   C       0.124621       0.500000



     6   H  -   1   C       0.027046       0.500000

     7   H  -   1   C       0.027046       0.500000


 Valency analysis:

   CEN ATOM   TOT.VALENCE
     1   C       0.207013
     2   C       0.030310
     3   H       0.131210
     4   H       0.000637
     5   H       0.000637
     6   H       0.030169
     7   H       0.030169

 Total charge composition:

   CEN ATOM         s          p       ELECTRONS ->P.CHARGE
     1   C       3.08630    3.31023      6.39653   -0.39653
     2   C       3.00189    3.32476      6.32664   -0.32664
     3   H       0.85786                 0.85786    0.14214
     4   H       0.84549                 0.84549    0.15451
     5   H       0.84549                 0.84549    0.15451
     6   H       0.86399                 0.86399    0.13601
     7   H       0.86399                 0.86399    0.13601

 Total charge composition, AO contributions:

   CEN ATOM SHL      SPHERICAL COMPONENTS
     1   C  1s       1.99242
     1   C  2s       1.09388
     1   C  2p       1.06454    1.07289    1.17280

     2   C  1s       1.99104
     2   C  2s       1.01084
     2   C  2p       1.11842    1.05024    1.15609

     3   H  1s       0.85786

     4   H  1s       0.84549

     5   H  1s       0.84549

     6   H  1s       0.86399

     7   H  1s       0.86399

 Active orbital charges:

   CEN ATOM         s          p       ELECTRONS ->SPIN.DEN
     1   C       0.00245    0.88029      0.88274    0.88274
     2   C       0.00006    0.01533      0.01539    0.01539
     3   H       0.07059                 0.07059    0.07059
     4   H       0.00032                 0.00032    0.00032
     5   H       0.00032                 0.00032    0.00032
     6   H       0.01532                 0.01532    0.01532
     7   H       0.01532                 0.01532    0.01532

 Active orbital charges, AO contributions:

   CEN ATOM SHL      SPHERICAL COMPONENTS
     1   C  1s       0.00000
     1   C  2s       0.00245
     1   C  2p       0.87644    0.00386    0.00000

     2   C  1s       0.00000
     2   C  2s       0.00006
     2   C  2p       0.01519    0.00014    0.00000

     3   H  1s       0.07059

     4   H  1s       0.00032

     5   H  1s       0.00032

     6   H  1s       0.01532

     7   H  1s       0.01532

 Summary of localized orbital composition:   [THRPRINT= 0.020]

   ORB  GRP  ORB.ENERGY      CENTERS/CHARGES
     1   1    -9.813745      C  1   2.000
     2   1    -9.809833      C  2   2.000
     3   1    -0.537193      C  1   1.015   C  2   0.983
     4   1    -0.460371      C  1   1.154   H  4   0.840
     5   1    -0.460371      C  1   1.154   H  5   0.840
     6   1    -0.443008      C  2   1.087   H  3   0.783   C  1   0.127
     7   1    -0.439121      C  2   1.118   H  6   0.844   C  1   0.031
     8   1    -0.439121      C  2   1.118   H  7   0.844   C  1   0.031
     9   2    -0.114924      C  1   0.883   H  3   0.071   (other: 0.047)

 Localized orbitals saved to record      2200.2  (orbital set 4)


 **********************************************************************************************************************************
 DATASETS  * FILE   NREC   LENGTH (MB)   RECORD NAMES
              1      20       35.18       500      610      700      900      950      970     1000      129      960     1100   
                                          VAR    BASINP    GEOM    SYMINP    ZMAT    AOBASIS   BASIS     P2S    ABASIS      S 
                                         1400     1410     1200     1210     1080     1600     1650     1300     1700     1800   
                                           T        V       H0       H01     AOSYM     SMH    MOLCAS    ERIS     OPER     GRID   

              2       5        3.00       700     1000      520     1800     2200   
                                         GEOM     BASIS   MCVARS    GRID      UKS  

 PROGRAMS   *        TOTAL      IBBA       UKS       INT
 CPU TIMES  *         4.13      0.01      3.45      0.52
 REAL TIME  *         4.95 SEC
 DISK USED  *        48.39 MB      
 **********************************************************************************************************************************
 Molecular orbitals read from record     2200.2  Type=UKS/LOCAL(IBO)  
 Occupation numbers read from record     2200.2  Type=UKS/LOCAL(IBO)  
 Orbital energies read from record       2200.2  Type=UKS/LOCAL(IBO)  
 Redundancy group numbers read from rec  2200.2  Type=UKS/BETA (state 1.1)

 IBBA/SVP energy=      0.000000000000

        UKS-SCF 
    -79.03896755
 **********************************************************************************************************************************
 Molpro calculation terminated
