
 Primary working directories    : /tmp/sb13343
 Secondary working directories  : /tmp/sb13343
 Wavefunction directory         : /panfs/panasas01/chem/sb13343/wfu/
 Main file repository           : /tmp/sb13343/

 SHA1      : b4a5b34a9e711420743f49e6833241d17c61fb3c
 NAME      : 2099.9.b4a5b34
 ARCHNAME  : linux/x86_64_openmp
 FC        : /cm/shared/languages/GCC-6.1/bin/gfortran
 BLASLIB   : -lblas
 id        : simonbennie

 Nodes     nprocs
 node32-007    1

 Using customized tuning parameters: mindgm=1; mindgv=20; mindgc=4; mindgr=1; noblas=0; minvec=7
 default implementation of scratch files=df  

 memory,500,m
 geomtyp=xyz
 nosym
 noorient
 geometry={
 C         -0.00146        0.79548        0.00000
 C          0.02225       -0.69390        0.00000
 H         -0.99481       -1.12636        0.00000
 H         -0.09300        1.35197        0.92746
 H         -0.09300        1.35197       -0.92746
 H          0.52802       -1.09351        0.88764
 H          0.52802       -1.09351       -0.88764
 }
 basis={ default,svp }
 {uks,PBEREV,direct;wf,17,1,1}
 {ibba,bonds=1}

 Variables initialized (895), CPU time= 0.01 sec
 Commands  initialized (725), CPU time= 0.01 sec, 591 directives.
 Default parameters read. Elapsed time= 0.07 sec

 Checking input...
 Passed
1


                                         ***  PROGRAM SYSTEM MOLPRO  ***
                                       Copyright, TTI GmbH Stuttgart, 2015
                                    Version 2099.9 linked May 26 2017 16:03:21


 **********************************************************************************************************************************
 LABEL *                                                                                 
  64 bit serial version                                                                  DATE: 08-Jun-17          TIME: 05:01:33  
 **********************************************************************************************************************************

 SHA1:             b4a5b34a9e711420743f49e6833241d17c61fb3c
 **********************************************************************************************************************************
 SETTING GEOMTYP        =    XYZ

 Variable memory set to  500000000 words,  buffer space 

 ZSYMEL=NOSYM

 SETTING BASIS          =    SVP


 Recomputing integrals since basis changed


 Using spherical harmonics

 Library entry C      S def2-SVP             selected for orbital group  1
 Library entry C      P def2-SVP             selected for orbital group  1
 Library entry C      D def2-SVP             selected for orbital group  1
 Library entry H      S def2-SVP             selected for orbital group  2
 Library entry H      P def2-SVP             selected for orbital group  2


 PROGRAM * SEWARD (Integral evaluation for generally contracted gaussian basis sets)     Author: Roland Lindh, 1990

 Geometry written to block  1 of record 700


 Point group  C1  



 ATOMIC COORDINATES

 NR  ATOM    CHARGE       X              Y              Z

   1  C       6.00   -0.002759000    1.503239338    0.000000000
   2  C       6.00    0.042046406   -1.311280958    0.000000000
   3  H       1.00   -1.879918446   -2.128511918    0.000000000
   4  H       1.00   -0.175744530    2.554853029    1.752645391
   5  H       1.00   -0.175744530    2.554853029   -1.752645391
   6  H       1.00    0.997813188   -2.066434414    1.677396497
   7  H       1.00    0.997813188   -2.066434414   -1.677396497

 Bond lengths in Bohr (Angstrom)

 1-2  2.814876910  1-4  2.051238947  1-5  2.051238947  2-3  2.088495950  2-6  2.073018546
     ( 1.489568712)     ( 1.085468905)     ( 1.085468905)     ( 1.105184462)     ( 1.096994173)

 2-7  2.073018546
     ( 1.096994173)

 Bond angles

  1-2-3  112.12345176   1-2-6  111.81246303   1-2-7  111.81246303   2-1-4  120.92728687

  2-1-5  120.92728687   3-2-6  106.36442052   3-2-7  106.36442052   4-1-5  117.39421083

  6-2-7  108.02720793

 NUCLEAR CHARGE:                   17
 NUMBER OF PRIMITIVE AOS:          85
 NUMBER OF SYMMETRY AOS:           83
 NUMBER OF CONTRACTIONS:           53   (  53A   )
 NUMBER OF CORE ORBITALS:           2   (   2A   )
 NUMBER OF VALENCE ORBITALS:       13   (  13A   )


 NUCLEAR REPULSION ENERGY   36.86300145


 Eigenvalues of metric

         1 0.525E-02 0.232E-01 0.271E-01 0.397E-01 0.503E-01 0.635E-01 0.102E+00 0.110E+00


 Contracted 2-electron integrals neglected if value below      1.0D-11
 AO integral compression algorithm  1   Integral accuracy      1.0D-11

     5.243 MB (compressed) written to integral file ( 52.3%)


 NUMBER OF SORTED TWO-ELECTRON INTEGRALS:    1024596.     BUFFER LENGTH:  32768
 NUMBER OF SEGMENTS:   1  SEGMENT LENGTH:    1024596      RECORD LENGTH: 524288

 Memory used in sort:       1.58 MW

 SORT1 READ     1206537. AND WROTE      940164. INTEGRALS IN      3 RECORDS. CPU TIME:     0.02 SEC, REAL TIME:     0.03 SEC
 SORT2 READ      940164. AND WROTE     1024596. INTEGRALS IN     20 RECORDS. CPU TIME:     0.05 SEC, REAL TIME:     0.07 SEC

 FILE SIZES:   FILE 1:    35.4 MBYTE,  FILE 4:    12.6 MBYTE,   TOTAL:     48.0 MBYTE

 OPERATOR DM      FOR CENTER  0  COORDINATES:    0.000000    0.000000    0.000000


 **********************************************************************************************************************************
 DATASETS  * FILE   NREC   LENGTH (MB)   RECORD NAMES
              1      19       34.42       500      610      700      900      950      970     1000      129      960     1100   
                                          VAR    BASINP    GEOM    SYMINP    ZMAT    AOBASIS   BASIS     P2S    ABASIS      S 
                                         1400     1410     1200     1210     1080     1600     1650     1300     1700   
                                           T        V       H0       H01     AOSYM     SMH    MOLCAS    ERIS     OPER   

 PROGRAMS   *        TOTAL       INT
 CPU TIMES  *         0.62      0.48
 REAL TIME  *         0.97 SEC
 DISK USED  *        48.39 MB      
 **********************************************************************************************************************************

 Density functional group PBEREV=PBEXREV+PBEC
 Functional: PBEXREV(Automatically generated (new) PBEXREV)                    Gradient terms: 1
 Functional: PBEC(Automatically generated (new) PBEC)                          Gradient terms: 1
 Use grid at  1800.2

 Functional: PBEXREV                   Factor:  1.0000
 Functional: PBEC                      Factor:  1.0000

 Generated new metagrid on record  1800.2 with target accuracy 1.0D-06 and 23794 points in CPU time    0.5
 Computed new grid on record 1800.1 in CPU time    0.6
   46013 words reserved for DFT integration

 PROGRAM * UKS-SCF (Unrestricted Kohn-Sham)     Authors: W. Meyer, H.-J. Werner, P.J. Knowles, 1993

 NUMBER OF ELECTRONS:       9+    8-    SPACE SYMMETRY=1    SPIN SYMMETRY: Doublet 
 CONVERGENCE THRESHOLDS:    1.00E-05 (Density)    1.00E-06 (Energy)
 MAX. NUMBER OF ITERATIONS:       60
 INTERPOLATION TYPE:            DIIS
 INTERPOLATION STEPS:              2 (START)      1 (STEP)
 LEVEL SHIFTS:                 -0.20 (ALPHA)  -0.20 (BETA) 



 Use fine grid record 1800.2 for energy threshold  1.0D-06
 Orbital guess generated from atomic densities. Full valence occupancy:    9

 Molecular orbital dump at record        2200.2

 Initial alpha occupation   9
 Initial beta  occupation   8

 ITERATION    DDIFF          GRAD             ENERGY        2-EL.EN.            DIPOLE MOMENTS         DIIS
    1      0.000D+00      0.000D+00       -78.95682613    155.120416   -0.10908   -0.23469    0.00000    0
    2      0.176D-01      0.840D-02       -79.05402251    147.014753   -0.05168   -0.13914    0.00000    1
    3      0.555D-02      0.376D-02       -79.07209149    149.024648   -0.06189   -0.14006    0.00000    2
    4      0.149D-02      0.396D-03       -79.07257171    148.956747   -0.05862   -0.13105    0.00000    3
    5      0.722D-03      0.172D-03       -79.07267515    148.936365   -0.05591   -0.12145    0.00000    4
    6      0.305D-03      0.716D-04       -79.07269836    148.937440   -0.05445   -0.11682    0.00000    5
    7      0.660D-04      0.281D-04       -79.07270066    148.935810   -0.05388   -0.11487    0.00000    6
    8      0.201D-04      0.664D-05       -79.07270082    148.935743   -0.05374   -0.11466    0.00000    6
    9      0.474D-05      0.115D-05       -79.07270083    148.936176   -0.05372   -0.11463    0.00000    6
   10      0.124D-05      0.441D-06       -79.07270083    148.935850   -0.05371   -0.11463    0.00000    7

 Final alpha occupancy:   9
 Final beta  occupancy:   8

 !UKS STATE 1.1 Energy                -79.072700827267
 Nuclear energy                        36.86300145
 One-electron energy                 -177.76820869
 Two-electron energy                   74.46792513
 Density functional                   -12.63541872     PBEXREV=-12.10878227 PBEC= -0.52663644
 Virial quotient                       -1.01300282
 !UKS STATE 1.1 Dipole moment          -0.05371422    -0.11463010     0.00000000
 Dipole moment /Debye                  -0.13651900    -0.29134156     0.00000000

 Orbital energies for positive spin:

         1.1          2.1          3.1          4.1          5.1          6.1          7.1          8.1          9.1         10.1
     -9.910147    -9.904868    -0.675788    -0.537442    -0.397454    -0.363232    -0.345032    -0.309588    -0.162730     0.055868

        11.1
      0.084278

 Orbital energies for negative spin:

         1.1          2.1          3.1          4.1          5.1          6.1          7.1          8.1          9.1         10.1
     -9.905626    -9.897506    -0.661343    -0.516878    -0.391001    -0.351972    -0.337110    -0.305236    -0.070963     0.059383

        11.1
      0.094011

 HOMO      9.1    -0.162730 =      -4.4281eV
 LUMO     -9.1    -0.070963 =      -1.9310eV
 LUMO-HOMO         0.091767 =       2.4971eV

 EXPECTATION VALUE OF S**2:             0.75374855

 Occupation number threshold for canonical orbitals:  1.999000 (occupied),  0.001000 (virtual)

 Number of pseudo-canonical orbitals per symmetry:    7
 Number of active natural orbitals per symmetry:      3

 Natural orbitals saved to record    2200.2 (Orbital set 3)

 Orbital spaces for UNO-CAS (Min. occupation: 0.020  Max. occupation: 1.980):

 Closed:        8
 Active:        1


 **********************************************************************************************************************************
 DATASETS  * FILE   NREC   LENGTH (MB)   RECORD NAMES
              1      20       35.18       500      610      700      900      950      970     1000      129      960     1100   
                                          VAR    BASINP    GEOM    SYMINP    ZMAT    AOBASIS   BASIS     P2S    ABASIS      S 
                                         1400     1410     1200     1210     1080     1600     1650     1300     1700     1800   
                                           T        V       H0       H01     AOSYM     SMH    MOLCAS    ERIS     OPER     GRID   

              2       5        2.98       700     1000      520     1800     2200   
                                         GEOM     BASIS   MCVARS    GRID      UKS  

 PROGRAMS   *        TOTAL       UKS       INT
 CPU TIMES  *         4.15      3.53      0.48
 REAL TIME  *         4.88 SEC
 DISK USED  *        48.39 MB      
 **********************************************************************************************************************************


 PROGRAM * Intrinsic Basis Bonding Analysis (IBBA)          Author: G. Knizia

 Molecular orbitals read from record     2200.2  Type=UKS/ALPHA (state 1.1)
 Fock matrix read from record            2200.2  Type=UKS/TOTAL (state 1.1)
 Orbital energies read from record       2200.2  Type=UKS/ALPHA (state 1.1)
 Density matrix read from record         2200.2  Type=UKS/CHARGE (state 1.1)

 Number of core orbitals:           2 (   2 )
 Number of closed-shell orbitals:   6 (   6 )
 Number of active  orbitals:        1 (   1 )

 Basis set MINAO-AUTO-PP generated.      Number of basis functions:   15 

 Polarized AO type:                A = (O Ot + (1-O)(1-Ot)) P12
 Orthogonalization method:         Symmetric (Loewdin)
 Localization functional:          L = sum[A,i] <i|n_A|i>^4 -> max

 Localization group 1:   8 orbitals, occupancy  2.000
 Iterative localization: IB/PM,    6 iter; Final gradient 0.33E-08

 Bond order analysis:       [THRPRINT= 0.020]

   CEN ATOM   CEN ATOM     WIBERG.BO      RENORM.BO
     1   C  -   2   C       1.244142       2.021359
     1   C  -   5   H       0.958356       0.982241
     1   C  -   4   H       0.958356       0.982241
     1   C  -   3   H       0.095754       0.621732
     1   C  -   6   H       0.022404       0.130404
     1   C  -   7   H       0.022404       0.130404

     2   C  -   1   C       1.244142       2.021359
     2   C  -   7   H       0.933192       0.987863
     2   C  -   6   H       0.933192       0.987863
     2   C  -   3   H       0.841137       0.998585

     3   H  -   2   C       0.841137       0.998585
     3   H  -   1   C       0.095754       0.621732

     4   H  -   1   C       0.958356       0.982241

     5   H  -   1   C       0.958356       0.982241

     6   H  -   2   C       0.933192       0.987863
     6   H  -   1   C       0.022404       0.130404

     7   H  -   2   C       0.933192       0.987863
     7   H  -   1   C       0.022404       0.130404


 Valency analysis:

   CEN ATOM   TOT.VALENCE
     1   C       3.301416
     2   C       3.953636
     3   H       0.949629
     4   H       0.973888
     5   H       0.973888
     6   H       0.975037
     7   H       0.975037
 Localization group 2:   1 orbitals, occupancy  1.000
 Iterative localization: IB/PM,    1 iter; Final gradient 0.00E+00

 Bond order analysis:       [THRPRINT= 0.020]

   CEN ATOM   CEN ATOM     WIBERG.BO      RENORM.BO
     1   C  -   3   H       0.128782       0.500000
     1   C  -   2   C       0.031457       0.500000
     1   C  -   6   H       0.027980       0.500000
     1   C  -   7   H       0.027980       0.500000

     2   C  -   1   C       0.031457       0.500000

     3   H  -   1   C       0.128782       0.500000



     6   H  -   1   C       0.027980       0.500000

     7   H  -   1   C       0.027980       0.500000


 Valency analysis:

   CEN ATOM   TOT.VALENCE
     1   C       0.217342
     2   C       0.035267
     3   H       0.136214
     4   H       0.000653
     5   H       0.000653
     6   H       0.031433
     7   H       0.031433

 Total charge composition:

   CEN ATOM         s          p       ELECTRONS ->P.CHARGE
     1   C       3.09502    3.32529      6.42030   -0.42030
     2   C       3.00733    3.32987      6.33720   -0.33720
     3   H       0.84908                 0.84908    0.15092
     4   H       0.83874                 0.83874    0.16126
     5   H       0.83874                 0.83874    0.16126
     6   H       0.85798                 0.85798    0.14202
     7   H       0.85798                 0.85798    0.14202

 Total charge composition, AO contributions:

   CEN ATOM SHL      SPHERICAL COMPONENTS
     1   C  1s       1.99228
     1   C  2s       1.10274
     1   C  2p       1.07180    1.07564    1.17784

     2   C  1s       1.99088
     2   C  2s       1.01645
     2   C  2p       1.12073    1.04879    1.16035

     3   H  1s       0.84908

     4   H  1s       0.83874

     5   H  1s       0.83874

     6   H  1s       0.85798

     7   H  1s       0.85798

 Active orbital charges:

   CEN ATOM         s          p       ELECTRONS ->SPIN.DEN
     1   C       0.00235    0.87359      0.87594    0.87594
     2   C       0.00006    0.01790      0.01796    0.01796
     3   H       0.07351                 0.07351    0.07351
     4   H       0.00033                 0.00033    0.00033
     5   H       0.00033                 0.00033    0.00033
     6   H       0.01597                 0.01597    0.01597
     7   H       0.01597                 0.01597    0.01597

 Active orbital charges, AO contributions:

   CEN ATOM SHL      SPHERICAL COMPONENTS
     1   C  1s       0.00000
     1   C  2s       0.00234
     1   C  2p       0.86981    0.00378    0.00000

     2   C  1s       0.00000
     2   C  2s       0.00006
     2   C  2p       0.01774    0.00016    0.00000

     3   H  1s       0.07351

     4   H  1s       0.00033

     5   H  1s       0.00033

     6   H  1s       0.01597

     7   H  1s       0.01597

 Summary of localized orbital composition:   [THRPRINT= 0.020]

   ORB  GRP  ORB.ENERGY      CENTERS/CHARGES
     1   1    -9.798725      C  1   2.000
     2   1    -9.792595      C  2   2.000
     3   1    -0.544334      C  1   1.018   C  2   0.980
     4   1    -0.465775      C  1   1.161   H  4   0.833
     5   1    -0.465775      C  1   1.161   H  5   0.833
     6   1    -0.447150      C  2   1.089   H  3   0.771   C  1   0.137
     7   1    -0.443785      C  2   1.122   H  6   0.837   C  1   0.033
     8   1    -0.443785      C  2   1.122   H  7   0.837   C  1   0.033
     9   2    -0.116430      C  1   0.876   H  3   0.074   (other: 0.051)

 Localized orbitals saved to record      2200.2  (orbital set 4)


 **********************************************************************************************************************************
 DATASETS  * FILE   NREC   LENGTH (MB)   RECORD NAMES
              1      20       35.18       500      610      700      900      950      970     1000      129      960     1100   
                                          VAR    BASINP    GEOM    SYMINP    ZMAT    AOBASIS   BASIS     P2S    ABASIS      S 
                                         1400     1410     1200     1210     1080     1600     1650     1300     1700     1800   
                                           T        V       H0       H01     AOSYM     SMH    MOLCAS    ERIS     OPER     GRID   

              2       5        3.00       700     1000      520     1800     2200   
                                         GEOM     BASIS   MCVARS    GRID      UKS  

 PROGRAMS   *        TOTAL      IBBA       UKS       INT
 CPU TIMES  *         4.18      0.02      3.53      0.48
 REAL TIME  *         4.95 SEC
 DISK USED  *        48.39 MB      
 **********************************************************************************************************************************
 Molecular orbitals read from record     2200.2  Type=UKS/LOCAL(IBO)  
 Occupation numbers read from record     2200.2  Type=UKS/LOCAL(IBO)  
 Orbital energies read from record       2200.2  Type=UKS/LOCAL(IBO)  
 Redundancy group numbers read from rec  2200.2  Type=UKS/BETA (state 1.1)

 IBBA/SVP energy=      0.000000000000

        UKS-SCF 
    -79.07270083
 **********************************************************************************************************************************
 Molpro calculation terminated
