
 Primary working directories    : /tmp/sb13343
 Secondary working directories  : /tmp/sb13343
 Wavefunction directory         : /panfs/panasas01/chem/sb13343/wfu/
 Main file repository           : /tmp/sb13343/

 SHA1      : b4a5b34a9e711420743f49e6833241d17c61fb3c
 NAME      : 2099.9.b4a5b34
 ARCHNAME  : linux/x86_64_openmp
 FC        : /cm/shared/languages/GCC-6.1/bin/gfortran
 BLASLIB   : -lblas
 id        : simonbennie

 Nodes     nprocs
 node35-048    1

 Using customized tuning parameters: mindgm=1; mindgv=20; mindgc=4; mindgr=1; noblas=0; minvec=7
 default implementation of scratch files=df  

 memory,500,m
 geomtyp=xyz
 nosym
 noorient
 geometry={
 C         -0.00146        0.79548        0.00000
 C          0.02225       -0.69390        0.00000
 H         -0.99481       -1.12636        0.00000
 H         -0.09300        1.35197        0.92746
 H         -0.09300        1.35197       -0.92746
 H          0.52802       -1.09351        0.88764
 H          0.52802       -1.09351       -0.88764
 }
 basis={ default,svp }
 {uks,M05,direct;wf,17,1,1}
 {ibba,bonds=1}

 Variables initialized (895), CPU time= 0.01 sec
 Commands  initialized (725), CPU time= 0.01 sec, 591 directives.
 Default parameters read. Elapsed time= 0.10 sec

 Checking input...
 Passed
1


                                         ***  PROGRAM SYSTEM MOLPRO  ***
                                       Copyright, TTI GmbH Stuttgart, 2015
                                    Version 2099.9 linked May 26 2017 16:03:21


 **********************************************************************************************************************************
 LABEL *                                                                                 
  64 bit serial version                                                                  DATE: 08-Jun-17          TIME: 05:04:13  
 **********************************************************************************************************************************

 SHA1:             b4a5b34a9e711420743f49e6833241d17c61fb3c
 **********************************************************************************************************************************
 SETTING GEOMTYP        =    XYZ

 Variable memory set to  500000000 words,  buffer space 

 ZSYMEL=NOSYM

 SETTING BASIS          =    SVP


 Recomputing integrals since basis changed


 Using spherical harmonics

 Library entry C      S def2-SVP             selected for orbital group  1
 Library entry C      P def2-SVP             selected for orbital group  1
 Library entry C      D def2-SVP             selected for orbital group  1
 Library entry H      S def2-SVP             selected for orbital group  2
 Library entry H      P def2-SVP             selected for orbital group  2


 PROGRAM * SEWARD (Integral evaluation for generally contracted gaussian basis sets)     Author: Roland Lindh, 1990

 Geometry written to block  1 of record 700


 Point group  C1  



 ATOMIC COORDINATES

 NR  ATOM    CHARGE       X              Y              Z

   1  C       6.00   -0.002759000    1.503239338    0.000000000
   2  C       6.00    0.042046406   -1.311280958    0.000000000
   3  H       1.00   -1.879918446   -2.128511918    0.000000000
   4  H       1.00   -0.175744530    2.554853029    1.752645391
   5  H       1.00   -0.175744530    2.554853029   -1.752645391
   6  H       1.00    0.997813188   -2.066434414    1.677396497
   7  H       1.00    0.997813188   -2.066434414   -1.677396497

 Bond lengths in Bohr (Angstrom)

 1-2  2.814876910  1-4  2.051238947  1-5  2.051238947  2-3  2.088495950  2-6  2.073018546
     ( 1.489568712)     ( 1.085468905)     ( 1.085468905)     ( 1.105184462)     ( 1.096994173)

 2-7  2.073018546
     ( 1.096994173)

 Bond angles

  1-2-3  112.12345176   1-2-6  111.81246303   1-2-7  111.81246303   2-1-4  120.92728687

  2-1-5  120.92728687   3-2-6  106.36442052   3-2-7  106.36442052   4-1-5  117.39421083

  6-2-7  108.02720793

 NUCLEAR CHARGE:                   17
 NUMBER OF PRIMITIVE AOS:          85
 NUMBER OF SYMMETRY AOS:           83
 NUMBER OF CONTRACTIONS:           53   (  53A   )
 NUMBER OF CORE ORBITALS:           2   (   2A   )
 NUMBER OF VALENCE ORBITALS:       13   (  13A   )


 NUCLEAR REPULSION ENERGY   36.86300145


 Eigenvalues of metric

         1 0.525E-02 0.232E-01 0.271E-01 0.397E-01 0.503E-01 0.635E-01 0.102E+00 0.110E+00


 Contracted 2-electron integrals neglected if value below      1.0D-11
 AO integral compression algorithm  1   Integral accuracy      1.0D-11

     5.243 MB (compressed) written to integral file ( 52.3%)


 NUMBER OF SORTED TWO-ELECTRON INTEGRALS:    1024596.     BUFFER LENGTH:  32768
 NUMBER OF SEGMENTS:   1  SEGMENT LENGTH:    1024596      RECORD LENGTH: 524288

 Memory used in sort:       1.58 MW

 SORT1 READ     1206537. AND WROTE      940164. INTEGRALS IN      3 RECORDS. CPU TIME:     0.01 SEC, REAL TIME:     0.03 SEC
 SORT2 READ      940164. AND WROTE     1024596. INTEGRALS IN     20 RECORDS. CPU TIME:     0.05 SEC, REAL TIME:     0.07 SEC

 FILE SIZES:   FILE 1:    35.4 MBYTE,  FILE 4:    12.6 MBYTE,   TOTAL:     48.0 MBYTE

 OPERATOR DM      FOR CENTER  0  COORDINATES:    0.000000    0.000000    0.000000


 **********************************************************************************************************************************
 DATASETS  * FILE   NREC   LENGTH (MB)   RECORD NAMES
              1      19       34.42       500      610      700      900      950      970     1000      129      960     1100   
                                          VAR    BASINP    GEOM    SYMINP    ZMAT    AOBASIS   BASIS     P2S    ABASIS      S 
                                         1400     1410     1200     1210     1080     1600     1650     1300     1700   
                                           T        V       H0       H01     AOSYM     SMH    MOLCAS    ERIS     OPER   

 PROGRAMS   *        TOTAL       INT
 CPU TIMES  *         0.52      0.38
 REAL TIME  *         0.92 SEC
 DISK USED  *        48.39 MB      
 **********************************************************************************************************************************

 Density functional group M05=XC-M05
 Functional: XC-M05(via MFM 1.6)                                               Gradient terms: 1
 Use grid at  1800.2


 Exact exchange will be calculated, factor:  0.2800

 Functional: XC-M05                    Factor:  1.0000

 Generated new metagrid on record  1800.2 with target accuracy 1.0D-06 and 23794 points in CPU time    0.5
 Computed new grid on record 1800.1 in CPU time    0.5
   46013 words reserved for DFT integration

 PROGRAM * UKS-SCF (Unrestricted Kohn-Sham)     Authors: W. Meyer, H.-J. Werner, P.J. Knowles, 1993

 NUMBER OF ELECTRONS:       9+    8-    SPACE SYMMETRY=1    SPIN SYMMETRY: Doublet 
 CONVERGENCE THRESHOLDS:    1.00E-05 (Density)    1.00E-06 (Energy)
 MAX. NUMBER OF ITERATIONS:       60
 INTERPOLATION TYPE:            DIIS
 INTERPOLATION STEPS:              2 (START)      1 (STEP)
 LEVEL SHIFTS:                 -0.20 (ALPHA)  -0.20 (BETA) 



 Use fine grid record 1800.2 for energy threshold  1.0D-06
 Orbital guess generated from atomic densities. Full valence occupancy:    9

 Molecular orbital dump at record        2200.2

 Initial alpha occupation   9
 Initial beta  occupation   8

 ITERATION    DDIFF          GRAD             ENERGY        2-EL.EN.            DIPOLE MOMENTS         DIIS
    1      0.000D+00      0.000D+00       -78.96360858    146.794683   -0.11400   -0.28941    0.00000    0
    2      0.120D-01      0.649D-02       -79.02980699    141.208240   -0.06702   -0.16941    0.00000    1
    3      0.352D-02      0.233D-02       -79.03726025    142.269171   -0.06863   -0.15382    0.00000    2
    4      0.183D-02      0.515D-03       -79.03862718    142.208950   -0.06429   -0.13041    0.00000    3
    5      0.846D-03      0.232D-03       -79.03905160    142.190830   -0.06135   -0.11551    0.00000    4
    6      0.221D-03      0.726D-04       -79.03918838    142.193261   -0.06050   -0.11066    0.00000    5
    7      0.653D-04      0.310D-04       -79.03922134    142.192473   -0.06012   -0.10872    0.00000    6
    8      0.203D-04      0.644D-05       -79.03922838    142.192756   -0.06008   -0.10870    0.00000    7
    9      0.458D-05      0.114D-05       -79.03922914    142.192591   -0.06009   -0.10872    0.00000    6
   10      0.124D-05      0.330D-06       -79.03922939    142.192710   -0.06009   -0.10874    0.00000    6

 Final alpha occupancy:   9
 Final beta  occupancy:   8

 !UKS STATE 1.1 Energy                -79.039229386698
 Nuclear energy                        36.86300145
 One-electron energy                 -177.78086924
 Two-electron energy                   71.09635510
 Density functional                    -9.21771670     XC-M05=-9.21771670
 Virial quotient                       -1.01225516
 !UKS STATE 1.1 Dipole moment          -0.06009304    -0.10874216     0.00000000
 Dipole moment /Debye                  -0.15273127    -0.27637691     0.00000000

 Orbital energies for positive spin:

         1.1          2.1          3.1          4.1          5.1          6.1          7.1          8.1          9.1         10.1
    -10.220260   -10.215986    -0.767576    -0.618020    -0.461349    -0.423075    -0.401900    -0.365378    -0.209654     0.079954

        11.1
      0.112951

 Orbital energies for negative spin:

         1.1          2.1          3.1          4.1          5.1          6.1          7.1          8.1          9.1         10.1
    -10.216675   -10.210566    -0.747763    -0.588604    -0.451016    -0.408726    -0.390020    -0.359162    -0.040364     0.081133

        11.1
      0.123029

 HOMO      9.1    -0.209654 =      -5.7050eV
 LUMO     -9.1    -0.040364 =      -1.0984eV
 LUMO-HOMO         0.169290 =       4.6066eV

 EXPECTATION VALUE OF S**2:             0.75592231

 Occupation number threshold for canonical orbitals:  1.999000 (occupied),  0.001000 (virtual)

 Number of pseudo-canonical orbitals per symmetry:    7
 Number of active natural orbitals per symmetry:      3

 Natural orbitals saved to record    2200.2 (Orbital set 3)

 Orbital spaces for UNO-CAS (Min. occupation: 0.020  Max. occupation: 1.980):

 Closed:        8
 Active:        1


 **********************************************************************************************************************************
 DATASETS  * FILE   NREC   LENGTH (MB)   RECORD NAMES
              1      20       35.18       500      610      700      900      950      970     1000      129      960     1100   
                                          VAR    BASINP    GEOM    SYMINP    ZMAT    AOBASIS   BASIS     P2S    ABASIS      S 
                                         1400     1410     1200     1210     1080     1600     1650     1300     1700     1800   
                                           T        V       H0       H01     AOSYM     SMH    MOLCAS    ERIS     OPER     GRID   

              2       5        2.98       700     1000      520     1800     2200   
                                         GEOM     BASIS   MCVARS    GRID      UKS  

 PROGRAMS   *        TOTAL       UKS       INT
 CPU TIMES  *         8.93      8.41      0.38
 REAL TIME  *        10.62 SEC
 DISK USED  *        48.39 MB      
 **********************************************************************************************************************************


 PROGRAM * Intrinsic Basis Bonding Analysis (IBBA)          Author: G. Knizia

 Molecular orbitals read from record     2200.2  Type=UKS/ALPHA (state 1.1)
 Fock matrix read from record            2200.2  Type=UKS/TOTAL (state 1.1)
 Orbital energies read from record       2200.2  Type=UKS/ALPHA (state 1.1)
 Density matrix read from record         2200.2  Type=UKS/CHARGE (state 1.1)

 Number of core orbitals:           2 (   2 )
 Number of closed-shell orbitals:   6 (   6 )
 Number of active  orbitals:        1 (   1 )

 Basis set MINAO-AUTO-PP generated.      Number of basis functions:   15 

 Polarized AO type:                A = (O Ot + (1-O)(1-Ot)) P12
 Orthogonalization method:         Symmetric (Loewdin)
 Localization functional:          L = sum[A,i] <i|n_A|i>^4 -> max

 Localization group 1:   8 orbitals, occupancy  2.000
 Iterative localization: IB/PM,    6 iter; Final gradient 0.39E-08

 Bond order analysis:       [THRPRINT= 0.020]

   CEN ATOM   CEN ATOM     WIBERG.BO      RENORM.BO
     1   C  -   2   C       1.251107       2.019893
     1   C  -   5   H       0.955327       0.983165
     1   C  -   4   H       0.955327       0.983165
     1   C  -   3   H       0.097988       0.617952
     1   C  -   6   H       0.023187       0.130644
     1   C  -   7   H       0.023187       0.130644

     2   C  -   1   C       1.251107       2.019893
     2   C  -   7   H       0.931969       0.988431
     2   C  -   6   H       0.931969       0.988431
     2   C  -   3   H       0.835231       0.998704

     3   H  -   2   C       0.835231       0.998704
     3   H  -   1   C       0.097988       0.617952

     4   H  -   1   C       0.955327       0.983165

     5   H  -   1   C       0.955327       0.983165

     6   H  -   2   C       0.931969       0.988431
     6   H  -   1   C       0.023187       0.130644

     7   H  -   2   C       0.931969       0.988431
     7   H  -   1   C       0.023187       0.130644


 Valency analysis:

   CEN ATOM   TOT.VALENCE
     1   C       3.306122
     2   C       3.952329
     3   H       0.946153
     4   H       0.970230
     5   H       0.970230
     6   H       0.974020
     7   H       0.974020
 Localization group 2:   1 orbitals, occupancy  1.000
 Iterative localization: IB/PM,    1 iter; Final gradient 0.00E+00

 Bond order analysis:       [THRPRINT= 0.020]

   CEN ATOM   CEN ATOM     WIBERG.BO      RENORM.BO
     1   C  -   3   H       0.128265       0.500000
     1   C  -   2   C       0.035052       0.500000
     1   C  -   6   H       0.028570       0.500000
     1   C  -   7   H       0.028570       0.500000

     2   C  -   1   C       0.035052       0.500000

     3   H  -   1   C       0.128265       0.500000



     6   H  -   1   C       0.028570       0.500000

     7   H  -   1   C       0.028570       0.500000


 Valency analysis:

   CEN ATOM   TOT.VALENCE
     1   C       0.221379
     2   C       0.039334
     3   H       0.136096
     4   H       0.000527
     5   H       0.000527
     6   H       0.032182
     7   H       0.032182

 Total charge composition:

   CEN ATOM         s          p       ELECTRONS ->P.CHARGE
     1   C       3.09923    3.35546      6.45469   -0.45469
     2   C       3.01032    3.32780      6.33812   -0.33812
     3   H       0.84139                 0.84139    0.15861
     4   H       0.82773                 0.82773    0.17227
     5   H       0.82773                 0.82773    0.17227
     6   H       0.85517                 0.85517    0.14483
     7   H       0.85517                 0.85517    0.14483

 Total charge composition, AO contributions:

   CEN ATOM SHL      SPHERICAL COMPONENTS
     1   C  1s       1.99209
     1   C  2s       1.10714
     1   C  2p       1.07734    1.08599    1.19213

     2   C  1s       1.99064
     2   C  2s       1.01968
     2   C  2p       1.12271    1.04233    1.16276

     3   H  1s       0.84139

     4   H  1s       0.82773

     5   H  1s       0.82773

     6   H  1s       0.85517

     7   H  1s       0.85517

 Active orbital charges:

   CEN ATOM         s          p       ELECTRONS ->SPIN.DEN
     1   C       0.00219    0.87105      0.87324    0.87324
     2   C       0.00003    0.02003      0.02007    0.02007
     3   H       0.07344                 0.07344    0.07344
     4   H       0.00026                 0.00026    0.00026
     5   H       0.00026                 0.00026    0.00026
     6   H       0.01636                 0.01636    0.01636
     7   H       0.01636                 0.01636    0.01636

 Active orbital charges, AO contributions:

   CEN ATOM SHL      SPHERICAL COMPONENTS
     1   C  1s       0.00000
     1   C  2s       0.00219
     1   C  2p       0.86731    0.00373    0.00000

     2   C  1s       0.00000
     2   C  2s       0.00003
     2   C  2p       0.01990    0.00013    0.00000

     3   H  1s       0.07344

     4   H  1s       0.00026

     5   H  1s       0.00026

     6   H  1s       0.01636

     7   H  1s       0.01636

 Summary of localized orbital composition:   [THRPRINT= 0.020]

   ORB  GRP  ORB.ENERGY      CENTERS/CHARGES
     1   1   -10.107032      C  1   2.000
     2   1   -10.099699      C  2   2.000
     3   1    -0.614062      C  1   1.026   C  2   0.972
     4   1    -0.533334      C  1   1.172   H  4   0.822
     5   1    -0.533334      C  1   1.172   H  5   0.822
     6   1    -0.512139      C  2   1.092   H  3   0.763   C  1   0.142
     7   1    -0.508898      C  2   1.124   H  7   0.834   C  1   0.034
     8   1    -0.508898      C  2   1.124   H  6   0.834   C  1   0.034
     9   2    -0.119912      C  1   0.873   H  3   0.073   C  2   0.020   (other: 0.033)

 Localized orbitals saved to record      2200.2  (orbital set 4)


 **********************************************************************************************************************************
 DATASETS  * FILE   NREC   LENGTH (MB)   RECORD NAMES
              1      20       35.18       500      610      700      900      950      970     1000      129      960     1100   
                                          VAR    BASINP    GEOM    SYMINP    ZMAT    AOBASIS   BASIS     P2S    ABASIS      S 
                                         1400     1410     1200     1210     1080     1600     1650     1300     1700     1800   
                                           T        V       H0       H01     AOSYM     SMH    MOLCAS    ERIS     OPER     GRID   

              2       5        3.00       700     1000      520     1800     2200   
                                         GEOM     BASIS   MCVARS    GRID      UKS  

 PROGRAMS   *        TOTAL      IBBA       UKS       INT
 CPU TIMES  *         8.95      0.01      8.41      0.38
 REAL TIME  *        10.68 SEC
 DISK USED  *        48.39 MB      
 **********************************************************************************************************************************
 Molecular orbitals read from record     2200.2  Type=UKS/LOCAL(IBO)  
 Occupation numbers read from record     2200.2  Type=UKS/LOCAL(IBO)  
 Orbital energies read from record       2200.2  Type=UKS/LOCAL(IBO)  
 Redundancy group numbers read from rec  2200.2  Type=UKS/BETA (state 1.1)

 IBBA/SVP energy=      0.000000000000

        UKS-SCF 
    -79.03922939
 **********************************************************************************************************************************
 Molpro calculation terminated
