
 Primary working directories    : /tmp/sb13343
 Secondary working directories  : /tmp/sb13343
 Wavefunction directory         : /panfs/panasas01/chem/sb13343/wfu/
 Main file repository           : /tmp/sb13343/

 SHA1      : b4a5b34a9e711420743f49e6833241d17c61fb3c
 NAME      : 2099.9.b4a5b34
 ARCHNAME  : linux/x86_64_openmp
 FC        : /cm/shared/languages/GCC-6.1/bin/gfortran
 BLASLIB   : -lblas
 id        : simonbennie

 Nodes     nprocs
 node35-048    1

 Using customized tuning parameters: mindgm=1; mindgv=20; mindgc=4; mindgr=1; noblas=0; minvec=7
 default implementation of scratch files=df  

 memory,500,m
 geomtyp=xyz
 nosym
 noorient
 geometry={
 C         -0.00146        0.79548        0.00000
 C          0.02225       -0.69390        0.00000
 H         -0.99481       -1.12636        0.00000
 H         -0.09300        1.35197        0.92746
 H         -0.09300        1.35197       -0.92746
 H          0.52802       -1.09351        0.88764
 H          0.52802       -1.09351       -0.88764
 }
 basis={ default,sto-3g }
 {ks,M06-L,direct;wf,17,1,1}
 {ibba,bonds=1}

 Variables initialized (895), CPU time= 0.00 sec
 Commands  initialized (725), CPU time= 0.01 sec, 591 directives.
 Default parameters read. Elapsed time= 0.13 sec

 Checking input...
 Passed
1


                                         ***  PROGRAM SYSTEM MOLPRO  ***
                                       Copyright, TTI GmbH Stuttgart, 2015
                                    Version 2099.9 linked May 26 2017 16:03:21


 **********************************************************************************************************************************
 LABEL *                                                                                 
  64 bit serial version                                                                  DATE: 08-Jun-17          TIME: 04:49:18  
 **********************************************************************************************************************************

 SHA1:             b4a5b34a9e711420743f49e6833241d17c61fb3c
 **********************************************************************************************************************************
 SETTING GEOMTYP        =    XYZ

 Variable memory set to  500000000 words,  buffer space 

 ZSYMEL=NOSYM

 SETTING BASIS          =    STO-3G


 Recomputing integrals since basis changed


 Using spherical harmonics

 Library entry C      S STO-3G               selected for orbital group  1
 Library entry C      P STO-3G               selected for orbital group  1
 Library entry H      S STO-3G               selected for orbital group  2


 PROGRAM * SEWARD (Integral evaluation for generally contracted gaussian basis sets)     Author: Roland Lindh, 1990

 Geometry written to block  1 of record 700


 Point group  C1  



 ATOMIC COORDINATES

 NR  ATOM    CHARGE       X              Y              Z

   1  C       6.00   -0.002759000    1.503239338    0.000000000
   2  C       6.00    0.042046406   -1.311280958    0.000000000
   3  H       1.00   -1.879918446   -2.128511918    0.000000000
   4  H       1.00   -0.175744530    2.554853029    1.752645391
   5  H       1.00   -0.175744530    2.554853029   -1.752645391
   6  H       1.00    0.997813188   -2.066434414    1.677396497
   7  H       1.00    0.997813188   -2.066434414   -1.677396497

 Bond lengths in Bohr (Angstrom)

 1-2  2.814876910  1-4  2.051238947  1-5  2.051238947  2-3  2.088495950  2-6  2.073018546
     ( 1.489568712)     ( 1.085468905)     ( 1.085468905)     ( 1.105184462)     ( 1.096994173)

 2-7  2.073018546
     ( 1.096994173)

 Bond angles

  1-2-3  112.12345176   1-2-6  111.81246303   1-2-7  111.81246303   2-1-4  120.92728687

  2-1-5  120.92728687   3-2-6  106.36442052   3-2-7  106.36442052   4-1-5  117.39421083

  6-2-7  108.02720793

 NUCLEAR CHARGE:                   17
 NUMBER OF PRIMITIVE AOS:          45
 NUMBER OF SYMMETRY AOS:           45
 NUMBER OF CONTRACTIONS:           15   (  15A   )
 NUMBER OF CORE ORBITALS:           2   (   2A   )
 NUMBER OF VALENCE ORBITALS:       13   (  13A   )


 NUCLEAR REPULSION ENERGY   36.86300145


 Eigenvalues of metric

         1 0.218E+00 0.272E+00 0.329E+00 0.377E+00 0.382E+00 0.392E+00 0.935E+00 0.955E+00


 Contracted 2-electron integrals neglected if value below      1.0D-11
 AO integral compression algorithm  1   Integral accuracy      1.0D-11

     0.262 MB (compressed) written to integral file (100.0%)


 NUMBER OF SORTED TWO-ELECTRON INTEGRALS:       7260.     BUFFER LENGTH:  32768
 NUMBER OF SEGMENTS:   1  SEGMENT LENGTH:       7260      RECORD LENGTH: 524288

 Memory used in sort:       0.56 MW

 SORT1 READ        9024. AND WROTE        6273. INTEGRALS IN      1 RECORDS. CPU TIME:     0.00 SEC, REAL TIME:     0.00 SEC
 SORT2 READ        6273. AND WROTE        7260. INTEGRALS IN      1 RECORDS. CPU TIME:     0.01 SEC, REAL TIME:     0.00 SEC

 FILE SIZES:   FILE 1:    30.3 MBYTE,  FILE 4:     4.2 MBYTE,   TOTAL:     34.5 MBYTE

 OPERATOR DM      FOR CENTER  0  COORDINATES:    0.000000    0.000000    0.000000


 **********************************************************************************************************************************
 DATASETS  * FILE   NREC   LENGTH (MB)   RECORD NAMES
              1      19       30.09       500      610      700      900      950      970     1000      129      960     1100   
                                          VAR    BASINP    GEOM    SYMINP    ZMAT    AOBASIS   BASIS     P2S    ABASIS      S 
                                         1400     1410     1200     1210     1080     1600     1650     1300     1700   
                                           T        V       H0       H01     AOSYM     SMH    MOLCAS    ERIS     OPER   

 PROGRAMS   *        TOTAL       INT
 CPU TIMES  *         0.33      0.19
 REAL TIME  *         0.78 SEC
 DISK USED  *        34.91 MB      
 **********************************************************************************************************************************

 Density functional group M06-L=XC-M06-L
 Functional: XC-M06-L(via MFM 1.6)                                             Gradient terms: 1
 Use grid at  1800.2

 Functional: XC-M06-L                  Factor:  1.0000

 Generated new metagrid on record  1800.2 with target accuracy 1.0D-06 and 23794 points in CPU time    0.5
 Computed new grid on record 1800.1 in CPU time    0.5
   15985 words reserved for DFT integration

 PROGRAM * RKS-SCF (Restricted open shell Kohn-Sham)     Authors: W. Meyer, H.-J. Werner, P.J. Knowles, 1993

 NUMBER OF ELECTRONS:       9+    8-    SPACE SYMMETRY=1    SPIN SYMMETRY: Doublet 
 CONVERGENCE THRESHOLDS:    1.00E-05 (Density)    1.00E-06 (Energy)
 MAX. NUMBER OF ITERATIONS:       60
 INTERPOLATION TYPE:            DIIS
 INTERPOLATION STEPS:              2 (START)      1 (STEP)
 LEVEL SHIFTS:                 -0.60 (CLOSED) -0.30 (OPEN) 



 Use fine grid record 1800.2 for energy threshold  1.0D-06
 Orbital guess generated from atomic densities. Full valence occupancy:    9

 Molecular orbital dump at record        2100.2

 Initial alpha occupancy:   9
 Initial beta  occupancy:   8
 Wave function symmetry:    1

 ITERATION    DDIFF          GRAD             ENERGY        2-EL.EN.            DIPOLE MOMENTS         DIIS   ORB.
    1      0.000D+00      0.000D+00       -78.08449754    153.583820   -0.11815   -0.20831    0.00000    0    start
    2      0.000D+00      0.288D-01       -78.15786268    149.599825   -0.02933   -0.05559    0.00000    1    diag,B
    3      0.594D-01      0.267D-02       -78.15854672    149.804384   -0.03241   -0.06874    0.00000    2    diag,B
    4      0.463D-02      0.501D-03       -78.15862832    149.792901   -0.03111   -0.07244    0.00000    3    diag,B
    5      0.110D-02      0.182D-03       -78.15864437    149.792332   -0.02934   -0.07234    0.00000    4    diag,B
    6      0.567D-03      0.395D-04       -78.15864509    149.792155   -0.02876   -0.07181    0.00000    5    diag,B
    7      0.117D-03      0.109D-04       -78.15864514    149.792290   -0.02860   -0.07160    0.00000    6    fixocc
    8      0.378D-04      0.243D-05       -78.15864515    149.792289   -0.02858   -0.07164    0.00000    7    diag,B
    9      0.880D-05      0.486D-06       -78.15864515    149.792288   -0.02857   -0.07164    0.00000    0    orth

 Final alpha occupancy:   9
 Final beta  occupancy:   8

 !RKS STATE 1.1 Energy                -78.158645145694
 Nuclear energy                        36.86300145
 One-electron energy                 -177.22651382
 Two-electron energy                   74.89614424
 Density functional                   -12.69127701     XC-M06-L=-12.69127701
 Virial quotient                       -1.01309497
 !RKS STATE 1.1 Dipole moment          -0.02857345    -0.07163819     0.00000000
 Dipole moment /Debye                  -0.07262171    -0.18207419     0.00000000

 Orbital energies:

         1.1          2.1          3.1          4.1          5.1          6.1          7.1          8.1          9.1         10.1
     -9.874066    -9.826677    -0.670764    -0.523682    -0.374514    -0.336078    -0.311350    -0.283281    -0.097852     0.363847

        11.1
      0.375353

 HOMO      9.1    -0.097852 =      -2.6627eV
 LUMO     10.1     0.363847 =       9.9008eV
 LUMO-HOMO         0.461698 =      12.5634eV


 **********************************************************************************************************************************
 DATASETS  * FILE   NREC   LENGTH (MB)   RECORD NAMES
              1      20       30.85       500      610      700      900      950      970     1000      129      960     1100   
                                          VAR    BASINP    GEOM    SYMINP    ZMAT    AOBASIS   BASIS     P2S    ABASIS      S 
                                         1400     1410     1200     1210     1080     1600     1650     1300     1700     1800   
                                           T        V       H0       H01     AOSYM     SMH    MOLCAS    ERIS     OPER     GRID   

              2       5        2.86       700     1000      520     1800     2100   
                                         GEOM     BASIS   MCVARS    GRID      RKS  

 PROGRAMS   *        TOTAL        KS       INT
 CPU TIMES  *         3.36      3.03      0.19
 REAL TIME  *         4.39 SEC
 DISK USED  *        34.91 MB      
 **********************************************************************************************************************************


 PROGRAM * Intrinsic Basis Bonding Analysis (IBBA)          Author: G. Knizia

 Molecular orbitals read from record     2100.2  Type=RKS/CANONICAL (state 1.1)
 Fock matrix read from record            2100.2  Type=RKS/TOTAL (state 1.1)
 Orbital energies read from record       2100.2  Type=RKS/CANONICAL (state 1.1)
 Density matrix read from record         2100.2  Type=RKS/CHARGE (state 1.1)

 Number of core orbitals:           2 (   2 )
 Number of closed-shell orbitals:   6 (   6 )
 Number of active  orbitals:        1 (   1 )

 Basis set MINAO-AUTO-PP generated.      Number of basis functions:   15 

 Polarized AO type:                A = (O Ot + (1-O)(1-Ot)) P12
 Orthogonalization method:         Symmetric (Loewdin)
 Localization functional:          L = sum[A,i] <i|n_A|i>^4 -> max

 Localization group 1:   8 orbitals, occupancy  2.000
 Iterative localization: IB/PM,    6 iter; Final gradient 0.34E-08

 Bond order analysis:       [THRPRINT= 0.020]

   CEN ATOM   CEN ATOM     WIBERG.BO      RENORM.BO
     1   C  -   2   C       1.098663       2.019948
     1   C  -   5   H       0.972293       0.984041
     1   C  -   4   H       0.972293       0.984041
     1   C  -   3   H       0.036272       0.650614

     2   C  -   1   C       1.098663       2.019948
     2   C  -   7   H       0.954672       0.989461
     2   C  -   6   H       0.954672       0.989461
     2   C  -   3   H       0.927759       0.999176

     3   H  -   2   C       0.927759       0.999176
     3   H  -   1   C       0.036272       0.650614

     4   H  -   1   C       0.972293       0.984041

     5   H  -   1   C       0.972293       0.984041

     6   H  -   2   C       0.954672       0.989461

     7   H  -   2   C       0.954672       0.989461


 Valency analysis:

   CEN ATOM   TOT.VALENCE
     1   C       3.097188
     2   C       3.937690
     3   H       0.970297
     4   H       0.986485
     5   H       0.986485
     6   H       0.979444
     7   H       0.979444
 Localization group 2:   1 orbitals, occupancy  1.000
 Iterative localization: IB/PM,    1 iter; Final gradient 0.00E+00

 Bond order analysis:       [THRPRINT= 0.020]

   CEN ATOM   CEN ATOM     WIBERG.BO      RENORM.BO
     1   C  -   3   H       0.078618       0.500000


     3   H  -   1   C       0.078618       0.500000






 Valency analysis:

   CEN ATOM   TOT.VALENCE
     1   C       0.119753
     2   C       0.005537
     3   H       0.080463
     4   H       0.000166
     5   H       0.000166
     6   H       0.018849
     7   H       0.018849

 Total charge composition:

   CEN ATOM         s          p       ELECTRONS ->P.CHARGE
     1   C       3.04316    3.18311      6.22626   -0.22626
     2   C       3.00283    3.40131      6.40414   -0.40414
     3   H       0.86965                 0.86965    0.13035
     4   H       0.88383                 0.88383    0.11617
     5   H       0.88383                 0.88383    0.11617
     6   H       0.86614                 0.86614    0.13386
     7   H       0.86614                 0.86614    0.13386

 Total charge composition, AO contributions:

   CEN ATOM SHL      SPHERICAL COMPONENTS
     1   C  1s       1.99285
     1   C  2s       1.05031
     1   C  2p       1.00060    1.04595    1.13656

     2   C  1s       1.99141
     2   C  2s       1.01142
     2   C  2p       1.16059    1.07591    1.16481

     3   H  1s       0.86965

     4   H  1s       0.88383

     5   H  1s       0.88383

     6   H  1s       0.86614

     7   H  1s       0.86614

 Active orbital charges:

   CEN ATOM         s          p       ELECTRONS ->SPIN.DEN
     1   C       0.00442    0.93161      0.93603    0.93603
     2   C       0.00002    0.00275      0.00278    0.00278
     3   H       0.04200                 0.04200    0.04200
     4   H       0.00008                 0.00008    0.00008
     5   H       0.00008                 0.00008    0.00008
     6   H       0.00952                 0.00952    0.00952
     7   H       0.00952                 0.00952    0.00952

 Active orbital charges, AO contributions:

   CEN ATOM SHL      SPHERICAL COMPONENTS
     1   C  1s       0.00000
     1   C  2s       0.00442
     1   C  2p       0.92761    0.00400    0.00000

     2   C  1s       0.00000
     2   C  2s       0.00002
     2   C  2p       0.00266    0.00010    0.00000

     3   H  1s       0.04200

     4   H  1s       0.00008

     5   H  1s       0.00008

     6   H  1s       0.00952

     7   H  1s       0.00952

 Summary of localized orbital composition:   [THRPRINT= 0.020]

   ORB  GRP  ORB.ENERGY      CENTERS/CHARGES
     1   1    -9.759743      C  2   2.000
     2   1    -9.723933      C  1   2.000
     3   1    -0.520751      C  2   1.011   C  1   0.986
     4   1    -0.447698      C  1   1.116   H  4   0.879
     5   1    -0.447698      C  1   1.116   H  5   0.879
     6   1    -0.435097      C  2   1.128   H  3   0.825   C  1   0.046
     7   1    -0.432745      C  2   1.129   H  7   0.852
     8   1    -0.432745      C  2   1.129   H  6   0.852
     9   2    -0.020027      C  1   0.936   H  3   0.042   (other: 0.022)

 Localized orbitals saved to record      2100.2  (orbital set 2)


 **********************************************************************************************************************************
 DATASETS  * FILE   NREC   LENGTH (MB)   RECORD NAMES
              1      20       30.85       500      610      700      900      950      970     1000      129      960     1100   
                                          VAR    BASINP    GEOM    SYMINP    ZMAT    AOBASIS   BASIS     P2S    ABASIS      S 
                                         1400     1410     1200     1210     1080     1600     1650     1300     1700     1800   
                                           T        V       H0       H01     AOSYM     SMH    MOLCAS    ERIS     OPER     GRID   

              2       5        2.86       700     1000      520     1800     2100   
                                         GEOM     BASIS   MCVARS    GRID      RKS  

 PROGRAMS   *        TOTAL      IBBA        KS       INT
 CPU TIMES  *         3.39      0.02      3.03      0.19
 REAL TIME  *         4.49 SEC
 DISK USED  *        34.91 MB      
 **********************************************************************************************************************************
 Molecular orbitals read from record     2100.2  Type=RKS/LOCAL(IBO)  
 Occupation numbers read from record     2100.2  Type=RKS/LOCAL(IBO)  
 Orbital energies read from record       2100.2  Type=RKS/LOCAL(IBO)  
 Redundancy group numbers read from rec  2100.2  Type=RKS/LOCAL(IBO)  

 IBBA/STO-3G energy=      0.000000000000

        KS-SCF  
    -78.15864515
 **********************************************************************************************************************************
 Molpro calculation terminated
