
 Primary working directories    : /tmp/sb13343
 Secondary working directories  : /tmp/sb13343
 Wavefunction directory         : /panfs/panasas01/chem/sb13343/wfu/
 Main file repository           : /tmp/sb13343/

 SHA1      : b4a5b34a9e711420743f49e6833241d17c61fb3c
 NAME      : 2099.9.b4a5b34
 ARCHNAME  : linux/x86_64_openmp
 FC        : /cm/shared/languages/GCC-6.1/bin/gfortran
 BLASLIB   : -lblas
 id        : simonbennie

 Nodes     nprocs
 node35-048    1

 Using customized tuning parameters: mindgm=1; mindgv=20; mindgc=4; mindgr=1; noblas=0; minvec=7
 default implementation of scratch files=df  

 memory,500,m
 geomtyp=xyz
 nosym
 noorient
 geometry={
 C         -0.00146        0.79548        0.00000
 C          0.02225       -0.69390        0.00000
 H         -0.99481       -1.12636        0.00000
 H         -0.09300        1.35197        0.92746
 H         -0.09300        1.35197       -0.92746
 H          0.52802       -1.09351        0.88764
 H          0.52802       -1.09351       -0.88764
 }
 basis={ default,sto-3g }
 {uks,M06-HF,direct;wf,17,1,1}
 {ibba,bonds=1}

 Variables initialized (895), CPU time= 0.00 sec
 Commands  initialized (725), CPU time= 0.02 sec, 591 directives.
 Default parameters read. Elapsed time= 0.09 sec

 Checking input...
 Passed
1


                                         ***  PROGRAM SYSTEM MOLPRO  ***
                                       Copyright, TTI GmbH Stuttgart, 2015
                                    Version 2099.9 linked May 26 2017 16:03:21


 **********************************************************************************************************************************
 LABEL *                                                                                 
  64 bit serial version                                                                  DATE: 08-Jun-17          TIME: 04:49:49  
 **********************************************************************************************************************************

 SHA1:             b4a5b34a9e711420743f49e6833241d17c61fb3c
 **********************************************************************************************************************************
 SETTING GEOMTYP        =    XYZ

 Variable memory set to  500000000 words,  buffer space 

 ZSYMEL=NOSYM

 SETTING BASIS          =    STO-3G


 Recomputing integrals since basis changed


 Using spherical harmonics

 Library entry C      S STO-3G               selected for orbital group  1
 Library entry C      P STO-3G               selected for orbital group  1
 Library entry H      S STO-3G               selected for orbital group  2


 PROGRAM * SEWARD (Integral evaluation for generally contracted gaussian basis sets)     Author: Roland Lindh, 1990

 Geometry written to block  1 of record 700


 Point group  C1  



 ATOMIC COORDINATES

 NR  ATOM    CHARGE       X              Y              Z

   1  C       6.00   -0.002759000    1.503239338    0.000000000
   2  C       6.00    0.042046406   -1.311280958    0.000000000
   3  H       1.00   -1.879918446   -2.128511918    0.000000000
   4  H       1.00   -0.175744530    2.554853029    1.752645391
   5  H       1.00   -0.175744530    2.554853029   -1.752645391
   6  H       1.00    0.997813188   -2.066434414    1.677396497
   7  H       1.00    0.997813188   -2.066434414   -1.677396497

 Bond lengths in Bohr (Angstrom)

 1-2  2.814876910  1-4  2.051238947  1-5  2.051238947  2-3  2.088495950  2-6  2.073018546
     ( 1.489568712)     ( 1.085468905)     ( 1.085468905)     ( 1.105184462)     ( 1.096994173)

 2-7  2.073018546
     ( 1.096994173)

 Bond angles

  1-2-3  112.12345176   1-2-6  111.81246303   1-2-7  111.81246303   2-1-4  120.92728687

  2-1-5  120.92728687   3-2-6  106.36442052   3-2-7  106.36442052   4-1-5  117.39421083

  6-2-7  108.02720793

 NUCLEAR CHARGE:                   17
 NUMBER OF PRIMITIVE AOS:          45
 NUMBER OF SYMMETRY AOS:           45
 NUMBER OF CONTRACTIONS:           15   (  15A   )
 NUMBER OF CORE ORBITALS:           2   (   2A   )
 NUMBER OF VALENCE ORBITALS:       13   (  13A   )


 NUCLEAR REPULSION ENERGY   36.86300145


 Eigenvalues of metric

         1 0.218E+00 0.272E+00 0.329E+00 0.377E+00 0.382E+00 0.392E+00 0.935E+00 0.955E+00


 Contracted 2-electron integrals neglected if value below      1.0D-11
 AO integral compression algorithm  1   Integral accuracy      1.0D-11

     0.262 MB (compressed) written to integral file (100.0%)


 NUMBER OF SORTED TWO-ELECTRON INTEGRALS:       7260.     BUFFER LENGTH:  32768
 NUMBER OF SEGMENTS:   1  SEGMENT LENGTH:       7260      RECORD LENGTH: 524288

 Memory used in sort:       0.56 MW

 SORT1 READ        9024. AND WROTE        6273. INTEGRALS IN      1 RECORDS. CPU TIME:     0.00 SEC, REAL TIME:     0.01 SEC
 SORT2 READ        6273. AND WROTE        7260. INTEGRALS IN      1 RECORDS. CPU TIME:     0.01 SEC, REAL TIME:     0.01 SEC

 FILE SIZES:   FILE 1:    30.3 MBYTE,  FILE 4:     4.2 MBYTE,   TOTAL:     34.5 MBYTE

 OPERATOR DM      FOR CENTER  0  COORDINATES:    0.000000    0.000000    0.000000


 **********************************************************************************************************************************
 DATASETS  * FILE   NREC   LENGTH (MB)   RECORD NAMES
              1      19       30.09       500      610      700      900      950      970     1000      129      960     1100   
                                          VAR    BASINP    GEOM    SYMINP    ZMAT    AOBASIS   BASIS     P2S    ABASIS      S 
                                         1400     1410     1200     1210     1080     1600     1650     1300     1700   
                                           T        V       H0       H01     AOSYM     SMH    MOLCAS    ERIS     OPER   

 PROGRAMS   *        TOTAL       INT
 CPU TIMES  *         0.35      0.20
 REAL TIME  *         0.70 SEC
 DISK USED  *        34.91 MB      
 **********************************************************************************************************************************

 Density functional group M06-HF=XC-M06-HF
 Functional: XC-M06-HF(via MFM 1.6)                                            Gradient terms: 1
 Use grid at  1800.2


 Exact exchange will be calculated, factor:  1.0000

 Functional: XC-M06-HF                 Factor:  1.0000

 Generated new metagrid on record  1800.2 with target accuracy 1.0D-06 and 23794 points in CPU time    0.5
 Computed new grid on record 1800.1 in CPU time    0.6
   15985 words reserved for DFT integration

 PROGRAM * UKS-SCF (Unrestricted Kohn-Sham)     Authors: W. Meyer, H.-J. Werner, P.J. Knowles, 1993

 NUMBER OF ELECTRONS:       9+    8-    SPACE SYMMETRY=1    SPIN SYMMETRY: Doublet 
 CONVERGENCE THRESHOLDS:    1.00E-05 (Density)    1.00E-06 (Energy)
 MAX. NUMBER OF ITERATIONS:       60
 INTERPOLATION TYPE:            DIIS
 INTERPOLATION STEPS:              2 (START)      1 (STEP)
 LEVEL SHIFTS:                 -0.20 (ALPHA)  -0.20 (BETA) 



 Use fine grid record 1800.2 for energy threshold  1.0D-06
 Orbital guess generated from atomic densities. Full valence occupancy:    9

 Molecular orbital dump at record        2200.2

 Initial alpha occupation   9
 Initial beta  occupation   8

 ITERATION    DDIFF          GRAD             ENERGY        2-EL.EN.            DIPOLE MOMENTS         DIIS
    1      0.000D+00      0.000D+00       -78.16539061    127.989893   -0.10649   -0.25530    0.00000    0
    2      0.347D-01      0.168D-01       -78.20968122    125.728438   -0.05477   -0.13632    0.00000    1
    3      0.634D-02      0.442D-02       -78.21320875    125.393407   -0.03773   -0.07810    0.00000    2
    4      0.372D-02      0.202D-02       -78.21441096    125.359808   -0.02962   -0.04290    0.00000    3
    5      0.128D-02      0.644D-03       -78.21454775    125.362092   -0.02765   -0.03485    0.00000    4
    6      0.534D-03      0.176D-03       -78.21455972    125.361225   -0.02729   -0.03533    0.00000    5
    7      0.809D-04      0.364D-04       -78.21456030    125.361646   -0.02717   -0.03541    0.00000    6
    8      0.287D-04      0.141D-04       -78.21456038    125.361649   -0.02714   -0.03541    0.00000    6
    9      0.856D-05      0.325D-05       -78.21456039    125.361582   -0.02714   -0.03541    0.00000    6
   10      0.234D-05      0.905D-06       -78.21456039    125.361605   -0.02715   -0.03540    0.00000    6

 Final alpha occupancy:   9
 Final beta  occupancy:   8

 !UKS STATE 1.1 Energy                -78.214560388456
 Nuclear energy                        36.86300145
 One-electron energy                 -177.20306007
 Two-electron energy                   62.68080265
 Density functional                    -0.55530441     XC-M06-HF=-0.55530441
 Virial quotient                       -1.01356708
 !UKS STATE 1.1 Dipole moment          -0.02714631    -0.03540323     0.00000000
 Dipole moment /Debye                  -0.06899451    -0.08998015     0.00000000

 Orbital energies for positive spin:

         1.1          2.1          3.1          4.1          5.1          6.1          7.1          8.1          9.1         10.1
    -10.794160   -10.750115    -0.916862    -0.752578    -0.572151    -0.530983    -0.491652    -0.464123    -0.287566     0.556072

        11.1
      0.564942

 Orbital energies for negative spin:

         1.1          2.1          3.1          4.1          5.1          6.1          7.1          8.1          9.1         10.1
    -10.794550   -10.752129    -0.890818    -0.721433    -0.564242    -0.510632    -0.471798    -0.460974     0.212246     0.596234

        11.1
      0.603309

 HOMO      9.1    -0.287566 =      -7.8251eV
 LUMO     -9.1     0.212246 =       5.7755eV
 LUMO-HOMO         0.499812 =      13.6006eV

 EXPECTATION VALUE OF S**2:             0.75421529

 Occupation number threshold for canonical orbitals:  1.999000 (occupied),  0.001000 (virtual)

 Number of pseudo-canonical orbitals per symmetry:    7
 Number of active natural orbitals per symmetry:      3

 Natural orbitals saved to record    2200.2 (Orbital set 3)

 Orbital spaces for UNO-CAS (Min. occupation: 0.020  Max. occupation: 1.980):

 Closed:        8
 Active:        1


 **********************************************************************************************************************************
 DATASETS  * FILE   NREC   LENGTH (MB)   RECORD NAMES
              1      20       30.85       500      610      700      900      950      970     1000      129      960     1100   
                                          VAR    BASINP    GEOM    SYMINP    ZMAT    AOBASIS   BASIS     P2S    ABASIS      S 
                                         1400     1410     1200     1210     1080     1600     1650     1300     1700     1800   
                                           T        V       H0       H01     AOSYM     SMH    MOLCAS    ERIS     OPER     GRID   

              2       5        2.86       700     1000      520     1800     2200   
                                         GEOM     BASIS   MCVARS    GRID      UKS  

 PROGRAMS   *        TOTAL       UKS       INT
 CPU TIMES  *         3.70      3.34      0.20
 REAL TIME  *         4.67 SEC
 DISK USED  *        34.91 MB      
 **********************************************************************************************************************************


 PROGRAM * Intrinsic Basis Bonding Analysis (IBBA)          Author: G. Knizia

 Molecular orbitals read from record     2200.2  Type=UKS/ALPHA (state 1.1)
 Fock matrix read from record            2200.2  Type=UKS/TOTAL (state 1.1)
 Orbital energies read from record       2200.2  Type=UKS/ALPHA (state 1.1)
 Density matrix read from record         2200.2  Type=UKS/CHARGE (state 1.1)

 Number of core orbitals:           2 (   2 )
 Number of closed-shell orbitals:   6 (   6 )
 Number of active  orbitals:        1 (   1 )

 Basis set MINAO-AUTO-PP generated.      Number of basis functions:   15 

 Polarized AO type:                A = (O Ot + (1-O)(1-Ot)) P12
 Orthogonalization method:         Symmetric (Loewdin)
 Localization functional:          L = sum[A,i] <i|n_A|i>^4 -> max

 Localization group 1:   8 orbitals, occupancy  2.000
 Iterative localization: IB/PM,    6 iter; Final gradient 0.81E-08

 Bond order analysis:       [THRPRINT= 0.020]

   CEN ATOM   CEN ATOM     WIBERG.BO      RENORM.BO
     1   C  -   2   C       1.248853       2.014496
     1   C  -   5   H       0.967969       0.987850
     1   C  -   4   H       0.967969       0.987850
     1   C  -   3   H       0.106664       0.624021
     1   C  -   6   H       0.023883       0.122414
     1   C  -   7   H       0.023883       0.122414

     2   C  -   1   C       1.248853       2.014496
     2   C  -   7   H       0.936088       0.992314
     2   C  -   6   H       0.936088       0.992314
     2   C  -   3   H       0.829332       0.999024

     3   H  -   2   C       0.829332       0.999024
     3   H  -   1   C       0.106664       0.624021

     4   H  -   1   C       0.967969       0.987850

     5   H  -   1   C       0.967969       0.987850

     6   H  -   2   C       0.936088       0.992314
     6   H  -   1   C       0.023883       0.122414

     7   H  -   2   C       0.936088       0.992314
     7   H  -   1   C       0.023883       0.122414


 Valency analysis:

   CEN ATOM   TOT.VALENCE
     1   C       3.339221
     2   C       3.952342
     3   H       0.954032
     4   H       0.979319
     5   H       0.979319
     6   H       0.977888
     7   H       0.977888
 Localization group 2:   1 orbitals, occupancy  1.000
 Iterative localization: IB/PM,    1 iter; Final gradient 0.00E+00

 Bond order analysis:       [THRPRINT= 0.020]

   CEN ATOM   CEN ATOM     WIBERG.BO      RENORM.BO
     1   C  -   3   H       0.123631       0.500000
     1   C  -   2   C       0.058142       0.500000
     1   C  -   6   H       0.026427       0.500000
     1   C  -   7   H       0.026427       0.500000

     2   C  -   1   C       0.058142       0.500000

     3   H  -   1   C       0.123631       0.500000



     6   H  -   1   C       0.026427       0.500000

     7   H  -   1   C       0.026427       0.500000


 Valency analysis:

   CEN ATOM   TOT.VALENCE
     1   C       0.236048
     2   C       0.065081
     3   H       0.132955
     4   H       0.000823
     5   H       0.000823
     6   H       0.030144
     7   H       0.030144

 Total charge composition:

   CEN ATOM         s          p       ELECTRONS ->P.CHARGE
     1   C       3.06348    3.33342      6.39690   -0.39690
     2   C       2.95751    3.34197      6.29948   -0.29948
     3   H       0.85720                 0.85720    0.14280
     4   H       0.85660                 0.85660    0.14340
     5   H       0.85660                 0.85660    0.14340
     6   H       0.86660                 0.86660    0.13340
     7   H       0.86660                 0.86660    0.13340

 Total charge composition, AO contributions:

   CEN ATOM SHL      SPHERICAL COMPONENTS
     1   C  1s       1.99218
     1   C  2s       1.07130
     1   C  2p       1.07753    1.08342    1.17247

     2   C  1s       1.99096
     2   C  2s       0.96655
     2   C  2p       1.12337    1.04856    1.17004

     3   H  1s       0.85720

     4   H  1s       0.85660

     5   H  1s       0.85660

     6   H  1s       0.86660

     7   H  1s       0.86660

 Active orbital charges:

   CEN ATOM         s          p       ELECTRONS ->SPIN.DEN
     1   C       0.00226    0.86103      0.86328    0.86328
     2   C       0.00007    0.03360      0.03367    0.03367
     3   H       0.07160                 0.07160    0.07160
     4   H       0.00041                 0.00041    0.00041
     5   H       0.00041                 0.00041    0.00041
     6   H       0.01531                 0.01531    0.01531
     7   H       0.01531                 0.01531    0.01531

 Active orbital charges, AO contributions:

   CEN ATOM SHL      SPHERICAL COMPONENTS
     1   C  1s       0.00001
     1   C  2s       0.00225
     1   C  2p       0.85738    0.00365    0.00000

     2   C  1s       0.00000
     2   C  2s       0.00007
     2   C  2p       0.03313    0.00047    0.00000

     3   H  1s       0.07160

     4   H  1s       0.00041

     5   H  1s       0.00041

     6   H  1s       0.01531

     7   H  1s       0.01531

 Summary of localized orbital composition:   [THRPRINT= 0.020]

   ORB  GRP  ORB.ENERGY      CENTERS/CHARGES
     1   1   -10.675655      C  2   2.000
     2   1   -10.637665      C  1   2.000
     3   1    -0.716646      C  1   1.025   C  2   0.970
     4   1    -0.651809      C  1   1.144   H  4   0.852
     5   1    -0.651809      C  1   1.144   H  5   0.852
     6   1    -0.625130      C  2   1.114   H  7   0.846   C  1   0.034
     7   1    -0.625130      C  2   1.114   H  6   0.846   C  1   0.034
     8   1    -0.621221      C  2   1.064   H  3   0.779   C  1   0.152
     9   2    -0.048089      C  1   0.863   H  3   0.072   C  2   0.034   (other: 0.031)

 Localized orbitals saved to record      2200.2  (orbital set 4)


 **********************************************************************************************************************************
 DATASETS  * FILE   NREC   LENGTH (MB)   RECORD NAMES
              1      20       30.85       500      610      700      900      950      970     1000      129      960     1100   
                                          VAR    BASINP    GEOM    SYMINP    ZMAT    AOBASIS   BASIS     P2S    ABASIS      S 
                                         1400     1410     1200     1210     1080     1600     1650     1300     1700     1800   
                                           T        V       H0       H01     AOSYM     SMH    MOLCAS    ERIS     OPER     GRID   

              2       5        2.87       700     1000      520     1800     2200   
                                         GEOM     BASIS   MCVARS    GRID      UKS  

 PROGRAMS   *        TOTAL      IBBA       UKS       INT
 CPU TIMES  *         3.72      0.02      3.34      0.20
 REAL TIME  *         4.75 SEC
 DISK USED  *        34.91 MB      
 **********************************************************************************************************************************
 Molecular orbitals read from record     2200.2  Type=UKS/LOCAL(IBO)  
 Occupation numbers read from record     2200.2  Type=UKS/LOCAL(IBO)  
 Orbital energies read from record       2200.2  Type=UKS/LOCAL(IBO)  
 Redundancy group numbers read from rec  2200.2  Type=UKS/BETA (state 1.1)

 IBBA/STO-3G energy=      0.000000000000

        UKS-SCF 
    -78.21456039
 **********************************************************************************************************************************
 Molpro calculation terminated
