
 Primary working directories    : /tmp/sb13343
 Secondary working directories  : /tmp/sb13343
 Wavefunction directory         : /panfs/panasas01/chem/sb13343/wfu/
 Main file repository           : /tmp/sb13343/

 SHA1      : b4a5b34a9e711420743f49e6833241d17c61fb3c
 NAME      : 2099.9.b4a5b34
 ARCHNAME  : linux/x86_64_openmp
 FC        : /cm/shared/languages/GCC-6.1/bin/gfortran
 BLASLIB   : -lblas
 id        : simonbennie

 Nodes     nprocs
 node35-048    1

 Using customized tuning parameters: mindgm=1; mindgv=20; mindgc=4; mindgr=1; noblas=0; minvec=7
 default implementation of scratch files=df  

 memory,500,m
 geomtyp=xyz
 nosym
 noorient
 geometry={
 C         -0.00146        0.79548        0.00000
 C          0.02225       -0.69390        0.00000
 H         -0.99481       -1.12636        0.00000
 H         -0.09300        1.35197        0.92746
 H         -0.09300        1.35197       -0.92746
 H          0.52802       -1.09351        0.88764
 H          0.52802       -1.09351       -0.88764
 }
 basis={ default,sto-3g }
 {ks,LSDC,direct;wf,17,1,1}
 {ibba,bonds=1}

 Variables initialized (895), CPU time= 0.00 sec
 Commands  initialized (725), CPU time= 0.02 sec, 591 directives.
 Default parameters read. Elapsed time= 0.09 sec

 Checking input...
 Passed
1


                                         ***  PROGRAM SYSTEM MOLPRO  ***
                                       Copyright, TTI GmbH Stuttgart, 2015
                                    Version 2099.9 linked May 26 2017 16:03:21


 **********************************************************************************************************************************
 LABEL *                                                                                 
  64 bit serial version                                                                  DATE: 08-Jun-17          TIME: 04:39:42  
 **********************************************************************************************************************************

 SHA1:             b4a5b34a9e711420743f49e6833241d17c61fb3c
 **********************************************************************************************************************************
 SETTING GEOMTYP        =    XYZ

 Variable memory set to  500000000 words,  buffer space 

 ZSYMEL=NOSYM

 SETTING BASIS          =    STO-3G


 Recomputing integrals since basis changed


 Using spherical harmonics

 Library entry C      S STO-3G               selected for orbital group  1
 Library entry C      P STO-3G               selected for orbital group  1
 Library entry H      S STO-3G               selected for orbital group  2


 PROGRAM * SEWARD (Integral evaluation for generally contracted gaussian basis sets)     Author: Roland Lindh, 1990

 Geometry written to block  1 of record 700


 Point group  C1  



 ATOMIC COORDINATES

 NR  ATOM    CHARGE       X              Y              Z

   1  C       6.00   -0.002759000    1.503239338    0.000000000
   2  C       6.00    0.042046406   -1.311280958    0.000000000
   3  H       1.00   -1.879918446   -2.128511918    0.000000000
   4  H       1.00   -0.175744530    2.554853029    1.752645391
   5  H       1.00   -0.175744530    2.554853029   -1.752645391
   6  H       1.00    0.997813188   -2.066434414    1.677396497
   7  H       1.00    0.997813188   -2.066434414   -1.677396497

 Bond lengths in Bohr (Angstrom)

 1-2  2.814876910  1-4  2.051238947  1-5  2.051238947  2-3  2.088495950  2-6  2.073018546
     ( 1.489568712)     ( 1.085468905)     ( 1.085468905)     ( 1.105184462)     ( 1.096994173)

 2-7  2.073018546
     ( 1.096994173)

 Bond angles

  1-2-3  112.12345176   1-2-6  111.81246303   1-2-7  111.81246303   2-1-4  120.92728687

  2-1-5  120.92728687   3-2-6  106.36442052   3-2-7  106.36442052   4-1-5  117.39421083

  6-2-7  108.02720793

 NUCLEAR CHARGE:                   17
 NUMBER OF PRIMITIVE AOS:          45
 NUMBER OF SYMMETRY AOS:           45
 NUMBER OF CONTRACTIONS:           15   (  15A   )
 NUMBER OF CORE ORBITALS:           2   (   2A   )
 NUMBER OF VALENCE ORBITALS:       13   (  13A   )


 NUCLEAR REPULSION ENERGY   36.86300145


 Eigenvalues of metric

         1 0.218E+00 0.272E+00 0.329E+00 0.377E+00 0.382E+00 0.392E+00 0.935E+00 0.955E+00


 Contracted 2-electron integrals neglected if value below      1.0D-11
 AO integral compression algorithm  1   Integral accuracy      1.0D-11

     0.262 MB (compressed) written to integral file (100.0%)


 NUMBER OF SORTED TWO-ELECTRON INTEGRALS:       7260.     BUFFER LENGTH:  32768
 NUMBER OF SEGMENTS:   1  SEGMENT LENGTH:       7260      RECORD LENGTH: 524288

 Memory used in sort:       0.56 MW

 SORT1 READ        9024. AND WROTE        6273. INTEGRALS IN      1 RECORDS. CPU TIME:     0.00 SEC, REAL TIME:     0.01 SEC
 SORT2 READ        6273. AND WROTE        7260. INTEGRALS IN      1 RECORDS. CPU TIME:     0.00 SEC, REAL TIME:     0.00 SEC

 FILE SIZES:   FILE 1:    30.3 MBYTE,  FILE 4:     4.2 MBYTE,   TOTAL:     34.5 MBYTE

 OPERATOR DM      FOR CENTER  0  COORDINATES:    0.000000    0.000000    0.000000


 **********************************************************************************************************************************
 DATASETS  * FILE   NREC   LENGTH (MB)   RECORD NAMES
              1      19       30.09       500      610      700      900      950      970     1000      129      960     1100   
                                          VAR    BASINP    GEOM    SYMINP    ZMAT    AOBASIS   BASIS     P2S    ABASIS      S 
                                         1400     1410     1200     1210     1080     1600     1650     1300     1700   
                                           T        V       H0       H01     AOSYM     SMH    MOLCAS    ERIS     OPER   

 PROGRAMS   *        TOTAL       INT
 CPU TIMES  *         0.35      0.20
 REAL TIME  *         0.71 SEC
 DISK USED  *        34.91 MB      
 **********************************************************************************************************************************

 Density functional group LSDC=PW92C
 Functional: PW92C(Automatically generated (new) PW92C)                        Gradient terms: 0
 Use grid at  1800.2

 Functional: PW92C                     Factor:  1.0000

 Generated new metagrid on record  1800.2 with target accuracy 1.0D-06 and 23794 points in CPU time    0.5
 Computed new grid on record 1800.1 in CPU time    0.6
   10270 words reserved for DFT integration

 PROGRAM * RKS-SCF (Restricted open shell Kohn-Sham)     Authors: W. Meyer, H.-J. Werner, P.J. Knowles, 1993

 NUMBER OF ELECTRONS:       9+    8-    SPACE SYMMETRY=1    SPIN SYMMETRY: Doublet 
 CONVERGENCE THRESHOLDS:    1.00E-05 (Density)    1.00E-06 (Energy)
 MAX. NUMBER OF ITERATIONS:       60
 INTERPOLATION TYPE:            DIIS
 INTERPOLATION STEPS:              2 (START)      1 (STEP)
 LEVEL SHIFTS:                 -0.60 (CLOSED) -0.30 (OPEN) 



 Use fine grid record 1800.2 for energy threshold  1.0D-06
 Orbital guess generated from atomic densities. Full valence occupancy:    9

 Molecular orbital dump at record        2100.2

 Initial alpha occupancy:   9
 Initial beta  occupancy:   8
 Wave function symmetry:    1

 ITERATION    DDIFF          GRAD             ENERGY        2-EL.EN.            DIPOLE MOMENTS         DIIS   ORB.
    1      0.000D+00      0.000D+00       -66.55723134    148.810341   -0.06661   -0.19446    0.00000    0    start
    2      0.000D+00      0.133D-01       -66.56871953    147.118840   -0.01415   -0.10220    0.00000    1    diag,B
    3      0.267D-01      0.384D-02       -66.56975328    147.504960   -0.02738   -0.12875    0.00000    2    diag,B
    4      0.601D-02      0.265D-03       -66.56976238    147.496283   -0.02770   -0.13139    0.00000    3    diag,B
    5      0.464D-03      0.965D-04       -66.56976350    147.496347   -0.02747   -0.13167    0.00000    4    diag,B
    6      0.183D-03      0.264D-04       -66.56976364    147.495871   -0.02752   -0.13200    0.00000    5    diag,B
    7      0.619D-04      0.427D-05       -66.56976364    147.495852   -0.02751   -0.13202    0.00000    6    fixocc
    8      0.123D-04      0.484D-06       -66.56976364    147.495847   -0.02751   -0.13202    0.00000    7    diag,B
    9      0.159D-05      0.685D-07       -66.56976364    147.495847   -0.02751   -0.13202    0.00000    0    orth

 Final alpha occupancy:   9
 Final beta  occupancy:   8

 !RKS STATE 1.1 Energy                -66.569763640545
 Nuclear energy                        36.86300145
 One-electron energy                 -176.15197285
 Two-electron energy                   73.74792344
 Density functional                    -1.02871568     PW92C=-1.02871568
 Virial quotient                       -0.88180698
 !RKS STATE 1.1 Dipole moment          -0.02751180    -0.13202303     0.00000000
 Dipole moment /Debye                  -0.06992344    -0.33554708     0.00000000

 Orbital energies:

         1.1          2.1          3.1          4.1          5.1          6.1          7.1          8.1          9.1         10.1
     -7.758026    -7.666577    -0.168416    -0.032010     0.071827     0.102537     0.156982     0.180460     0.413200     0.808309

        11.1
      0.861486

 HOMO      9.1     0.413200 =      11.2437eV
 LUMO     10.1     0.808309 =      21.9952eV
 LUMO-HOMO         0.395109 =      10.7515eV


 **********************************************************************************************************************************
 DATASETS  * FILE   NREC   LENGTH (MB)   RECORD NAMES
              1      20       30.85       500      610      700      900      950      970     1000      129      960     1100   
                                          VAR    BASINP    GEOM    SYMINP    ZMAT    AOBASIS   BASIS     P2S    ABASIS      S 
                                         1400     1410     1200     1210     1080     1600     1650     1300     1700     1800   
                                           T        V       H0       H01     AOSYM     SMH    MOLCAS    ERIS     OPER     GRID   

              2       5        2.86       700     1000      520     1800     2100   
                                         GEOM     BASIS   MCVARS    GRID      RKS  

 PROGRAMS   *        TOTAL        KS       INT
 CPU TIMES  *         1.46      1.11      0.20
 REAL TIME  *         1.98 SEC
 DISK USED  *        34.91 MB      
 **********************************************************************************************************************************


 PROGRAM * Intrinsic Basis Bonding Analysis (IBBA)          Author: G. Knizia

 Molecular orbitals read from record     2100.2  Type=RKS/CANONICAL (state 1.1)
 Fock matrix read from record            2100.2  Type=RKS/TOTAL (state 1.1)
 Orbital energies read from record       2100.2  Type=RKS/CANONICAL (state 1.1)
 Density matrix read from record         2100.2  Type=RKS/CHARGE (state 1.1)

 Number of core orbitals:           2 (   2 )
 Number of closed-shell orbitals:   6 (   6 )
 Number of active  orbitals:        1 (   1 )

 Basis set MINAO-AUTO-PP generated.      Number of basis functions:   15 

 Polarized AO type:                A = (O Ot + (1-O)(1-Ot)) P12
 Orthogonalization method:         Symmetric (Loewdin)
 Localization functional:          L = sum[A,i] <i|n_A|i>^4 -> max

 Localization group 1:   8 orbitals, occupancy  2.000
 Iterative localization: IB/PM,    7 iter; Final gradient 0.19E-08

 Bond order analysis:       [THRPRINT= 0.020]

   CEN ATOM   CEN ATOM     WIBERG.BO      RENORM.BO
     1   C  -   2   C       1.174143       2.022932
     1   C  -   5   H       0.980540       0.984367
     1   C  -   4   H       0.980540       0.984367
     1   C  -   3   H       0.078734       0.606359
     1   C  -   6   H       0.021096       0.135843
     1   C  -   7   H       0.021096       0.135843

     2   C  -   1   C       1.174143       2.022932
     2   C  -   7   H       0.946378       0.988791
     2   C  -   6   H       0.946378       0.988791
     2   C  -   3   H       0.880247       0.999271

     3   H  -   2   C       0.880247       0.999271
     3   H  -   1   C       0.078734       0.606359

     4   H  -   1   C       0.980540       0.984367

     5   H  -   1   C       0.980540       0.984367

     6   H  -   2   C       0.946378       0.988791
     6   H  -   1   C       0.021096       0.135843

     7   H  -   2   C       0.946378       0.988791
     7   H  -   1   C       0.021096       0.135843


 Valency analysis:

   CEN ATOM   TOT.VALENCE
     1   C       3.256149
     2   C       3.950719
     3   H       0.979177
     4   H       0.998142
     5   H       0.998142
     6   H       0.992167
     7   H       0.992167
 Localization group 2:   1 orbitals, occupancy  1.000
 Iterative localization: IB/PM,    1 iter; Final gradient 0.00E+00

 Bond order analysis:       [THRPRINT= 0.020]

   CEN ATOM   CEN ATOM     WIBERG.BO      RENORM.BO
     1   C  -   3   H       0.131775       0.500000
     1   C  -   6   H       0.030847       0.500000
     1   C  -   7   H       0.030847       0.500000


     3   H  -   1   C       0.131775       0.500000



     6   H  -   1   C       0.030847       0.500000

     7   H  -   1   C       0.030847       0.500000


 Valency analysis:

   CEN ATOM   TOT.VALENCE
     1   C       0.208873
     2   C       0.016882
     3   H       0.138312
     4   H       0.000224
     5   H       0.000224
     6   H       0.034380
     7   H       0.034380

 Total charge composition:

   CEN ATOM         s          p       ELECTRONS ->P.CHARGE
     1   C       2.93579    3.15168      6.08746   -0.08746
     2   C       2.87993    3.33018      6.21011   -0.21011
     3   H       0.93044                 0.93044    0.06956
     4   H       0.95700                 0.95700    0.04300
     5   H       0.95700                 0.95700    0.04300
     6   H       0.92899                 0.92899    0.07101
     7   H       0.92899                 0.92899    0.07101

 Total charge composition, AO contributions:

   CEN ATOM SHL      SPHERICAL COMPONENTS
     1   C  1s       1.99841
     1   C  2s       0.93738
     1   C  2p       1.02657    1.03366    1.09145

     2   C  1s       1.99797
     2   C  2s       0.88196
     2   C  2p       1.10557    1.10038    1.12424

     3   H  1s       0.93044

     4   H  1s       0.95700

     5   H  1s       0.95700

     6   H  1s       0.92899

     7   H  1s       0.92899

 Active orbital charges:

   CEN ATOM         s          p       ELECTRONS ->SPIN.DEN
     1   C       0.00277    0.87876      0.88153    0.88153
     2   C       0.00004    0.00848      0.00851    0.00851
     3   H       0.07474                 0.07474    0.07474
     4   H       0.00011                 0.00011    0.00011
     5   H       0.00011                 0.00011    0.00011
     6   H       0.01750                 0.01750    0.01750
     7   H       0.01750                 0.01750    0.01750

 Active orbital charges, AO contributions:

   CEN ATOM SHL      SPHERICAL COMPONENTS
     1   C  1s       0.00000
     1   C  2s       0.00276
     1   C  2p       0.87483    0.00394    0.00000

     2   C  1s       0.00000
     2   C  2s       0.00004
     2   C  2p       0.00841    0.00006    0.00000

     3   H  1s       0.07474

     4   H  1s       0.00011

     5   H  1s       0.00011

     6   H  1s       0.01750

     7   H  1s       0.01750

 Summary of localized orbital composition:   [THRPRINT= 0.020]

   ORB  GRP  ORB.ENERGY      CENTERS/CHARGES
     1   1    -7.672621      C  2   2.000
     2   1    -7.587802      C  1   2.000
     3   1    -0.009725      C  2   1.029   C  1   0.966
     4   1     0.021628      C  2   1.046   H  3   0.848   C  1   0.101
     5   1     0.031010      C  2   1.061   H  6   0.904   C  1   0.028
     6   1     0.031010      C  2   1.061   H  7   0.904   C  1   0.028
     7   1     0.036639      C  1   1.042   H  5   0.951
     8   1     0.036639      C  1   1.042   H  4   0.951
     9   2     0.400849      C  1   0.882   H  3   0.075   (other: 0.044)

 Localized orbitals saved to record      2100.2  (orbital set 2)


 **********************************************************************************************************************************
 DATASETS  * FILE   NREC   LENGTH (MB)   RECORD NAMES
              1      20       30.85       500      610      700      900      950      970     1000      129      960     1100   
                                          VAR    BASINP    GEOM    SYMINP    ZMAT    AOBASIS   BASIS     P2S    ABASIS      S 
                                         1400     1410     1200     1210     1080     1600     1650     1300     1700     1800   
                                           T        V       H0       H01     AOSYM     SMH    MOLCAS    ERIS     OPER     GRID   

              2       5        2.86       700     1000      520     1800     2100   
                                         GEOM     BASIS   MCVARS    GRID      RKS  

 PROGRAMS   *        TOTAL      IBBA        KS       INT
 CPU TIMES  *         1.48      0.02      1.11      0.20
 REAL TIME  *         2.04 SEC
 DISK USED  *        34.91 MB      
 **********************************************************************************************************************************
 Molecular orbitals read from record     2100.2  Type=RKS/LOCAL(IBO)  
 Occupation numbers read from record     2100.2  Type=RKS/LOCAL(IBO)  
 Orbital energies read from record       2100.2  Type=RKS/LOCAL(IBO)  
 Redundancy group numbers read from rec  2100.2  Type=RKS/LOCAL(IBO)  

 IBBA/STO-3G energy=      0.000000000000

        KS-SCF  
    -66.56976364
 **********************************************************************************************************************************
 Molpro calculation terminated
