
 Primary working directories    : /tmp/sb13343
 Secondary working directories  : /tmp/sb13343
 Wavefunction directory         : /panfs/panasas01/chem/sb13343/wfu/
 Main file repository           : /tmp/sb13343/

 SHA1      : b4a5b34a9e711420743f49e6833241d17c61fb3c
 NAME      : 2099.9.b4a5b34
 ARCHNAME  : linux/x86_64_openmp
 FC        : /cm/shared/languages/GCC-6.1/bin/gfortran
 BLASLIB   : -lblas
 id        : simonbennie

 Nodes     nprocs
 node35-048    1

 Using customized tuning parameters: mindgm=1; mindgv=20; mindgc=4; mindgr=1; noblas=0; minvec=7
 default implementation of scratch files=df  

 memory,500,m
 geomtyp=xyz
 nosym
 noorient
 geometry={
 C         -0.00146        0.79548        0.00000
 C          0.02225       -0.69390        0.00000
 H         -0.99481       -1.12636        0.00000
 H         -0.09300        1.35197        0.92746
 H         -0.09300        1.35197       -0.92746
 H          0.52802       -1.09351        0.88764
 H          0.52802       -1.09351       -0.88764
 }
 basis={ default,svp }
 {ks,M06,direct;wf,17,1,1}
 {ibba,bonds=1}

 Variables initialized (895), CPU time= 0.00 sec
 Commands  initialized (725), CPU time= 0.01 sec, 591 directives.
 Default parameters read. Elapsed time= 0.11 sec

 Checking input...
 Passed
1


                                         ***  PROGRAM SYSTEM MOLPRO  ***
                                       Copyright, TTI GmbH Stuttgart, 2015
                                    Version 2099.9 linked May 26 2017 16:03:21


 **********************************************************************************************************************************
 LABEL *                                                                                 
  64 bit serial version                                                                  DATE: 08-Jun-17          TIME: 05:04:46  
 **********************************************************************************************************************************

 SHA1:             b4a5b34a9e711420743f49e6833241d17c61fb3c
 **********************************************************************************************************************************
 SETTING GEOMTYP        =    XYZ

 Variable memory set to  500000000 words,  buffer space 

 ZSYMEL=NOSYM

 SETTING BASIS          =    SVP


 Recomputing integrals since basis changed


 Using spherical harmonics

 Library entry C      S def2-SVP             selected for orbital group  1
 Library entry C      P def2-SVP             selected for orbital group  1
 Library entry C      D def2-SVP             selected for orbital group  1
 Library entry H      S def2-SVP             selected for orbital group  2
 Library entry H      P def2-SVP             selected for orbital group  2


 PROGRAM * SEWARD (Integral evaluation for generally contracted gaussian basis sets)     Author: Roland Lindh, 1990

 Geometry written to block  1 of record 700


 Point group  C1  



 ATOMIC COORDINATES

 NR  ATOM    CHARGE       X              Y              Z

   1  C       6.00   -0.002759000    1.503239338    0.000000000
   2  C       6.00    0.042046406   -1.311280958    0.000000000
   3  H       1.00   -1.879918446   -2.128511918    0.000000000
   4  H       1.00   -0.175744530    2.554853029    1.752645391
   5  H       1.00   -0.175744530    2.554853029   -1.752645391
   6  H       1.00    0.997813188   -2.066434414    1.677396497
   7  H       1.00    0.997813188   -2.066434414   -1.677396497

 Bond lengths in Bohr (Angstrom)

 1-2  2.814876910  1-4  2.051238947  1-5  2.051238947  2-3  2.088495950  2-6  2.073018546
     ( 1.489568712)     ( 1.085468905)     ( 1.085468905)     ( 1.105184462)     ( 1.096994173)

 2-7  2.073018546
     ( 1.096994173)

 Bond angles

  1-2-3  112.12345176   1-2-6  111.81246303   1-2-7  111.81246303   2-1-4  120.92728687

  2-1-5  120.92728687   3-2-6  106.36442052   3-2-7  106.36442052   4-1-5  117.39421083

  6-2-7  108.02720793

 NUCLEAR CHARGE:                   17
 NUMBER OF PRIMITIVE AOS:          85
 NUMBER OF SYMMETRY AOS:           83
 NUMBER OF CONTRACTIONS:           53   (  53A   )
 NUMBER OF CORE ORBITALS:           2   (   2A   )
 NUMBER OF VALENCE ORBITALS:       13   (  13A   )


 NUCLEAR REPULSION ENERGY   36.86300145


 Eigenvalues of metric

         1 0.525E-02 0.232E-01 0.271E-01 0.397E-01 0.503E-01 0.635E-01 0.102E+00 0.110E+00


 Contracted 2-electron integrals neglected if value below      1.0D-11
 AO integral compression algorithm  1   Integral accuracy      1.0D-11

     5.243 MB (compressed) written to integral file ( 52.3%)


 NUMBER OF SORTED TWO-ELECTRON INTEGRALS:    1024596.     BUFFER LENGTH:  32768
 NUMBER OF SEGMENTS:   1  SEGMENT LENGTH:    1024596      RECORD LENGTH: 524288

 Memory used in sort:       1.58 MW

 SORT1 READ     1206537. AND WROTE      940164. INTEGRALS IN      3 RECORDS. CPU TIME:     0.02 SEC, REAL TIME:     0.03 SEC
 SORT2 READ      940164. AND WROTE     1024596. INTEGRALS IN     20 RECORDS. CPU TIME:     0.05 SEC, REAL TIME:     0.07 SEC

 FILE SIZES:   FILE 1:    35.4 MBYTE,  FILE 4:    12.6 MBYTE,   TOTAL:     48.0 MBYTE

 OPERATOR DM      FOR CENTER  0  COORDINATES:    0.000000    0.000000    0.000000


 **********************************************************************************************************************************
 DATASETS  * FILE   NREC   LENGTH (MB)   RECORD NAMES
              1      19       34.42       500      610      700      900      950      970     1000      129      960     1100   
                                          VAR    BASINP    GEOM    SYMINP    ZMAT    AOBASIS   BASIS     P2S    ABASIS      S 
                                         1400     1410     1200     1210     1080     1600     1650     1300     1700   
                                           T        V       H0       H01     AOSYM     SMH    MOLCAS    ERIS     OPER   

 PROGRAMS   *        TOTAL       INT
 CPU TIMES  *         0.51      0.37
 REAL TIME  *         1.16 SEC
 DISK USED  *        48.39 MB      
 **********************************************************************************************************************************

 Density functional group M06=XC-M06
 Functional: XC-M06(via MFM 1.6)                                               Gradient terms: 1
 Use grid at  1800.2


 Exact exchange will be calculated, factor:  0.2700

 Functional: XC-M06                    Factor:  1.0000

 Generated new metagrid on record  1800.2 with target accuracy 1.0D-06 and 23794 points in CPU time    0.5
 Computed new grid on record 1800.1 in CPU time    0.6
   46013 words reserved for DFT integration

 PROGRAM * RKS-SCF (Restricted open shell Kohn-Sham)     Authors: W. Meyer, H.-J. Werner, P.J. Knowles, 1993

 NUMBER OF ELECTRONS:       9+    8-    SPACE SYMMETRY=1    SPIN SYMMETRY: Doublet 
 CONVERGENCE THRESHOLDS:    1.00E-05 (Density)    1.00E-06 (Energy)
 MAX. NUMBER OF ITERATIONS:       60
 INTERPOLATION TYPE:            DIIS
 INTERPOLATION STEPS:              2 (START)      1 (STEP)
 LEVEL SHIFTS:                 -0.60 (CLOSED) -0.30 (OPEN) 



 Use fine grid record 1800.2 for energy threshold  1.0D-06
 Orbital guess generated from atomic densities. Full valence occupancy:    9

 Molecular orbital dump at record        2100.2

 Initial alpha occupancy:   9
 Initial beta  occupancy:   8
 Wave function symmetry:    1

 ITERATION    DDIFF          GRAD             ENERGY        2-EL.EN.            DIPOLE MOMENTS         DIIS   ORB.
    1      0.000D+00      0.000D+00       -78.94218097    147.271452   -0.11231   -0.27369    0.00000    0    start
    2      0.000D+00      0.125D-01       -79.01531961    141.623994   -0.04806   -0.12262    0.00000    1    diag,B
    3      0.126D-01      0.348D-02       -79.02034118    142.533455   -0.05526   -0.12273    0.00000    2    diag,B
    4      0.317D-02      0.621D-03       -79.02091509    142.463800   -0.04978   -0.10579    0.00000    3    diag,B
    5      0.144D-02      0.235D-03       -79.02102674    142.441515   -0.04634   -0.09688    0.00000    4    diag,B
    6      0.809D-03      0.522D-04       -79.02103284    142.439568   -0.04527   -0.09530    0.00000    5    diag,B
    7      0.177D-03      0.144D-04       -79.02103336    142.439944   -0.04495   -0.09504    0.00000    6    fixocc
    8      0.439D-04      0.534D-05       -79.02103343    142.440321   -0.04482   -0.09503    0.00000    7    diag,B
    9      0.176D-04      0.173D-05       -79.02103344    142.440325   -0.04477   -0.09501    0.00000    8    diag,B
   10      0.727D-05      0.569D-06       -79.02103344    142.440324   -0.04475   -0.09500    0.00000    0    orth

 Final alpha occupancy:   9
 Final beta  occupancy:   8

 !RKS STATE 1.1 Energy                -79.021033442467
 Nuclear energy                        36.86300145
 One-electron energy                 -177.78422941
 Two-electron energy                   71.22016181
 Density functional                    -9.31996730     XC-M06=-9.31996730
 Virial quotient                       -1.01297889
 !RKS STATE 1.1 Dipole moment          -0.04475163    -0.09500424     0.00000000
 Dipole moment /Debye                  -0.11373985    -0.24146088     0.00000000

 Orbital energies:

         1.1          2.1          3.1          4.1          5.1          6.1          7.1          8.1          9.1         10.1
    -10.244066   -10.241755    -0.746823    -0.594971    -0.452138    -0.410413    -0.397668    -0.359871    -0.209676     0.082840

        11.1
      0.111162

 HOMO      9.1    -0.209676 =      -5.7056eV
 LUMO     10.1     0.082840 =       2.2542eV
 LUMO-HOMO         0.292516 =       7.9598eV


 **********************************************************************************************************************************
 DATASETS  * FILE   NREC   LENGTH (MB)   RECORD NAMES
              1      20       35.18       500      610      700      900      950      970     1000      129      960     1100   
                                          VAR    BASINP    GEOM    SYMINP    ZMAT    AOBASIS   BASIS     P2S    ABASIS      S 
                                         1400     1410     1200     1210     1080     1600     1650     1300     1700     1800   
                                           T        V       H0       H01     AOSYM     SMH    MOLCAS    ERIS     OPER     GRID   

              2       5        2.94       700     1000      520     1800     2100   
                                         GEOM     BASIS   MCVARS    GRID      RKS  

 PROGRAMS   *        TOTAL        KS       INT
 CPU TIMES  *         9.46      8.95      0.37
 REAL TIME  *        11.18 SEC
 DISK USED  *        48.39 MB      
 **********************************************************************************************************************************


 PROGRAM * Intrinsic Basis Bonding Analysis (IBBA)          Author: G. Knizia

 Molecular orbitals read from record     2100.2  Type=RKS/CANONICAL (state 1.1)
 Fock matrix read from record            2100.2  Type=RKS/TOTAL (state 1.1)
 Orbital energies read from record       2100.2  Type=RKS/CANONICAL (state 1.1)
 Density matrix read from record         2100.2  Type=RKS/CHARGE (state 1.1)

 Number of core orbitals:           2 (   2 )
 Number of closed-shell orbitals:   6 (   6 )
 Number of active  orbitals:        1 (   1 )

 Basis set MINAO-AUTO-PP generated.      Number of basis functions:   15 

 Polarized AO type:                A = (O Ot + (1-O)(1-Ot)) P12
 Orthogonalization method:         Symmetric (Loewdin)
 Localization functional:          L = sum[A,i] <i|n_A|i>^4 -> max

 Localization group 1:   8 orbitals, occupancy  2.000
 Iterative localization: IB/PM,    6 iter; Final gradient 0.31E-08

 Bond order analysis:       [THRPRINT= 0.020]

   CEN ATOM   CEN ATOM     WIBERG.BO      RENORM.BO
     1   C  -   2   C       1.119472       2.020570
     1   C  -   5   H       0.966499       0.983201
     1   C  -   4   H       0.966499       0.983201
     1   C  -   3   H       0.045002       0.652202

     2   C  -   1   C       1.119472       2.020570
     2   C  -   7   H       0.950475       0.988644
     2   C  -   6   H       0.950475       0.988644
     2   C  -   3   H       0.914644       0.999147

     3   H  -   2   C       0.914644       0.999147
     3   H  -   1   C       0.045002       0.652202

     4   H  -   1   C       0.966499       0.983201

     5   H  -   1   C       0.966499       0.983201

     6   H  -   2   C       0.950475       0.988644

     7   H  -   2   C       0.950475       0.988644


 Valency analysis:

   CEN ATOM   TOT.VALENCE
     1   C       3.118829
     2   C       3.937707
     3   H       0.965802
     4   H       0.982030
     5   H       0.982030
     6   H       0.977700
     7   H       0.977700
 Localization group 2:   1 orbitals, occupancy  1.000
 Iterative localization: IB/PM,    1 iter; Final gradient 0.00E+00

 Bond order analysis:       [THRPRINT= 0.020]

   CEN ATOM   CEN ATOM     WIBERG.BO      RENORM.BO
     1   C  -   3   H       0.084060       0.500000


     3   H  -   1   C       0.084060       0.500000






 Valency analysis:

   CEN ATOM   TOT.VALENCE
     1   C       0.125543
     2   C       0.005292
     3   H       0.086064
     4   H       0.000165
     5   H       0.000165
     6   H       0.019232
     7   H       0.019232

 Total charge composition:

   CEN ATOM         s          p       ELECTRONS ->P.CHARGE
     1   C       3.04388    3.24033      6.28421   -0.28421
     2   C       3.00866    3.39418      6.40284   -0.40284
     3   H       0.86013                 0.86013    0.13987
     4   H       0.86603                 0.86603    0.13397
     5   H       0.86603                 0.86603    0.13397
     6   H       0.86038                 0.86038    0.13962
     7   H       0.86038                 0.86038    0.13962

 Total charge composition, AO contributions:

   CEN ATOM SHL      SPHERICAL COMPONENTS
     1   C  1s       1.99247
     1   C  2s       1.05141
     1   C  2p       1.01522    1.06535    1.15976

     2   C  1s       1.99102
     2   C  2s       1.01765
     2   C  2p       1.15527    1.07411    1.16479

     3   H  1s       0.86013

     4   H  1s       0.86603

     5   H  1s       0.86603

     6   H  1s       0.86038

     7   H  1s       0.86038

 Active orbital charges:

   CEN ATOM         s          p       ELECTRONS ->SPIN.DEN
     1   C       0.00394    0.92875      0.93270    0.93270
     2   C       0.00002    0.00263      0.00265    0.00265
     3   H       0.04506                 0.04506    0.04506
     4   H       0.00008                 0.00008    0.00008
     5   H       0.00008                 0.00008    0.00008
     6   H       0.00971                 0.00971    0.00971
     7   H       0.00971                 0.00971    0.00971

 Active orbital charges, AO contributions:

   CEN ATOM SHL      SPHERICAL COMPONENTS
     1   C  1s       0.00000
     1   C  2s       0.00394
     1   C  2p       0.92399    0.00476    0.00000

     2   C  1s       0.00000
     2   C  2s       0.00002
     2   C  2p       0.00255    0.00008    0.00000

     3   H  1s       0.04506

     4   H  1s       0.00008

     5   H  1s       0.00008

     6   H  1s       0.00971

     7   H  1s       0.00971

 Summary of localized orbital composition:   [THRPRINT= 0.020]

   ORB  GRP  ORB.ENERGY      CENTERS/CHARGES
     1   1   -10.138384      C  1   2.000
     2   1   -10.127854      C  2   2.000
     3   1    -0.617125      C  2   1.003   C  1   0.994
     4   1    -0.525650      C  1   1.134   H  4   0.860
     5   1    -0.525650      C  1   1.134   H  5   0.860
     6   1    -0.506688      C  2   1.128   H  3   0.812   C  1   0.058
     7   1    -0.503177      C  2   1.132   H  7   0.846   (other: 0.022)
     8   1    -0.503177      C  2   1.132   H  6   0.846   (other: 0.022)
     9   2    -0.116076      C  1   0.933   H  3   0.045   (other: 0.022)

 Localized orbitals saved to record      2100.2  (orbital set 2)


 **********************************************************************************************************************************
 DATASETS  * FILE   NREC   LENGTH (MB)   RECORD NAMES
              1      20       35.18       500      610      700      900      950      970     1000      129      960     1100   
                                          VAR    BASINP    GEOM    SYMINP    ZMAT    AOBASIS   BASIS     P2S    ABASIS      S 
                                         1400     1410     1200     1210     1080     1600     1650     1300     1700     1800   
                                           T        V       H0       H01     AOSYM     SMH    MOLCAS    ERIS     OPER     GRID   

              2       5        2.96       700     1000      520     1800     2100   
                                         GEOM     BASIS   MCVARS    GRID      RKS  

 PROGRAMS   *        TOTAL      IBBA        KS       INT
 CPU TIMES  *         9.48      0.02      8.95      0.37
 REAL TIME  *        11.26 SEC
 DISK USED  *        48.39 MB      
 **********************************************************************************************************************************
 Molecular orbitals read from record     2100.2  Type=RKS/LOCAL(IBO)  
 Occupation numbers read from record     2100.2  Type=RKS/LOCAL(IBO)  
 Orbital energies read from record       2100.2  Type=RKS/LOCAL(IBO)  
 Redundancy group numbers read from rec  2100.2  Type=RKS/LOCAL(IBO)  

 IBBA/SVP energy=      0.000000000000

        KS-SCF  
    -79.02103344
 **********************************************************************************************************************************
 Molpro calculation terminated
