
 Primary working directories    : /tmp/sb13343
 Secondary working directories  : /tmp/sb13343
 Wavefunction directory         : /panfs/panasas01/chem/sb13343/wfu/
 Main file repository           : /tmp/sb13343/

 SHA1      : b4a5b34a9e711420743f49e6833241d17c61fb3c
 NAME      : 2099.9.b4a5b34
 ARCHNAME  : linux/x86_64_openmp
 FC        : /cm/shared/languages/GCC-6.1/bin/gfortran
 BLASLIB   : -lblas
 id        : simonbennie

 Nodes     nprocs
 node35-048    1

 Using customized tuning parameters: mindgm=1; mindgv=20; mindgc=4; mindgr=1; noblas=0; minvec=7
 default implementation of scratch files=df  

 memory,500,m
 geomtyp=xyz
 nosym
 noorient
 geometry={
 C         -0.00146        0.79548        0.00000
 C          0.02225       -0.69390        0.00000
 H         -0.99481       -1.12636        0.00000
 H         -0.09300        1.35197        0.92746
 H         -0.09300        1.35197       -0.92746
 H          0.52802       -1.09351        0.88764
 H          0.52802       -1.09351       -0.88764
 }
 basis={ default,svp }
 {ks,PBEREV,direct;wf,17,1,1}
 {ibba,bonds=1}

 Variables initialized (895), CPU time= 0.00 sec
 Commands  initialized (725), CPU time= 0.01 sec, 591 directives.
 Default parameters read. Elapsed time= 0.09 sec

 Checking input...
 Passed
1


                                         ***  PROGRAM SYSTEM MOLPRO  ***
                                       Copyright, TTI GmbH Stuttgart, 2015
                                    Version 2099.9 linked May 26 2017 16:03:21


 **********************************************************************************************************************************
 LABEL *                                                                                 
  64 bit serial version                                                                  DATE: 08-Jun-17          TIME: 05:01:33  
 **********************************************************************************************************************************

 SHA1:             b4a5b34a9e711420743f49e6833241d17c61fb3c
 **********************************************************************************************************************************
 SETTING GEOMTYP        =    XYZ

 Variable memory set to  500000000 words,  buffer space 

 ZSYMEL=NOSYM

 SETTING BASIS          =    SVP


 Recomputing integrals since basis changed


 Using spherical harmonics

 Library entry C      S def2-SVP             selected for orbital group  1
 Library entry C      P def2-SVP             selected for orbital group  1
 Library entry C      D def2-SVP             selected for orbital group  1
 Library entry H      S def2-SVP             selected for orbital group  2
 Library entry H      P def2-SVP             selected for orbital group  2


 PROGRAM * SEWARD (Integral evaluation for generally contracted gaussian basis sets)     Author: Roland Lindh, 1990

 Geometry written to block  1 of record 700


 Point group  C1  



 ATOMIC COORDINATES

 NR  ATOM    CHARGE       X              Y              Z

   1  C       6.00   -0.002759000    1.503239338    0.000000000
   2  C       6.00    0.042046406   -1.311280958    0.000000000
   3  H       1.00   -1.879918446   -2.128511918    0.000000000
   4  H       1.00   -0.175744530    2.554853029    1.752645391
   5  H       1.00   -0.175744530    2.554853029   -1.752645391
   6  H       1.00    0.997813188   -2.066434414    1.677396497
   7  H       1.00    0.997813188   -2.066434414   -1.677396497

 Bond lengths in Bohr (Angstrom)

 1-2  2.814876910  1-4  2.051238947  1-5  2.051238947  2-3  2.088495950  2-6  2.073018546
     ( 1.489568712)     ( 1.085468905)     ( 1.085468905)     ( 1.105184462)     ( 1.096994173)

 2-7  2.073018546
     ( 1.096994173)

 Bond angles

  1-2-3  112.12345176   1-2-6  111.81246303   1-2-7  111.81246303   2-1-4  120.92728687

  2-1-5  120.92728687   3-2-6  106.36442052   3-2-7  106.36442052   4-1-5  117.39421083

  6-2-7  108.02720793

 NUCLEAR CHARGE:                   17
 NUMBER OF PRIMITIVE AOS:          85
 NUMBER OF SYMMETRY AOS:           83
 NUMBER OF CONTRACTIONS:           53   (  53A   )
 NUMBER OF CORE ORBITALS:           2   (   2A   )
 NUMBER OF VALENCE ORBITALS:       13   (  13A   )


 NUCLEAR REPULSION ENERGY   36.86300145


 Eigenvalues of metric

         1 0.525E-02 0.232E-01 0.271E-01 0.397E-01 0.503E-01 0.635E-01 0.102E+00 0.110E+00


 Contracted 2-electron integrals neglected if value below      1.0D-11
 AO integral compression algorithm  1   Integral accuracy      1.0D-11

     5.243 MB (compressed) written to integral file ( 52.3%)


 NUMBER OF SORTED TWO-ELECTRON INTEGRALS:    1024596.     BUFFER LENGTH:  32768
 NUMBER OF SEGMENTS:   1  SEGMENT LENGTH:    1024596      RECORD LENGTH: 524288

 Memory used in sort:       1.58 MW

 SORT1 READ     1206537. AND WROTE      940164. INTEGRALS IN      3 RECORDS. CPU TIME:     0.02 SEC, REAL TIME:     0.03 SEC
 SORT2 READ      940164. AND WROTE     1024596. INTEGRALS IN     20 RECORDS. CPU TIME:     0.05 SEC, REAL TIME:     0.07 SEC

 FILE SIZES:   FILE 1:    35.4 MBYTE,  FILE 4:    12.6 MBYTE,   TOTAL:     48.0 MBYTE

 OPERATOR DM      FOR CENTER  0  COORDINATES:    0.000000    0.000000    0.000000


 **********************************************************************************************************************************
 DATASETS  * FILE   NREC   LENGTH (MB)   RECORD NAMES
              1      19       34.42       500      610      700      900      950      970     1000      129      960     1100   
                                          VAR    BASINP    GEOM    SYMINP    ZMAT    AOBASIS   BASIS     P2S    ABASIS      S 
                                         1400     1410     1200     1210     1080     1600     1650     1300     1700   
                                           T        V       H0       H01     AOSYM     SMH    MOLCAS    ERIS     OPER   

 PROGRAMS   *        TOTAL       INT
 CPU TIMES  *         0.54      0.39
 REAL TIME  *         0.96 SEC
 DISK USED  *        48.39 MB      
 **********************************************************************************************************************************

 Density functional group PBEREV=PBEXREV+PBEC
 Functional: PBEXREV(Automatically generated (new) PBEXREV)                    Gradient terms: 1
 Functional: PBEC(Automatically generated (new) PBEC)                          Gradient terms: 1
 Use grid at  1800.2

 Functional: PBEXREV                   Factor:  1.0000
 Functional: PBEC                      Factor:  1.0000

 Generated new metagrid on record  1800.2 with target accuracy 1.0D-06 and 23794 points in CPU time    0.5
 Computed new grid on record 1800.1 in CPU time    0.6
   46013 words reserved for DFT integration

 PROGRAM * RKS-SCF (Restricted open shell Kohn-Sham)     Authors: W. Meyer, H.-J. Werner, P.J. Knowles, 1993

 NUMBER OF ELECTRONS:       9+    8-    SPACE SYMMETRY=1    SPIN SYMMETRY: Doublet 
 CONVERGENCE THRESHOLDS:    1.00E-05 (Density)    1.00E-06 (Energy)
 MAX. NUMBER OF ITERATIONS:       60
 INTERPOLATION TYPE:            DIIS
 INTERPOLATION STEPS:              2 (START)      1 (STEP)
 LEVEL SHIFTS:                 -0.60 (CLOSED) -0.30 (OPEN) 



 Use fine grid record 1800.2 for energy threshold  1.0D-06
 Orbital guess generated from atomic densities. Full valence occupancy:    9

 Molecular orbital dump at record        2100.2

 Initial alpha occupancy:   9
 Initial beta  occupancy:   8
 Wave function symmetry:    1

 ITERATION    DDIFF          GRAD             ENERGY        2-EL.EN.            DIPOLE MOMENTS         DIIS   ORB.
    1      0.000D+00      0.000D+00       -78.95682613    155.120416   -0.10908   -0.23469    0.00000    0    start
    2      0.000D+00      0.152D-01       -79.05772830    147.442038   -0.04747   -0.11567    0.00000    1    diag,B
    3      0.168D-01      0.571D-02       -79.07052845    149.073750   -0.06144   -0.13310    0.00000    2    diag,B
    4      0.501D-02      0.715D-03       -79.07109137    148.964755   -0.05663   -0.12272    0.00000    3    diag,B
    5      0.182D-02      0.236D-03       -79.07117205    148.938038   -0.05515   -0.11872    0.00000    4    diag,B
    6      0.894D-03      0.622D-04       -79.07117811    148.930755   -0.05439   -0.11707    0.00000    5    diag,B
    7      0.273D-03      0.179D-04       -79.07117848    148.931350   -0.05443   -0.11722    0.00000    6    fixocc
    8      0.530D-04      0.698D-05       -79.07117855    148.931308   -0.05441   -0.11716    0.00000    7    diag,B
    9      0.298D-04      0.178D-05       -79.07117856    148.931336   -0.05441   -0.11718    0.00000    8    diag,B
   10      0.689D-05      0.518D-06       -79.07117856    148.931322   -0.05442   -0.11718    0.00000    0    orth

 Final alpha occupancy:   9
 Final beta  occupancy:   8

 !RKS STATE 1.1 Energy                -79.071178555659
 Nuclear energy                        36.86300145
 One-electron energy                 -177.76826604
 Two-electron energy                   74.46566098
 Density functional                   -12.63157495     PBEXREV=-12.10431357 PBEC= -0.52726138
 Virial quotient                       -1.01303768
 !RKS STATE 1.1 Dipole moment          -0.05441557    -0.11718424     0.00000000
 Dipole moment /Debye                  -0.13830152    -0.29783313     0.00000000

 Orbital energies:

         1.1          2.1          3.1          4.1          5.1          6.1          7.1          8.1          9.1         10.1
     -9.905478    -9.904247    -0.668186    -0.527462    -0.394230    -0.356920    -0.341147    -0.307531    -0.162399     0.055759

        11.1
      0.083716

 HOMO      9.1    -0.162399 =      -4.4191eV
 LUMO     10.1     0.055759 =       1.5173eV
 LUMO-HOMO         0.218158 =       5.9364eV


 **********************************************************************************************************************************
 DATASETS  * FILE   NREC   LENGTH (MB)   RECORD NAMES
              1      20       35.18       500      610      700      900      950      970     1000      129      960     1100   
                                          VAR    BASINP    GEOM    SYMINP    ZMAT    AOBASIS   BASIS     P2S    ABASIS      S 
                                         1400     1410     1200     1210     1080     1600     1650     1300     1700     1800   
                                           T        V       H0       H01     AOSYM     SMH    MOLCAS    ERIS     OPER     GRID   

              2       5        2.94       700     1000      520     1800     2100   
                                         GEOM     BASIS   MCVARS    GRID      RKS  

 PROGRAMS   *        TOTAL        KS       INT
 CPU TIMES  *         3.76      3.22      0.39
 REAL TIME  *         4.59 SEC
 DISK USED  *        48.39 MB      
 **********************************************************************************************************************************


 PROGRAM * Intrinsic Basis Bonding Analysis (IBBA)          Author: G. Knizia

 Molecular orbitals read from record     2100.2  Type=RKS/CANONICAL (state 1.1)
 Fock matrix read from record            2100.2  Type=RKS/TOTAL (state 1.1)
 Orbital energies read from record       2100.2  Type=RKS/CANONICAL (state 1.1)
 Density matrix read from record         2100.2  Type=RKS/CHARGE (state 1.1)

 Number of core orbitals:           2 (   2 )
 Number of closed-shell orbitals:   6 (   6 )
 Number of active  orbitals:        1 (   1 )

 Basis set MINAO-AUTO-PP generated.      Number of basis functions:   15 

 Polarized AO type:                A = (O Ot + (1-O)(1-Ot)) P12
 Orthogonalization method:         Symmetric (Loewdin)
 Localization functional:          L = sum[A,i] <i|n_A|i>^4 -> max

 Localization group 1:   8 orbitals, occupancy  2.000
 Iterative localization: IB/PM,    6 iter; Final gradient 0.27E-08

 Bond order analysis:       [THRPRINT= 0.020]

   CEN ATOM   CEN ATOM     WIBERG.BO      RENORM.BO
     1   C  -   2   C       1.141211       2.021681
     1   C  -   5   H       0.966465       0.982459
     1   C  -   4   H       0.966465       0.982459
     1   C  -   3   H       0.053239       0.647261

     2   C  -   1   C       1.141211       2.021681
     2   C  -   7   H       0.947293       0.988068
     2   C  -   6   H       0.947293       0.988068
     2   C  -   3   H       0.902935       0.998889

     3   H  -   2   C       0.902935       0.998889
     3   H  -   1   C       0.053239       0.647261

     4   H  -   1   C       0.966465       0.982459

     5   H  -   1   C       0.966465       0.982459

     6   H  -   2   C       0.947293       0.988068

     7   H  -   2   C       0.947293       0.988068


 Valency analysis:

   CEN ATOM   TOT.VALENCE
     1   C       3.152286
     2   C       3.940910
     3   H       0.963322
     4   H       0.982275
     5   H       0.982275
     6   H       0.977066
     7   H       0.977066
 Localization group 2:   1 orbitals, occupancy  1.000
 Iterative localization: IB/PM,    1 iter; Final gradient 0.00E+00

 Bond order analysis:       [THRPRINT= 0.020]

   CEN ATOM   CEN ATOM     WIBERG.BO      RENORM.BO
     1   C  -   3   H       0.093600       0.500000


     3   H  -   1   C       0.093600       0.500000






 Valency analysis:

   CEN ATOM   TOT.VALENCE
     1   C       0.141613
     2   C       0.008385
     3   H       0.096236
     4   H       0.000348
     5   H       0.000348
     6   H       0.021213
     7   H       0.021213

 Total charge composition:

   CEN ATOM         s          p       ELECTRONS ->P.CHARGE
     1   C       3.05369    3.23399      6.28768   -0.28768
     2   C       3.01481    3.38570      6.40051   -0.40051
     3   H       0.85917                 0.85917    0.14083
     4   H       0.86704                 0.86704    0.13296
     5   H       0.86704                 0.86704    0.13296
     6   H       0.85928                 0.85928    0.14072
     7   H       0.85928                 0.85928    0.14072

 Total charge composition, AO contributions:

   CEN ATOM SHL      SPHERICAL COMPONENTS
     1   C  1s       1.99239
     1   C  2s       1.06130
     1   C  2p       1.02238    1.05531    1.15629

     2   C  1s       1.99084
     2   C  2s       1.02397
     2   C  2p       1.14989    1.07115    1.16466

     3   H  1s       0.85917

     4   H  1s       0.86704

     5   H  1s       0.86704

     6   H  1s       0.85928

     7   H  1s       0.85928

 Active orbital charges:

   CEN ATOM         s          p       ELECTRONS ->SPIN.DEN
     1   C       0.00342    0.91990      0.92331    0.92331
     2   C       0.00003    0.00418      0.00421    0.00421
     3   H       0.05069                 0.05069    0.05069
     4   H       0.00017                 0.00017    0.00017
     5   H       0.00017                 0.00017    0.00017
     6   H       0.01072                 0.01072    0.01072
     7   H       0.01072                 0.01072    0.01072

 Active orbital charges, AO contributions:

   CEN ATOM SHL      SPHERICAL COMPONENTS
     1   C  1s       0.00000
     1   C  2s       0.00341
     1   C  2p       0.91570    0.00419    0.00000

     2   C  1s       0.00000
     2   C  2s       0.00003
     2   C  2p       0.00410    0.00008    0.00000

     3   H  1s       0.05069

     4   H  1s       0.00017

     5   H  1s       0.00017

     6   H  1s       0.01072

     7   H  1s       0.01072

 Summary of localized orbital composition:   [THRPRINT= 0.020]

   ORB  GRP  ORB.ENERGY      CENTERS/CHARGES
     1   1    -9.803028      C  1   2.000
     2   1    -9.792092      C  2   2.000
     3   1    -0.545856      C  2   1.006   C  1   0.992
     4   1    -0.464127      C  1   1.133   H  4   0.861
     5   1    -0.464127      C  1   1.133   H  5   0.861
     6   1    -0.448014      C  2   1.123   H  3   0.806   C  1   0.070
     7   1    -0.443980      C  2   1.131   H  7   0.844   (other: 0.025)
     8   1    -0.443980      C  2   1.131   H  6   0.844   (other: 0.025)
     9   2    -0.117541      C  1   0.923   H  3   0.051   (other: 0.026)

 Localized orbitals saved to record      2100.2  (orbital set 2)


 **********************************************************************************************************************************
 DATASETS  * FILE   NREC   LENGTH (MB)   RECORD NAMES
              1      20       35.18       500      610      700      900      950      970     1000      129      960     1100   
                                          VAR    BASINP    GEOM    SYMINP    ZMAT    AOBASIS   BASIS     P2S    ABASIS      S 
                                         1400     1410     1200     1210     1080     1600     1650     1300     1700     1800   
                                           T        V       H0       H01     AOSYM     SMH    MOLCAS    ERIS     OPER     GRID   

              2       5        2.96       700     1000      520     1800     2100   
                                         GEOM     BASIS   MCVARS    GRID      RKS  

 PROGRAMS   *        TOTAL      IBBA        KS       INT
 CPU TIMES  *         3.78      0.02      3.22      0.39
 REAL TIME  *         4.70 SEC
 DISK USED  *        48.39 MB      
 **********************************************************************************************************************************
 Molecular orbitals read from record     2100.2  Type=RKS/LOCAL(IBO)  
 Occupation numbers read from record     2100.2  Type=RKS/LOCAL(IBO)  
 Orbital energies read from record       2100.2  Type=RKS/LOCAL(IBO)  
 Redundancy group numbers read from rec  2100.2  Type=RKS/LOCAL(IBO)  

 IBBA/SVP energy=      0.000000000000

        KS-SCF  
    -79.07117856
 **********************************************************************************************************************************
 Molpro calculation terminated
