
 Primary working directories    : /tmp/sb13343
 Secondary working directories  : /tmp/sb13343
 Wavefunction directory         : /panfs/panasas01/chem/sb13343/wfu/
 Main file repository           : /tmp/sb13343/

 SHA1      : b4a5b34a9e711420743f49e6833241d17c61fb3c
 NAME      : 2099.9.b4a5b34
 ARCHNAME  : linux/x86_64_openmp
 FC        : /cm/shared/languages/GCC-6.1/bin/gfortran
 BLASLIB   : -lblas
 id        : simonbennie

 Nodes     nprocs
 node35-048    1

 Using customized tuning parameters: mindgm=1; mindgv=20; mindgc=4; mindgr=1; noblas=0; minvec=7
 default implementation of scratch files=df  

 memory,500,m
 geomtyp=xyz
 nosym
 noorient
 geometry={
 C         -0.00146        0.79548        0.00000
 C          0.02225       -0.69390        0.00000
 H         -0.99481       -1.12636        0.00000
 H         -0.09300        1.35197        0.92746
 H         -0.09300        1.35197       -0.92746
 H          0.52802       -1.09351        0.88764
 H          0.52802       -1.09351       -0.88764
 }
 basis={ default,sto-3g }
 {uks,PBE0,direct;wf,17,1,1}
 {ibba,bonds=1}

 Variables initialized (895), CPU time= 0.00 sec
 Commands  initialized (725), CPU time= 0.01 sec, 591 directives.
 Default parameters read. Elapsed time= 0.10 sec

 Checking input...
 Passed
1


                                         ***  PROGRAM SYSTEM MOLPRO  ***
                                       Copyright, TTI GmbH Stuttgart, 2015
                                    Version 2099.9 linked May 26 2017 16:03:21


 **********************************************************************************************************************************
 LABEL *                                                                                 
  64 bit serial version                                                                  DATE: 08-Jun-17          TIME: 04:43:25  
 **********************************************************************************************************************************

 SHA1:             b4a5b34a9e711420743f49e6833241d17c61fb3c
 **********************************************************************************************************************************
 SETTING GEOMTYP        =    XYZ

 Variable memory set to  500000000 words,  buffer space 

 ZSYMEL=NOSYM

 SETTING BASIS          =    STO-3G


 Recomputing integrals since basis changed


 Using spherical harmonics

 Library entry C      S STO-3G               selected for orbital group  1
 Library entry C      P STO-3G               selected for orbital group  1
 Library entry H      S STO-3G               selected for orbital group  2


 PROGRAM * SEWARD (Integral evaluation for generally contracted gaussian basis sets)     Author: Roland Lindh, 1990

 Geometry written to block  1 of record 700


 Point group  C1  



 ATOMIC COORDINATES

 NR  ATOM    CHARGE       X              Y              Z

   1  C       6.00   -0.002759000    1.503239338    0.000000000
   2  C       6.00    0.042046406   -1.311280958    0.000000000
   3  H       1.00   -1.879918446   -2.128511918    0.000000000
   4  H       1.00   -0.175744530    2.554853029    1.752645391
   5  H       1.00   -0.175744530    2.554853029   -1.752645391
   6  H       1.00    0.997813188   -2.066434414    1.677396497
   7  H       1.00    0.997813188   -2.066434414   -1.677396497

 Bond lengths in Bohr (Angstrom)

 1-2  2.814876910  1-4  2.051238947  1-5  2.051238947  2-3  2.088495950  2-6  2.073018546
     ( 1.489568712)     ( 1.085468905)     ( 1.085468905)     ( 1.105184462)     ( 1.096994173)

 2-7  2.073018546
     ( 1.096994173)

 Bond angles

  1-2-3  112.12345176   1-2-6  111.81246303   1-2-7  111.81246303   2-1-4  120.92728687

  2-1-5  120.92728687   3-2-6  106.36442052   3-2-7  106.36442052   4-1-5  117.39421083

  6-2-7  108.02720793

 NUCLEAR CHARGE:                   17
 NUMBER OF PRIMITIVE AOS:          45
 NUMBER OF SYMMETRY AOS:           45
 NUMBER OF CONTRACTIONS:           15   (  15A   )
 NUMBER OF CORE ORBITALS:           2   (   2A   )
 NUMBER OF VALENCE ORBITALS:       13   (  13A   )


 NUCLEAR REPULSION ENERGY   36.86300145


 Eigenvalues of metric

         1 0.218E+00 0.272E+00 0.329E+00 0.377E+00 0.382E+00 0.392E+00 0.935E+00 0.955E+00


 Contracted 2-electron integrals neglected if value below      1.0D-11
 AO integral compression algorithm  1   Integral accuracy      1.0D-11

     0.262 MB (compressed) written to integral file (100.0%)


 NUMBER OF SORTED TWO-ELECTRON INTEGRALS:       7260.     BUFFER LENGTH:  32768
 NUMBER OF SEGMENTS:   1  SEGMENT LENGTH:       7260      RECORD LENGTH: 524288

 Memory used in sort:       0.56 MW

 SORT1 READ        9024. AND WROTE        6273. INTEGRALS IN      1 RECORDS. CPU TIME:     0.00 SEC, REAL TIME:     0.01 SEC
 SORT2 READ        6273. AND WROTE        7260. INTEGRALS IN      1 RECORDS. CPU TIME:     0.00 SEC, REAL TIME:     0.00 SEC

 FILE SIZES:   FILE 1:    30.3 MBYTE,  FILE 4:     4.2 MBYTE,   TOTAL:     34.5 MBYTE

 OPERATOR DM      FOR CENTER  0  COORDINATES:    0.000000    0.000000    0.000000


 **********************************************************************************************************************************
 DATASETS  * FILE   NREC   LENGTH (MB)   RECORD NAMES
              1      19       30.09       500      610      700      900      950      970     1000      129      960     1100   
                                          VAR    BASINP    GEOM    SYMINP    ZMAT    AOBASIS   BASIS     P2S    ABASIS      S 
                                         1400     1410     1200     1210     1080     1600     1650     1300     1700   
                                           T        V       H0       H01     AOSYM     SMH    MOLCAS    ERIS     OPER   

 PROGRAMS   *        TOTAL       INT
 CPU TIMES  *         0.34      0.19
 REAL TIME  *         0.72 SEC
 DISK USED  *        34.91 MB      
 **********************************************************************************************************************************

 Density functional group PBE0=PBEX+PBEC
 Functional: PBEX(Automatically generated (new) PBEX)                          Gradient terms: 1
 Functional: PBEC(Automatically generated (new) PBEC)                          Gradient terms: 1
 Use grid at  1800.2


 Exact exchange will be calculated, factor:  0.2500

 Functional: PBEX                      Factor:  0.7500
 Functional: PBEC                      Factor:  1.0000

 Generated new metagrid on record  1800.2 with target accuracy 1.0D-06 and 23794 points in CPU time    0.5
 Computed new grid on record 1800.1 in CPU time    0.6
   15985 words reserved for DFT integration

 PROGRAM * UKS-SCF (Unrestricted Kohn-Sham)     Authors: W. Meyer, H.-J. Werner, P.J. Knowles, 1993

 NUMBER OF ELECTRONS:       9+    8-    SPACE SYMMETRY=1    SPIN SYMMETRY: Doublet 
 CONVERGENCE THRESHOLDS:    1.00E-05 (Density)    1.00E-06 (Energy)
 MAX. NUMBER OF ITERATIONS:       60
 INTERPOLATION TYPE:            DIIS
 INTERPOLATION STEPS:              2 (START)      1 (STEP)
 LEVEL SHIFTS:                 -0.20 (ALPHA)  -0.20 (BETA) 



 Use fine grid record 1800.2 for energy threshold  1.0D-06
 Orbital guess generated from atomic densities. Full valence occupancy:    9

 Molecular orbital dump at record        2200.2

 Initial alpha occupation   9
 Initial beta  occupation   8

 ITERATION    DDIFF          GRAD             ENERGY        2-EL.EN.            DIPOLE MOMENTS         DIIS
    1      0.000D+00      0.000D+00       -78.03430357    147.327464   -0.11716   -0.22855    0.00000    0
    2      0.561D-01      0.210D-01       -78.10247389    143.580649   -0.04485   -0.11115    0.00000    1
    3      0.522D-02      0.315D-02       -78.10399434    143.822444   -0.03974   -0.08633    0.00000    2
    4      0.184D-02      0.120D-02       -78.10446770    143.805872   -0.03635   -0.07308    0.00000    3
    5      0.120D-02      0.624D-03       -78.10459860    143.807497   -0.03413   -0.06460    0.00000    4
    6      0.232D-03      0.102D-03       -78.10460270    143.806416   -0.03400   -0.06419    0.00000    5
    7      0.389D-04      0.216D-04       -78.10460287    143.806585   -0.03399   -0.06419    0.00000    6
    8      0.739D-05      0.521D-05       -78.10460288    143.806601   -0.03399   -0.06419    0.00000    6
    9      0.795D-06      0.530D-06       -78.10460288    143.806586   -0.03399   -0.06420    0.00000    5

 Final alpha occupancy:   9
 Final beta  occupancy:   8

 !UKS STATE 1.1 Energy                -78.104602877514
 Nuclear energy                        36.86300145
 One-electron energy                 -177.27862166
 Two-electron energy                   71.90329312
 Density functional                    -9.59227579     PBEX=-12.07375009 PBEC= -0.53696323
 Virial quotient                       -1.01244356
 !UKS STATE 1.1 Dipole moment          -0.03398793    -0.06419531     0.00000000
 Dipole moment /Debye                  -0.08638303    -0.16315753     0.00000000

 Orbital energies for positive spin:

         1.1          2.1          3.1          4.1          5.1          6.1          7.1          8.1          9.1         10.1
    -10.047364   -10.011445    -0.735629    -0.588716    -0.424703    -0.387921    -0.357890    -0.327701    -0.149067     0.418791

        11.1
      0.425943

 Orbital energies for negative spin:

         1.1          2.1          3.1          4.1          5.1          6.1          7.1          8.1          9.1         10.1
    -10.048790    -9.993603    -0.715239    -0.557224    -0.417218    -0.373037    -0.347438    -0.322737     0.095261     0.422939

        11.1
      0.464630

 HOMO      9.1    -0.149067 =      -4.0563eV
 LUMO     -9.1     0.095261 =       2.5922eV
 LUMO-HOMO         0.244328 =       6.6485eV

 EXPECTATION VALUE OF S**2:             0.75494418

 Occupation number threshold for canonical orbitals:  1.999000 (occupied),  0.001000 (virtual)

 Number of pseudo-canonical orbitals per symmetry:    7
 Number of active natural orbitals per symmetry:      3

 Natural orbitals saved to record    2200.2 (Orbital set 3)

 Orbital spaces for UNO-CAS (Min. occupation: 0.020  Max. occupation: 1.980):

 Closed:        8
 Active:        1


 **********************************************************************************************************************************
 DATASETS  * FILE   NREC   LENGTH (MB)   RECORD NAMES
              1      20       30.85       500      610      700      900      950      970     1000      129      960     1100   
                                          VAR    BASINP    GEOM    SYMINP    ZMAT    AOBASIS   BASIS     P2S    ABASIS      S 
                                         1400     1410     1200     1210     1080     1600     1650     1300     1700     1800   
                                           T        V       H0       H01     AOSYM     SMH    MOLCAS    ERIS     OPER     GRID   

              2       5        2.86       700     1000      520     1800     2200   
                                         GEOM     BASIS   MCVARS    GRID      UKS  

 PROGRAMS   *        TOTAL       UKS       INT
 CPU TIMES  *         1.76      1.42      0.19
 REAL TIME  *         3.55 SEC
 DISK USED  *        34.91 MB      
 **********************************************************************************************************************************


 PROGRAM * Intrinsic Basis Bonding Analysis (IBBA)          Author: G. Knizia

 Molecular orbitals read from record     2200.2  Type=UKS/ALPHA (state 1.1)
 Fock matrix read from record            2200.2  Type=UKS/TOTAL (state 1.1)
 Orbital energies read from record       2200.2  Type=UKS/ALPHA (state 1.1)
 Density matrix read from record         2200.2  Type=UKS/CHARGE (state 1.1)

 Number of core orbitals:           2 (   2 )
 Number of closed-shell orbitals:   6 (   6 )
 Number of active  orbitals:        1 (   1 )

 Basis set MINAO-AUTO-PP generated.      Number of basis functions:   15 

 Polarized AO type:                A = (O Ot + (1-O)(1-Ot)) P12
 Orthogonalization method:         Symmetric (Loewdin)
 Localization functional:          L = sum[A,i] <i|n_A|i>^4 -> max

 Localization group 1:   8 orbitals, occupancy  2.000
 Iterative localization: IB/PM,    6 iter; Final gradient 0.39E-08

 Bond order analysis:       [THRPRINT= 0.020]

   CEN ATOM   CEN ATOM     WIBERG.BO      RENORM.BO
     1   C  -   2   C       1.220317       2.017218
     1   C  -   5   H       0.962258       0.985648
     1   C  -   4   H       0.962258       0.985648
     1   C  -   3   H       0.089800       0.625329
     1   C  -   6   H       0.020820       0.128995
     1   C  -   7   H       0.020820       0.128995

     2   C  -   1   C       1.220317       2.017218
     2   C  -   7   H       0.938081       0.990336
     2   C  -   6   H       0.938081       0.990336
     2   C  -   3   H       0.851127       0.998906

     3   H  -   2   C       0.851127       0.998906
     3   H  -   1   C       0.089800       0.625329

     4   H  -   1   C       0.962258       0.985648

     5   H  -   1   C       0.962258       0.985648

     6   H  -   2   C       0.938081       0.990336
     6   H  -   1   C       0.020820       0.128995

     7   H  -   2   C       0.938081       0.990336
     7   H  -   1   C       0.020820       0.128995


 Valency analysis:

   CEN ATOM   TOT.VALENCE
     1   C       3.276274
     2   C       3.949304
     3   H       0.954879
     4   H       0.974984
     5   H       0.974984
     6   H       0.976511
     7   H       0.976511
 Localization group 2:   1 orbitals, occupancy  1.000
 Iterative localization: IB/PM,    1 iter; Final gradient 0.00E+00

 Bond order analysis:       [THRPRINT= 0.020]

   CEN ATOM   CEN ATOM     WIBERG.BO      RENORM.BO
     1   C  -   3   H       0.119588       0.500000
     1   C  -   2   C       0.040672       0.500000
     1   C  -   6   H       0.026595       0.500000
     1   C  -   7   H       0.026595       0.500000

     2   C  -   1   C       0.040672       0.500000

     3   H  -   1   C       0.119588       0.500000



     6   H  -   1   C       0.026595       0.500000

     7   H  -   1   C       0.026595       0.500000


 Valency analysis:

   CEN ATOM   TOT.VALENCE
     1   C       0.214518
     2   C       0.045260
     3   H       0.126955
     4   H       0.000609
     5   H       0.000609
     6   H       0.029838
     7   H       0.029838

 Total charge composition:

   CEN ATOM         s          p       ELECTRONS ->P.CHARGE
     1   C       3.08844    3.31127      6.39972   -0.39972
     2   C       2.98286    3.35366      6.33653   -0.33653
     3   H       0.85570                 0.85570    0.14430
     4   H       0.84214                 0.84214    0.15786
     5   H       0.84214                 0.84214    0.15786
     6   H       0.86189                 0.86189    0.13811
     7   H       0.86189                 0.86189    0.13811

 Total charge composition, AO contributions:

   CEN ATOM SHL      SPHERICAL COMPONENTS
     1   C  1s       1.99278
     1   C  2s       1.09567
     1   C  2p       1.05712    1.07655    1.17760

     2   C  1s       1.99156
     2   C  2s       0.99131
     2   C  2p       1.13467    1.05049    1.16850

     3   H  1s       0.85570

     4   H  1s       0.84214

     5   H  1s       0.84214

     6   H  1s       0.86189

     7   H  1s       0.86189

 Active orbital charges:

   CEN ATOM         s          p       ELECTRONS ->SPIN.DEN
     1   C       0.00237    0.87544      0.87781    0.87781
     2   C       0.00005    0.02312      0.02317    0.02317
     3   H       0.06812                 0.06812    0.06812
     4   H       0.00030                 0.00030    0.00030
     5   H       0.00030                 0.00030    0.00030
     6   H       0.01515                 0.01515    0.01515
     7   H       0.01515                 0.01515    0.01515

 Active orbital charges, AO contributions:

   CEN ATOM SHL      SPHERICAL COMPONENTS
     1   C  1s       0.00000
     1   C  2s       0.00237
     1   C  2p       0.87188    0.00355    0.00000

     2   C  1s       0.00000
     2   C  2s       0.00005
     2   C  2p       0.02283    0.00029    0.00000

     3   H  1s       0.06812

     4   H  1s       0.00030

     5   H  1s       0.00030

     6   H  1s       0.01515

     7   H  1s       0.01515

 Summary of localized orbital composition:   [THRPRINT= 0.020]

   ORB  GRP  ORB.ENERGY      CENTERS/CHARGES
     1   1    -9.933975      C  2   2.000
     2   1    -9.893886      C  1   2.000
     3   1    -0.566649      C  1   1.020   C  2   0.977
     4   1    -0.497636      C  1   1.158   H  4   0.837
     5   1    -0.497636      C  1   1.158   H  5   0.837
     6   1    -0.478336      C  2   1.088   H  3   0.782   C  1   0.126
     7   1    -0.476861      C  2   1.122   H  7   0.842   C  1   0.030
     8   1    -0.476861      C  2   1.122   H  6   0.842   C  1   0.030
     9   2    -0.029928      C  1   0.878   H  3   0.068   C  2   0.023   (other: 0.031)

 Localized orbitals saved to record      2200.2  (orbital set 4)


 **********************************************************************************************************************************
 DATASETS  * FILE   NREC   LENGTH (MB)   RECORD NAMES
              1      20       30.85       500      610      700      900      950      970     1000      129      960     1100   
                                          VAR    BASINP    GEOM    SYMINP    ZMAT    AOBASIS   BASIS     P2S    ABASIS      S 
                                         1400     1410     1200     1210     1080     1600     1650     1300     1700     1800   
                                           T        V       H0       H01     AOSYM     SMH    MOLCAS    ERIS     OPER     GRID   

              2       5        2.87       700     1000      520     1800     2200   
                                         GEOM     BASIS   MCVARS    GRID      UKS  

 PROGRAMS   *        TOTAL      IBBA       UKS       INT
 CPU TIMES  *         1.78      0.02      1.42      0.19
 REAL TIME  *         3.64 SEC
 DISK USED  *        34.91 MB      
 **********************************************************************************************************************************
 Molecular orbitals read from record     2200.2  Type=UKS/LOCAL(IBO)  
 Occupation numbers read from record     2200.2  Type=UKS/LOCAL(IBO)  
 Orbital energies read from record       2200.2  Type=UKS/LOCAL(IBO)  
 Redundancy group numbers read from rec  2200.2  Type=UKS/BETA (state 1.1)

 IBBA/STO-3G energy=      0.000000000000

        UKS-SCF 
    -78.10460288
 **********************************************************************************************************************************
 Molpro calculation terminated
