
 Primary working directories    : /tmp/sb13343
 Secondary working directories  : /tmp/sb13343
 Wavefunction directory         : /panfs/panasas01/chem/sb13343/wfu/
 Main file repository           : /tmp/sb13343/

 SHA1      : b4a5b34a9e711420743f49e6833241d17c61fb3c
 NAME      : 2099.9.b4a5b34
 ARCHNAME  : linux/x86_64_openmp
 FC        : /cm/shared/languages/GCC-6.1/bin/gfortran
 BLASLIB   : -lblas
 id        : simonbennie

 Nodes     nprocs
 node35-048    1

 Using customized tuning parameters: mindgm=1; mindgv=20; mindgc=4; mindgr=1; noblas=0; minvec=7
 default implementation of scratch files=df  

 memory,500,m
 geomtyp=xyz
 nosym
 noorient
 geometry={
 C         -0.00146        0.79548        0.00000
 C          0.02225       -0.69390        0.00000
 H         -0.99481       -1.12636        0.00000
 H         -0.09300        1.35197        0.92746
 H         -0.09300        1.35197       -0.92746
 H          0.52802       -1.09351        0.88764
 H          0.52802       -1.09351       -0.88764
 }
 basis={ default,svp }
 {uks,MM05-2X,direct;wf,17,1,1}
 {ibba,bonds=1}

 Variables initialized (895), CPU time= 0.00 sec
 Commands  initialized (725), CPU time= 0.02 sec, 591 directives.
 Default parameters read. Elapsed time= 0.13 sec

 Checking input...
 Passed
1


                                         ***  PROGRAM SYSTEM MOLPRO  ***
                                       Copyright, TTI GmbH Stuttgart, 2015
                                    Version 2099.9 linked May 26 2017 16:03:21


 **********************************************************************************************************************************
 LABEL *                                                                                 
  64 bit serial version                                                                  DATE: 08-Jun-17          TIME: 04:45:01  
 **********************************************************************************************************************************

 SHA1:             b4a5b34a9e711420743f49e6833241d17c61fb3c
 **********************************************************************************************************************************
 SETTING GEOMTYP        =    XYZ

 Variable memory set to  500000000 words,  buffer space 

 ZSYMEL=NOSYM

 SETTING BASIS          =    SVP


 Recomputing integrals since basis changed


 Using spherical harmonics

 Library entry C      S def2-SVP             selected for orbital group  1
 Library entry C      P def2-SVP             selected for orbital group  1
 Library entry C      D def2-SVP             selected for orbital group  1
 Library entry H      S def2-SVP             selected for orbital group  2
 Library entry H      P def2-SVP             selected for orbital group  2


 PROGRAM * SEWARD (Integral evaluation for generally contracted gaussian basis sets)     Author: Roland Lindh, 1990

 Geometry written to block  1 of record 700


 Point group  C1  



 ATOMIC COORDINATES

 NR  ATOM    CHARGE       X              Y              Z

   1  C       6.00   -0.002759000    1.503239338    0.000000000
   2  C       6.00    0.042046406   -1.311280958    0.000000000
   3  H       1.00   -1.879918446   -2.128511918    0.000000000
   4  H       1.00   -0.175744530    2.554853029    1.752645391
   5  H       1.00   -0.175744530    2.554853029   -1.752645391
   6  H       1.00    0.997813188   -2.066434414    1.677396497
   7  H       1.00    0.997813188   -2.066434414   -1.677396497

 Bond lengths in Bohr (Angstrom)

 1-2  2.814876910  1-4  2.051238947  1-5  2.051238947  2-3  2.088495950  2-6  2.073018546
     ( 1.489568712)     ( 1.085468905)     ( 1.085468905)     ( 1.105184462)     ( 1.096994173)

 2-7  2.073018546
     ( 1.096994173)

 Bond angles

  1-2-3  112.12345176   1-2-6  111.81246303   1-2-7  111.81246303   2-1-4  120.92728687

  2-1-5  120.92728687   3-2-6  106.36442052   3-2-7  106.36442052   4-1-5  117.39421083

  6-2-7  108.02720793

 NUCLEAR CHARGE:                   17
 NUMBER OF PRIMITIVE AOS:          85
 NUMBER OF SYMMETRY AOS:           83
 NUMBER OF CONTRACTIONS:           53   (  53A   )
 NUMBER OF CORE ORBITALS:           2   (   2A   )
 NUMBER OF VALENCE ORBITALS:       13   (  13A   )


 NUCLEAR REPULSION ENERGY   36.86300145


 Eigenvalues of metric

         1 0.525E-02 0.232E-01 0.271E-01 0.397E-01 0.503E-01 0.635E-01 0.102E+00 0.110E+00


 Contracted 2-electron integrals neglected if value below      1.0D-11
 AO integral compression algorithm  1   Integral accuracy      1.0D-11

     5.243 MB (compressed) written to integral file ( 52.3%)


 NUMBER OF SORTED TWO-ELECTRON INTEGRALS:    1024596.     BUFFER LENGTH:  32768
 NUMBER OF SEGMENTS:   1  SEGMENT LENGTH:    1024596      RECORD LENGTH: 524288

 Memory used in sort:       1.58 MW

 SORT1 READ     1206537. AND WROTE      940164. INTEGRALS IN      3 RECORDS. CPU TIME:     0.02 SEC, REAL TIME:     0.18 SEC
 SORT2 READ      940164. AND WROTE     1024596. INTEGRALS IN     20 RECORDS. CPU TIME:     0.05 SEC, REAL TIME:     0.43 SEC

 FILE SIZES:   FILE 1:    35.4 MBYTE,  FILE 4:    12.6 MBYTE,   TOTAL:     48.0 MBYTE

 OPERATOR DM      FOR CENTER  0  COORDINATES:    0.000000    0.000000    0.000000


 **********************************************************************************************************************************
 DATASETS  * FILE   NREC   LENGTH (MB)   RECORD NAMES
              1      19       34.42       500      610      700      900      950      970     1000      129      960     1100   
                                          VAR    BASINP    GEOM    SYMINP    ZMAT    AOBASIS   BASIS     P2S    ABASIS      S 
                                         1400     1410     1200     1210     1080     1600     1650     1300     1700   
                                           T        V       H0       H01     AOSYM     SMH    MOLCAS    ERIS     OPER   

 PROGRAMS   *        TOTAL       INT
 CPU TIMES  *         0.54      0.40
 REAL TIME  *         4.00 SEC
 DISK USED  *        48.39 MB      
 **********************************************************************************************************************************

 Density functional group MM05-2X=M052XX+M052XC
 Functional: M052XX(Automatically generated (new) M052XX)                      Gradient terms: 2
 Functional: M052XC(Automatically generated (new) M052XC)                      Gradient terms: 2
 Use grid at  1800.2


 Exact exchange will be calculated, factor:  0.5600

 Functional: M052XX                    Factor:  0.4400
 Functional: M052XC                    Factor:  1.0000

 Generated new metagrid on record  1800.2 with target accuracy 1.0D-06 and 23794 points in CPU time    0.5
 Computed new grid on record 1800.1 in CPU time    0.6
   86399 words reserved for DFT integration

 PROGRAM * UKS-SCF (Unrestricted Kohn-Sham)     Authors: W. Meyer, H.-J. Werner, P.J. Knowles, 1993

 NUMBER OF ELECTRONS:       9+    8-    SPACE SYMMETRY=1    SPIN SYMMETRY: Doublet 
 CONVERGENCE THRESHOLDS:    1.00E-05 (Density)    1.00E-06 (Energy)
 MAX. NUMBER OF ITERATIONS:       60
 INTERPOLATION TYPE:            DIIS
 INTERPOLATION STEPS:              2 (START)      1 (STEP)
 LEVEL SHIFTS:                 -0.20 (ALPHA)  -0.20 (BETA) 



 Use fine grid record 1800.2 for energy threshold  1.0D-06
 Orbital guess generated from atomic densities. Full valence occupancy:    9

 Molecular orbital dump at record        2200.2

 Initial alpha occupation   9
 Initial beta  occupation   8

 ITERATION    DDIFF          GRAD             ENERGY        2-EL.EN.            DIPOLE MOMENTS         DIIS
    1      0.000D+00      0.000D+00       -79.02534240    138.412857   -0.11674   -0.32714    0.00000    0
    2      0.858D-02      0.501D-02       -79.06506804    134.873554   -0.07456   -0.20317    0.00000    1
    3      0.201D-02      0.143D-02       -79.06844605    135.429041   -0.07223   -0.17072    0.00000    2
    4      0.139D-02      0.575D-03       -79.06971309    135.397511   -0.06650   -0.13361    0.00000    3
    5      0.593D-03      0.232D-03       -79.06991777    135.387765   -0.06360   -0.11830    0.00000    4
    6      0.231D-03      0.845D-04       -79.06995434    135.386826   -0.06222   -0.11256    0.00000    5
    7      0.680D-04      0.262D-04       -79.06995747    135.387176   -0.06182   -0.11084    0.00000    6
    8      0.179D-04      0.481D-05       -79.06995757    135.387422   -0.06172   -0.11082    0.00000    7
    9      0.414D-05      0.128D-05       -79.06995758    135.387399   -0.06173   -0.11086    0.00000    6
   10      0.146D-05      0.446D-06       -79.06995758    135.387446   -0.06172   -0.11087    0.00000    6

 Final alpha occupancy:   9
 Final beta  occupancy:   8

 !UKS STATE 1.1 Energy                -79.069957584106
 Nuclear energy                        36.86300145
 One-electron energy                 -177.77019403
 Two-electron energy                   67.69372320
 Density functional                    -5.85648820     M052XX=-12.06540149 M052XC= -0.54771154
 Virial quotient                       -1.01323455
 !UKS STATE 1.1 Dipole moment          -0.06172468    -0.11087474     0.00000000
 Dipole moment /Debye                  -0.15687822    -0.28179702     0.00000000

 Orbital energies for positive spin:

         1.1          2.1          3.1          4.1          5.1          6.1          7.1          8.1          9.1         10.1
    -10.578775   -10.572952    -0.849598    -0.689716    -0.524383    -0.483936    -0.460021    -0.422080    -0.256352     0.127982

        11.1
      0.161393

 Orbital energies for negative spin:

         1.1          2.1          3.1          4.1          5.1          6.1          7.1          8.1          9.1         10.1
    -10.573753   -10.566861    -0.830458    -0.662733    -0.515505    -0.463812    -0.449617    -0.417096    -0.000411     0.127357

        11.1
      0.167782

 HOMO      9.1    -0.256352 =      -6.9757eV
 LUMO     -9.1    -0.000411 =      -0.0112eV
 LUMO-HOMO         0.255942 =       6.9645eV

 EXPECTATION VALUE OF S**2:             0.75376146

 Occupation number threshold for canonical orbitals:  1.999000 (occupied),  0.001000 (virtual)

 Number of pseudo-canonical orbitals per symmetry:    8
 Number of active natural orbitals per symmetry:      1

 Natural orbitals saved to record    2200.2 (Orbital set 3)

 Orbital spaces for UNO-CAS (Min. occupation: 0.020  Max. occupation: 1.980):

 Closed:        8
 Active:        1


 **********************************************************************************************************************************
 DATASETS  * FILE   NREC   LENGTH (MB)   RECORD NAMES
              1      20       35.18       500      610      700      900      950      970     1000      129      960     1100   
                                          VAR    BASINP    GEOM    SYMINP    ZMAT    AOBASIS   BASIS     P2S    ABASIS      S 
                                         1400     1410     1200     1210     1080     1600     1650     1300     1700     1800   
                                           T        V       H0       H01     AOSYM     SMH    MOLCAS    ERIS     OPER     GRID   

              2       5        2.98       700     1000      520     1800     2200   
                                         GEOM     BASIS   MCVARS    GRID      UKS  

 PROGRAMS   *        TOTAL       UKS       INT
 CPU TIMES  *        13.53     12.99      0.40
 REAL TIME  *        73.47 SEC
 DISK USED  *        48.39 MB      
 **********************************************************************************************************************************


 PROGRAM * Intrinsic Basis Bonding Analysis (IBBA)          Author: G. Knizia

 Molecular orbitals read from record     2200.2  Type=UKS/ALPHA (state 1.1)
 Fock matrix read from record            2200.2  Type=UKS/TOTAL (state 1.1)
 Orbital energies read from record       2200.2  Type=UKS/ALPHA (state 1.1)
 Density matrix read from record         2200.2  Type=UKS/CHARGE (state 1.1)

 Number of core orbitals:           2 (   2 )
 Number of closed-shell orbitals:   6 (   6 )
 Number of active  orbitals:        1 (   1 )

 Basis set MINAO-AUTO-PP generated.      Number of basis functions:   15 

 Polarized AO type:                A = (O Ot + (1-O)(1-Ot)) P12
 Orthogonalization method:         Symmetric (Loewdin)
 Localization functional:          L = sum[A,i] <i|n_A|i>^4 -> max

 Localization group 1:   8 orbitals, occupancy  2.000
 Iterative localization: IB/PM,    6 iter; Final gradient 0.58E-08

 Bond order analysis:       [THRPRINT= 0.020]

   CEN ATOM   CEN ATOM     WIBERG.BO      RENORM.BO
     1   C  -   2   C       1.247811       2.017763
     1   C  -   5   H       0.958201       0.984922
     1   C  -   4   H       0.958201       0.984922
     1   C  -   3   H       0.099088       0.618418
     1   C  -   6   H       0.023261       0.129185
     1   C  -   7   H       0.023261       0.129185

     2   C  -   1   C       1.247811       2.017763
     2   C  -   7   H       0.932880       0.989836
     2   C  -   6   H       0.932880       0.989836
     2   C  -   3   H       0.834756       0.998755

     3   H  -   2   C       0.834756       0.998755
     3   H  -   1   C       0.099088       0.618418

     4   H  -   1   C       0.958201       0.984922

     5   H  -   1   C       0.958201       0.984922

     6   H  -   2   C       0.932880       0.989836
     6   H  -   1   C       0.023261       0.129185

     7   H  -   2   C       0.932880       0.989836
     7   H  -   1   C       0.023261       0.129185


 Valency analysis:

   CEN ATOM   TOT.VALENCE
     1   C       3.309823
     2   C       3.950678
     3   H       0.948043
     4   H       0.972126
     5   H       0.972126
     6   H       0.974304
     7   H       0.974304
 Localization group 2:   1 orbitals, occupancy  1.000
 Iterative localization: IB/PM,    1 iter; Final gradient 0.00E+00

 Bond order analysis:       [THRPRINT= 0.020]

   CEN ATOM   CEN ATOM     WIBERG.BO      RENORM.BO
     1   C  -   3   H       0.123238       0.500000
     1   C  -   2   C       0.038636       0.500000
     1   C  -   6   H       0.027013       0.500000
     1   C  -   7   H       0.027013       0.500000

     2   C  -   1   C       0.038636       0.500000

     3   H  -   1   C       0.123238       0.500000



     6   H  -   1   C       0.027013       0.500000

     7   H  -   1   C       0.027013       0.500000


 Valency analysis:

   CEN ATOM   TOT.VALENCE
     1   C       0.217028
     2   C       0.043126
     3   H       0.130766
     4   H       0.000643
     5   H       0.000643
     6   H       0.030357
     7   H       0.030357

 Total charge composition:

   CEN ATOM         s          p       ELECTRONS ->P.CHARGE
     1   C       3.07911    3.36580      6.44491   -0.44491
     2   C       2.99542    3.34032      6.33573   -0.33573
     3   H       0.84239                 0.84239    0.15761
     4   H       0.83337                 0.83337    0.16663
     5   H       0.83337                 0.83337    0.16663
     6   H       0.85512                 0.85512    0.14488
     7   H       0.85512                 0.85512    0.14488

 Total charge composition, AO contributions:

   CEN ATOM SHL      SPHERICAL COMPONENTS
     1   C  1s       1.99196
     1   C  2s       1.08715
     1   C  2p       1.08084    1.09099    1.19397

     2   C  1s       1.99051
     2   C  2s       1.00490
     2   C  2p       1.12390    1.04781    1.16860

     3   H  1s       0.84239

     4   H  1s       0.83337

     5   H  1s       0.83337

     6   H  1s       0.85512

     7   H  1s       0.85512

 Active orbital charges:

   CEN ATOM         s          p       ELECTRONS ->SPIN.DEN
     1   C       0.00228    0.87386      0.87615    0.87615
     2   C       0.00005    0.02200      0.02205    0.02205
     3   H       0.07033                 0.07033    0.07033
     4   H       0.00032                 0.00032    0.00032
     5   H       0.00032                 0.00032    0.00032
     6   H       0.01542                 0.01542    0.01542
     7   H       0.01542                 0.01542    0.01542

 Active orbital charges, AO contributions:

   CEN ATOM SHL      SPHERICAL COMPONENTS
     1   C  1s       0.00000
     1   C  2s       0.00228
     1   C  2p       0.87010    0.00376    0.00000

     2   C  1s       0.00000
     2   C  2s       0.00005
     2   C  2p       0.02181    0.00019    0.00000

     3   H  1s       0.07033

     4   H  1s       0.00032

     5   H  1s       0.00032

     6   H  1s       0.01542

     7   H  1s       0.01542

 Summary of localized orbital composition:   [THRPRINT= 0.020]

   ORB  GRP  ORB.ENERGY      CENTERS/CHARGES
     1   1   -10.462618      C  1   2.000
     2   1   -10.454499      C  2   2.000
     3   1    -0.687145      C  1   1.023   C  2   0.974
     4   1    -0.600018      C  1   1.167   H  4   0.828
     5   1    -0.600018      C  1   1.167   H  5   0.828
     6   1    -0.574302      C  2   1.087   H  3   0.766   C  1   0.143
     7   1    -0.573093      C  2   1.124   H  7   0.835   C  1   0.034
     8   1    -0.573093      C  2   1.124   H  6   0.835   C  1   0.034
     9   2    -0.124378      C  1   0.876   H  3   0.070   C  2   0.022   (other: 0.031)

 Localized orbitals saved to record      2200.2  (orbital set 4)


 **********************************************************************************************************************************
 DATASETS  * FILE   NREC   LENGTH (MB)   RECORD NAMES
              1      20       35.18       500      610      700      900      950      970     1000      129      960     1100   
                                          VAR    BASINP    GEOM    SYMINP    ZMAT    AOBASIS   BASIS     P2S    ABASIS      S 
                                         1400     1410     1200     1210     1080     1600     1650     1300     1700     1800   
                                           T        V       H0       H01     AOSYM     SMH    MOLCAS    ERIS     OPER     GRID   

              2       5        3.00       700     1000      520     1800     2200   
                                         GEOM     BASIS   MCVARS    GRID      UKS  

 PROGRAMS   *        TOTAL      IBBA       UKS       INT
 CPU TIMES  *        13.56      0.03     12.99      0.40
 REAL TIME  *        73.74 SEC
 DISK USED  *        48.39 MB      
 **********************************************************************************************************************************
 Molecular orbitals read from record     2200.2  Type=UKS/LOCAL(IBO)  
 Occupation numbers read from record     2200.2  Type=UKS/LOCAL(IBO)  
 Orbital energies read from record       2200.2  Type=UKS/LOCAL(IBO)  
 Redundancy group numbers read from rec  2200.2  Type=UKS/BETA (state 1.1)

 IBBA/SVP energy=      0.000000000000

        UKS-SCF 
    -79.06995758
 **********************************************************************************************************************************
 Molpro calculation terminated
