
 Primary working directories    : /tmp/sb13343
 Secondary working directories  : /tmp/sb13343
 Wavefunction directory         : /panfs/panasas01/chem/sb13343/wfu/
 Main file repository           : /tmp/sb13343/

 SHA1      : b4a5b34a9e711420743f49e6833241d17c61fb3c
 NAME      : 2099.9.b4a5b34
 ARCHNAME  : linux/x86_64_openmp
 FC        : /cm/shared/languages/GCC-6.1/bin/gfortran
 BLASLIB   : -lblas
 id        : simonbennie

 Nodes     nprocs
 node32-007    1

 Using customized tuning parameters: mindgm=1; mindgv=20; mindgc=4; mindgr=1; noblas=0; minvec=7
 default implementation of scratch files=df  

 memory,500,m
 geomtyp=xyz
 nosym
 noorient
 geometry={
 C         -0.00146        0.79548        0.00000
 C          0.02225       -0.69390        0.00000
 H         -0.99481       -1.12636        0.00000
 H         -0.09300        1.35197        0.92746
 H         -0.09300        1.35197       -0.92746
 H          0.52802       -1.09351        0.88764
 H          0.52802       -1.09351       -0.88764
 }
 basis={ default,svp }
 {uks,MM06,direct;wf,17,1,1}
 {ibba,bonds=1}

 Variables initialized (895), CPU time= 0.00 sec
 Commands  initialized (725), CPU time= 0.01 sec, 591 directives.
 Default parameters read. Elapsed time= 0.40 sec

 Checking input...
 Passed
1


                                         ***  PROGRAM SYSTEM MOLPRO  ***
                                       Copyright, TTI GmbH Stuttgart, 2015
                                    Version 2099.9 linked May 26 2017 16:03:21


 **********************************************************************************************************************************
 LABEL *                                                                                 
  64 bit serial version                                                                  DATE: 08-Jun-17          TIME: 04:58:54  
 **********************************************************************************************************************************

 SHA1:             b4a5b34a9e711420743f49e6833241d17c61fb3c
 **********************************************************************************************************************************
 SETTING GEOMTYP        =    XYZ

 Variable memory set to  500000000 words,  buffer space 

 ZSYMEL=NOSYM

 SETTING BASIS          =    SVP


 Recomputing integrals since basis changed


 Using spherical harmonics

 Library entry C      S def2-SVP             selected for orbital group  1
 Library entry C      P def2-SVP             selected for orbital group  1
 Library entry C      D def2-SVP             selected for orbital group  1
 Library entry H      S def2-SVP             selected for orbital group  2
 Library entry H      P def2-SVP             selected for orbital group  2


 PROGRAM * SEWARD (Integral evaluation for generally contracted gaussian basis sets)     Author: Roland Lindh, 1990

 Geometry written to block  1 of record 700


 Point group  C1  



 ATOMIC COORDINATES

 NR  ATOM    CHARGE       X              Y              Z

   1  C       6.00   -0.002759000    1.503239338    0.000000000
   2  C       6.00    0.042046406   -1.311280958    0.000000000
   3  H       1.00   -1.879918446   -2.128511918    0.000000000
   4  H       1.00   -0.175744530    2.554853029    1.752645391
   5  H       1.00   -0.175744530    2.554853029   -1.752645391
   6  H       1.00    0.997813188   -2.066434414    1.677396497
   7  H       1.00    0.997813188   -2.066434414   -1.677396497

 Bond lengths in Bohr (Angstrom)

 1-2  2.814876910  1-4  2.051238947  1-5  2.051238947  2-3  2.088495950  2-6  2.073018546
     ( 1.489568712)     ( 1.085468905)     ( 1.085468905)     ( 1.105184462)     ( 1.096994173)

 2-7  2.073018546
     ( 1.096994173)

 Bond angles

  1-2-3  112.12345176   1-2-6  111.81246303   1-2-7  111.81246303   2-1-4  120.92728687

  2-1-5  120.92728687   3-2-6  106.36442052   3-2-7  106.36442052   4-1-5  117.39421083

  6-2-7  108.02720793

 NUCLEAR CHARGE:                   17
 NUMBER OF PRIMITIVE AOS:          85
 NUMBER OF SYMMETRY AOS:           83
 NUMBER OF CONTRACTIONS:           53   (  53A   )
 NUMBER OF CORE ORBITALS:           2   (   2A   )
 NUMBER OF VALENCE ORBITALS:       13   (  13A   )


 NUCLEAR REPULSION ENERGY   36.86300145


 Eigenvalues of metric

         1 0.525E-02 0.232E-01 0.271E-01 0.397E-01 0.503E-01 0.635E-01 0.102E+00 0.110E+00


 Contracted 2-electron integrals neglected if value below      1.0D-11
 AO integral compression algorithm  1   Integral accuracy      1.0D-11

     5.243 MB (compressed) written to integral file ( 52.3%)


 NUMBER OF SORTED TWO-ELECTRON INTEGRALS:    1024596.     BUFFER LENGTH:  32768
 NUMBER OF SEGMENTS:   1  SEGMENT LENGTH:    1024596      RECORD LENGTH: 524288

 Memory used in sort:       1.58 MW

 SORT1 READ     1206537. AND WROTE      940164. INTEGRALS IN      3 RECORDS. CPU TIME:     0.01 SEC, REAL TIME:     0.03 SEC
 SORT2 READ      940164. AND WROTE     1024596. INTEGRALS IN     20 RECORDS. CPU TIME:     0.06 SEC, REAL TIME:     0.07 SEC

 FILE SIZES:   FILE 1:    35.4 MBYTE,  FILE 4:    12.6 MBYTE,   TOTAL:     48.0 MBYTE

 OPERATOR DM      FOR CENTER  0  COORDINATES:    0.000000    0.000000    0.000000


 **********************************************************************************************************************************
 DATASETS  * FILE   NREC   LENGTH (MB)   RECORD NAMES
              1      19       34.42       500      610      700      900      950      970     1000      129      960     1100   
                                          VAR    BASINP    GEOM    SYMINP    ZMAT    AOBASIS   BASIS     P2S    ABASIS      S 
                                         1400     1410     1200     1210     1080     1600     1650     1300     1700   
                                           T        V       H0       H01     AOSYM     SMH    MOLCAS    ERIS     OPER   

 PROGRAMS   *        TOTAL       INT
 CPU TIMES  *         0.56      0.41
 REAL TIME  *         1.51 SEC
 DISK USED  *        48.39 MB      
 **********************************************************************************************************************************

 Density functional group MM06=M06X+M06C
 Functional: M06X(Automatically generated (new) M06X)                          Gradient terms: 2
 Functional: M06C(Automatically generated (new) M06C)                          Gradient terms: 2
 Use grid at  1800.2


 Exact exchange will be calculated, factor:  0.2700

 Functional: M06X                      Factor:  0.7300
 Functional: M06C                      Factor:  1.0000

 Generated new metagrid on record  1800.2 with target accuracy 1.0D-06 and 23794 points in CPU time    0.5
 Computed new grid on record 1800.1 in CPU time    0.6
   86399 words reserved for DFT integration

 PROGRAM * UKS-SCF (Unrestricted Kohn-Sham)     Authors: W. Meyer, H.-J. Werner, P.J. Knowles, 1993

 NUMBER OF ELECTRONS:       9+    8-    SPACE SYMMETRY=1    SPIN SYMMETRY: Doublet 
 CONVERGENCE THRESHOLDS:    1.00E-05 (Density)    1.00E-06 (Energy)
 MAX. NUMBER OF ITERATIONS:       60
 INTERPOLATION TYPE:            DIIS
 INTERPOLATION STEPS:              2 (START)      1 (STEP)
 LEVEL SHIFTS:                 -0.20 (ALPHA)  -0.20 (BETA) 



 Use fine grid record 1800.2 for energy threshold  1.0D-06
 Orbital guess generated from atomic densities. Full valence occupancy:    9

 Molecular orbital dump at record        2200.2

 Initial alpha occupation   9
 Initial beta  occupation   8

 ITERATION    DDIFF          GRAD             ENERGY        2-EL.EN.            DIPOLE MOMENTS         DIIS
    1      0.000D+00      0.000D+00       -76.64027914    144.425557   -0.10911   -0.27558    0.00000    0
    2      0.988D-02      0.524D-02       -76.68248750    139.783211   -0.06219   -0.17735    0.00000    1
    3      0.298D-02      0.207D-02       -76.68781853    140.781509   -0.06372   -0.16254    0.00000    2
    4      0.127D-02      0.370D-03       -76.68833090    140.726390   -0.05854   -0.14142    0.00000    3
    5      0.699D-03      0.191D-03       -76.68847281    140.706572   -0.05426   -0.12541    0.00000    4
    6      0.214D-03      0.683D-04       -76.68849785    140.709877   -0.05238   -0.11931    0.00000    5
    7      0.856D-04      0.273D-04       -76.68850122    140.708151   -0.05163   -0.11687    0.00000    6
    8      0.311D-04      0.715D-05       -76.68850144    140.708441   -0.05138   -0.11663    0.00000    7
    9      0.726D-05      0.151D-05       -76.68850146    140.708456   -0.05136   -0.11663    0.00000    6
   10      0.353D-05      0.602D-06       -76.68850146    140.708359   -0.05133   -0.11665    0.00000    7

 Final alpha occupancy:   9
 Final beta  occupancy:   8

 !UKS STATE 1.1 Energy                -76.688501458138
 Nuclear energy                        36.86300145
 One-electron energy                 -177.00759929
 Two-electron energy                   70.35417931
 Density functional                    -6.89808292     M06X=-8.59757254 M06C=-0.62185497
 Virial quotient                       -0.99484543
 !UKS STATE 1.1 Dipole moment          -0.05133180    -0.11664560     0.00000000
 Dipole moment /Debye                  -0.13046388    -0.29646411     0.00000000

 Orbital energies for positive spin:

         1.1          2.1          3.1          4.1          5.1          6.1          7.1          8.1          9.1         10.1
     -9.910995    -9.909505    -0.689864    -0.540800    -0.399587    -0.362254    -0.342470    -0.302095    -0.145104     0.109101

        11.1
      0.143128

 Orbital energies for negative spin:

         1.1          2.1          3.1          4.1          5.1          6.1          7.1          8.1          9.1         10.1
     -9.909825    -9.903569    -0.676250    -0.519103    -0.391363    -0.348926    -0.336074    -0.296105     0.000170     0.108836

        11.1
      0.147519

 HOMO      9.1    -0.145104 =      -3.9485eV
 LUMO     -9.1     0.000170 =       0.0046eV
 LUMO-HOMO         0.145274 =       3.9531eV

 EXPECTATION VALUE OF S**2:             0.75270455

 Occupation number threshold for canonical orbitals:  1.999000 (occupied),  0.001000 (virtual)

 Number of pseudo-canonical orbitals per symmetry:    8
 Number of active natural orbitals per symmetry:      1

 Natural orbitals saved to record    2200.2 (Orbital set 3)

 Orbital spaces for UNO-CAS (Min. occupation: 0.020  Max. occupation: 1.980):

 Closed:        8
 Active:        1


 **********************************************************************************************************************************
 DATASETS  * FILE   NREC   LENGTH (MB)   RECORD NAMES
              1      20       35.18       500      610      700      900      950      970     1000      129      960     1100   
                                          VAR    BASINP    GEOM    SYMINP    ZMAT    AOBASIS   BASIS     P2S    ABASIS      S 
                                         1400     1410     1200     1210     1080     1600     1650     1300     1700     1800   
                                           T        V       H0       H01     AOSYM     SMH    MOLCAS    ERIS     OPER     GRID   

              2       5        2.98       700     1000      520     1800     2200   
                                         GEOM     BASIS   MCVARS    GRID      UKS  

 PROGRAMS   *        TOTAL       UKS       INT
 CPU TIMES  *        13.83     13.27      0.41
 REAL TIME  *        15.03 SEC
 DISK USED  *        48.39 MB      
 **********************************************************************************************************************************


 PROGRAM * Intrinsic Basis Bonding Analysis (IBBA)          Author: G. Knizia

 Molecular orbitals read from record     2200.2  Type=UKS/ALPHA (state 1.1)
 Fock matrix read from record            2200.2  Type=UKS/TOTAL (state 1.1)
 Orbital energies read from record       2200.2  Type=UKS/ALPHA (state 1.1)
 Density matrix read from record         2200.2  Type=UKS/CHARGE (state 1.1)

 Number of core orbitals:           2 (   2 )
 Number of closed-shell orbitals:   6 (   6 )
 Number of active  orbitals:        1 (   1 )

 Basis set MINAO-AUTO-PP generated.      Number of basis functions:   15 

 Polarized AO type:                A = (O Ot + (1-O)(1-Ot)) P12
 Orthogonalization method:         Symmetric (Loewdin)
 Localization functional:          L = sum[A,i] <i|n_A|i>^4 -> max

 Localization group 1:   8 orbitals, occupancy  2.000
 Iterative localization: IB/PM,    6 iter; Final gradient 0.67E-08

 Bond order analysis:       [THRPRINT= 0.020]

   CEN ATOM   CEN ATOM     WIBERG.BO      RENORM.BO
     1   C  -   2   C       1.250142       2.022177
     1   C  -   5   H       0.963704       0.982230
     1   C  -   4   H       0.963704       0.982230
     1   C  -   3   H       0.099315       0.611854
     1   C  -   6   H       0.023944       0.129985
     1   C  -   7   H       0.023944       0.129985

     2   C  -   1   C       1.250142       2.022177
     2   C  -   7   H       0.933613       0.987720
     2   C  -   6   H       0.933613       0.987720
     2   C  -   3   H       0.837739       0.998669

     3   H  -   2   C       0.837739       0.998669
     3   H  -   1   C       0.099315       0.611854

     4   H  -   1   C       0.963704       0.982230

     5   H  -   1   C       0.963704       0.982230

     6   H  -   2   C       0.933613       0.987720
     6   H  -   1   C       0.023944       0.129985

     7   H  -   2   C       0.933613       0.987720
     7   H  -   1   C       0.023944       0.129985


 Valency analysis:

   CEN ATOM   TOT.VALENCE
     1   C       3.324754
     2   C       3.957590
     3   H       0.953025
     4   H       0.980231
     5   H       0.980231
     6   H       0.979127
     7   H       0.979127
 Localization group 2:   1 orbitals, occupancy  1.000
 Iterative localization: IB/PM,    1 iter; Final gradient 0.00E+00

 Bond order analysis:       [THRPRINT= 0.020]

   CEN ATOM   CEN ATOM     WIBERG.BO      RENORM.BO
     1   C  -   3   H       0.133204       0.500000
     1   C  -   2   C       0.032052       0.500000
     1   C  -   6   H       0.029669       0.500000
     1   C  -   7   H       0.029669       0.500000

     2   C  -   1   C       0.032052       0.500000

     3   H  -   1   C       0.133204       0.500000



     6   H  -   1   C       0.029669       0.500000

     7   H  -   1   C       0.029669       0.500000


 Valency analysis:

   CEN ATOM   TOT.VALENCE
     1   C       0.225811
     2   C       0.036153
     3   H       0.141348
     4   H       0.000698
     5   H       0.000698
     6   H       0.033511
     7   H       0.033511

 Total charge composition:

   CEN ATOM         s          p       ELECTRONS ->P.CHARGE
     1   C       3.05316    3.31933      6.37249   -0.37249
     2   C       2.97429    3.32879      6.30308   -0.30308
     3   H       0.85979                 0.85979    0.14021
     4   H       0.85975                 0.85975    0.14025
     5   H       0.85975                 0.85975    0.14025
     6   H       0.87257                 0.87257    0.12743
     7   H       0.87257                 0.87257    0.12743

 Total charge composition, AO contributions:

   CEN ATOM SHL      SPHERICAL COMPONENTS
     1   C  1s       1.99352
     1   C  2s       1.05964
     1   C  2p       1.07377    1.07682    1.16875

     2   C  1s       1.99237
     2   C  2s       0.98192
     2   C  2p       1.11476    1.06021    1.15383

     3   H  1s       0.85979

     4   H  1s       0.85975

     5   H  1s       0.85975

     6   H  1s       0.87257

     7   H  1s       0.87257

 Active orbital charges:

   CEN ATOM         s          p       ELECTRONS ->SPIN.DEN
     1   C       0.00229    0.86798      0.87026    0.87026
     2   C       0.00004    0.01838      0.01842    0.01842
     3   H       0.07653                 0.07653    0.07653
     4   H       0.00035                 0.00035    0.00035
     5   H       0.00035                 0.00035    0.00035
     6   H       0.01705                 0.01705    0.01705
     7   H       0.01705                 0.01705    0.01705

 Active orbital charges, AO contributions:

   CEN ATOM SHL      SPHERICAL COMPONENTS
     1   C  1s       0.00000
     1   C  2s       0.00228
     1   C  2p       0.86425    0.00373    0.00000

     2   C  1s       0.00000
     2   C  2s       0.00004
     2   C  2p       0.01826    0.00012    0.00000

     3   H  1s       0.07653

     4   H  1s       0.00035

     5   H  1s       0.00035

     6   H  1s       0.01705

     7   H  1s       0.01705

 Summary of localized orbital composition:   [THRPRINT= 0.020]

   ORB  GRP  ORB.ENERGY      CENTERS/CHARGES
     1   1    -9.807234      C  1   2.000
     2   1    -9.801358      C  2   2.000
     3   1    -0.553904      C  1   1.009   C  2   0.987
     4   1    -0.462201      C  1   1.140   H  4   0.853
     5   1    -0.462201      C  1   1.140   H  5   0.853
     6   1    -0.445656      C  2   1.077   H  3   0.777   C  1   0.142
     7   1    -0.441829      C  2   1.107   H  7   0.850   C  1   0.035
     8   1    -0.441829      C  2   1.107   H  6   0.850   C  1   0.035
     9   2    -0.069041      C  1   0.870   H  3   0.077   (other: 0.053)

 Localized orbitals saved to record      2200.2  (orbital set 4)


 **********************************************************************************************************************************
 DATASETS  * FILE   NREC   LENGTH (MB)   RECORD NAMES
              1      20       35.18       500      610      700      900      950      970     1000      129      960     1100   
                                          VAR    BASINP    GEOM    SYMINP    ZMAT    AOBASIS   BASIS     P2S    ABASIS      S 
                                         1400     1410     1200     1210     1080     1600     1650     1300     1700     1800   
                                           T        V       H0       H01     AOSYM     SMH    MOLCAS    ERIS     OPER     GRID   

              2       5        3.00       700     1000      520     1800     2200   
                                         GEOM     BASIS   MCVARS    GRID      UKS  

 PROGRAMS   *        TOTAL      IBBA       UKS       INT
 CPU TIMES  *        13.85      0.02     13.27      0.41
 REAL TIME  *        15.09 SEC
 DISK USED  *        48.39 MB      
 **********************************************************************************************************************************
 Molecular orbitals read from record     2200.2  Type=UKS/LOCAL(IBO)  
 Occupation numbers read from record     2200.2  Type=UKS/LOCAL(IBO)  
 Orbital energies read from record       2200.2  Type=UKS/LOCAL(IBO)  
 Redundancy group numbers read from rec  2200.2  Type=UKS/BETA (state 1.1)

 IBBA/SVP energy=      0.000000000000

        UKS-SCF 
    -76.68850146
 **********************************************************************************************************************************
 Molpro calculation terminated
