
 Primary working directories    : /tmp/sb13343
 Secondary working directories  : /tmp/sb13343
 Wavefunction directory         : /panfs/panasas01/chem/sb13343/wfu/
 Main file repository           : /tmp/sb13343/

 SHA1      : b4a5b34a9e711420743f49e6833241d17c61fb3c
 NAME      : 2099.9.b4a5b34
 ARCHNAME  : linux/x86_64_openmp
 FC        : /cm/shared/languages/GCC-6.1/bin/gfortran
 BLASLIB   : -lblas
 id        : simonbennie

 Nodes     nprocs
 node35-048    1

 Using customized tuning parameters: mindgm=1; mindgv=20; mindgc=4; mindgr=1; noblas=0; minvec=7
 default implementation of scratch files=df  

 memory,500,m
 geomtyp=xyz
 nosym
 noorient
 geometry={
 C         -0.00146        0.79548        0.00000
 C          0.02225       -0.69390        0.00000
 H         -0.99481       -1.12636        0.00000
 H         -0.09300        1.35197        0.92746
 H         -0.09300        1.35197       -0.92746
 H          0.52802       -1.09351        0.88764
 H          0.52802       -1.09351       -0.88764
 }
 basis={ default,svp }
 {ks,SOGGA,direct;wf,17,1,1}
 {ibba,bonds=1}

 Variables initialized (895), CPU time= 0.00 sec
 Commands  initialized (725), CPU time= 0.02 sec, 591 directives.
 Default parameters read. Elapsed time= 0.14 sec

 Checking input...
 Passed
1


                                         ***  PROGRAM SYSTEM MOLPRO  ***
                                       Copyright, TTI GmbH Stuttgart, 2015
                                    Version 2099.9 linked May 26 2017 16:03:21


 **********************************************************************************************************************************
 LABEL *                                                                                 
  64 bit serial version                                                                  DATE: 08-Jun-17          TIME: 05:06:53  
 **********************************************************************************************************************************

 SHA1:             b4a5b34a9e711420743f49e6833241d17c61fb3c
 **********************************************************************************************************************************
 SETTING GEOMTYP        =    XYZ

 Variable memory set to  500000000 words,  buffer space 

 ZSYMEL=NOSYM

 SETTING BASIS          =    SVP


 Recomputing integrals since basis changed


 Using spherical harmonics

 Library entry C      S def2-SVP             selected for orbital group  1
 Library entry C      P def2-SVP             selected for orbital group  1
 Library entry C      D def2-SVP             selected for orbital group  1
 Library entry H      S def2-SVP             selected for orbital group  2
 Library entry H      P def2-SVP             selected for orbital group  2


 PROGRAM * SEWARD (Integral evaluation for generally contracted gaussian basis sets)     Author: Roland Lindh, 1990

 Geometry written to block  1 of record 700


 Point group  C1  



 ATOMIC COORDINATES

 NR  ATOM    CHARGE       X              Y              Z

   1  C       6.00   -0.002759000    1.503239338    0.000000000
   2  C       6.00    0.042046406   -1.311280958    0.000000000
   3  H       1.00   -1.879918446   -2.128511918    0.000000000
   4  H       1.00   -0.175744530    2.554853029    1.752645391
   5  H       1.00   -0.175744530    2.554853029   -1.752645391
   6  H       1.00    0.997813188   -2.066434414    1.677396497
   7  H       1.00    0.997813188   -2.066434414   -1.677396497

 Bond lengths in Bohr (Angstrom)

 1-2  2.814876910  1-4  2.051238947  1-5  2.051238947  2-3  2.088495950  2-6  2.073018546
     ( 1.489568712)     ( 1.085468905)     ( 1.085468905)     ( 1.105184462)     ( 1.096994173)

 2-7  2.073018546
     ( 1.096994173)

 Bond angles

  1-2-3  112.12345176   1-2-6  111.81246303   1-2-7  111.81246303   2-1-4  120.92728687

  2-1-5  120.92728687   3-2-6  106.36442052   3-2-7  106.36442052   4-1-5  117.39421083

  6-2-7  108.02720793

 NUCLEAR CHARGE:                   17
 NUMBER OF PRIMITIVE AOS:          85
 NUMBER OF SYMMETRY AOS:           83
 NUMBER OF CONTRACTIONS:           53   (  53A   )
 NUMBER OF CORE ORBITALS:           2   (   2A   )
 NUMBER OF VALENCE ORBITALS:       13   (  13A   )


 NUCLEAR REPULSION ENERGY   36.86300145


 Eigenvalues of metric

         1 0.525E-02 0.232E-01 0.271E-01 0.397E-01 0.503E-01 0.635E-01 0.102E+00 0.110E+00


 Contracted 2-electron integrals neglected if value below      1.0D-11
 AO integral compression algorithm  1   Integral accuracy      1.0D-11

     5.243 MB (compressed) written to integral file ( 52.3%)


 NUMBER OF SORTED TWO-ELECTRON INTEGRALS:    1024596.     BUFFER LENGTH:  32768
 NUMBER OF SEGMENTS:   1  SEGMENT LENGTH:    1024596      RECORD LENGTH: 524288

 Memory used in sort:       1.58 MW

 SORT1 READ     1206537. AND WROTE      940164. INTEGRALS IN      3 RECORDS. CPU TIME:     0.02 SEC, REAL TIME:     0.02 SEC
 SORT2 READ      940164. AND WROTE     1024596. INTEGRALS IN     20 RECORDS. CPU TIME:     0.05 SEC, REAL TIME:     0.07 SEC

 FILE SIZES:   FILE 1:    35.4 MBYTE,  FILE 4:    12.6 MBYTE,   TOTAL:     48.0 MBYTE

 OPERATOR DM      FOR CENTER  0  COORDINATES:    0.000000    0.000000    0.000000


 **********************************************************************************************************************************
 DATASETS  * FILE   NREC   LENGTH (MB)   RECORD NAMES
              1      19       34.42       500      610      700      900      950      970     1000      129      960     1100   
                                          VAR    BASINP    GEOM    SYMINP    ZMAT    AOBASIS   BASIS     P2S    ABASIS      S 
                                         1400     1410     1200     1210     1080     1600     1650     1300     1700   
                                           T        V       H0       H01     AOSYM     SMH    MOLCAS    ERIS     OPER   

 PROGRAMS   *        TOTAL       INT
 CPU TIMES  *         0.51      0.38
 REAL TIME  *         1.24 SEC
 DISK USED  *        48.39 MB      
 **********************************************************************************************************************************

 Density functional group SOGGA=XC-SOGGA
 Functional: XC-SOGGA(via MFM 1.6)                                             Gradient terms: 1
 Use grid at  1800.2

 Functional: XC-SOGGA                  Factor:  1.0000

 Generated new metagrid on record  1800.2 with target accuracy 1.0D-06 and 23794 points in CPU time    0.5
 Computed new grid on record 1800.1 in CPU time    0.5
   46013 words reserved for DFT integration

 PROGRAM * RKS-SCF (Restricted open shell Kohn-Sham)     Authors: W. Meyer, H.-J. Werner, P.J. Knowles, 1993

 NUMBER OF ELECTRONS:       9+    8-    SPACE SYMMETRY=1    SPIN SYMMETRY: Doublet 
 CONVERGENCE THRESHOLDS:    1.00E-05 (Density)    1.00E-06 (Energy)
 MAX. NUMBER OF ITERATIONS:       60
 INTERPOLATION TYPE:            DIIS
 INTERPOLATION STEPS:              2 (START)      1 (STEP)
 LEVEL SHIFTS:                 -0.60 (CLOSED) -0.30 (OPEN) 



 Use fine grid record 1800.2 for energy threshold  1.0D-06
 Orbital guess generated from atomic densities. Full valence occupancy:    9

 Molecular orbital dump at record        2100.2

 Initial alpha occupancy:   9
 Initial beta  occupancy:   8
 Wave function symmetry:    1

 ITERATION    DDIFF          GRAD             ENERGY        2-EL.EN.            DIPOLE MOMENTS         DIIS   ORB.
    1      0.000D+00      0.000D+00       -78.40234384    155.200495   -0.11636   -0.25808    0.00000    0    start
    2      0.000D+00      0.157D-01       -78.50808933    147.233268   -0.05214   -0.13241    0.00000    1    diag,B
    3      0.172D-01      0.605D-02       -78.52230600    148.975473   -0.06692   -0.15140    0.00000    2    diag,B
    4      0.522D-02      0.715D-03       -78.52285912    148.865578   -0.06209   -0.14030    0.00000    3    diag,B
    5      0.179D-02      0.239D-03       -78.52294003    148.837844   -0.06070   -0.13618    0.00000    4    diag,B
    6      0.901D-03      0.637D-04       -78.52294620    148.829524   -0.05995   -0.13438    0.00000    5    diag,B
    7      0.281D-03      0.190D-04       -78.52294658    148.830094   -0.06001   -0.13456    0.00000    6    fixocc
    8      0.544D-04      0.736D-05       -78.52294666    148.830064   -0.06001   -0.13449    0.00000    7    diag,B
    9      0.322D-04      0.178D-05       -78.52294667    148.830090   -0.06001   -0.13452    0.00000    8    diag,B
   10      0.667D-05      0.529D-06       -78.52294667    148.830075   -0.06002   -0.13452    0.00000    0    orth

 Final alpha occupancy:   9
 Final beta  occupancy:   8

 !RKS STATE 1.1 Energy                -78.522946667735
 Nuclear energy                        36.86300145
 One-electron energy                 -177.74410543
 Two-electron energy                   74.41503749
 Density functional                   -12.05688017     XC-SOGGA=-12.05688017
 Virial quotient                       -1.00861852
 !RKS STATE 1.1 Dipole moment          -0.06001677    -0.13451639     0.00000000
 Dipole moment /Debye                  -0.15253742    -0.34188417     0.00000000

 Orbital energies:

         1.1          2.1          3.1          4.1          5.1          6.1          7.1          8.1          9.1         10.1
     -9.828360    -9.827249    -0.662168    -0.520320    -0.389445    -0.352666    -0.337272    -0.299917    -0.156752     0.060201

        11.1
      0.089659

 HOMO      9.1    -0.156752 =      -4.2654eV
 LUMO     10.1     0.060201 =       1.6381eV
 LUMO-HOMO         0.216953 =       5.9036eV


 **********************************************************************************************************************************
 DATASETS  * FILE   NREC   LENGTH (MB)   RECORD NAMES
              1      20       35.18       500      610      700      900      950      970     1000      129      960     1100   
                                          VAR    BASINP    GEOM    SYMINP    ZMAT    AOBASIS   BASIS     P2S    ABASIS      S 
                                         1400     1410     1200     1210     1080     1600     1650     1300     1700     1800   
                                           T        V       H0       H01     AOSYM     SMH    MOLCAS    ERIS     OPER     GRID   

              2       5        2.94       700     1000      520     1800     2100   
                                         GEOM     BASIS   MCVARS    GRID      RKS  

 PROGRAMS   *        TOTAL        KS       INT
 CPU TIMES  *         3.96      3.45      0.38
 REAL TIME  *         5.77 SEC
 DISK USED  *        48.39 MB      
 **********************************************************************************************************************************


 PROGRAM * Intrinsic Basis Bonding Analysis (IBBA)          Author: G. Knizia

 Molecular orbitals read from record     2100.2  Type=RKS/CANONICAL (state 1.1)
 Fock matrix read from record            2100.2  Type=RKS/TOTAL (state 1.1)
 Orbital energies read from record       2100.2  Type=RKS/CANONICAL (state 1.1)
 Density matrix read from record         2100.2  Type=RKS/CHARGE (state 1.1)

 Number of core orbitals:           2 (   2 )
 Number of closed-shell orbitals:   6 (   6 )
 Number of active  orbitals:        1 (   1 )

 Basis set MINAO-AUTO-PP generated.      Number of basis functions:   15 

 Polarized AO type:                A = (O Ot + (1-O)(1-Ot)) P12
 Orthogonalization method:         Symmetric (Loewdin)
 Localization functional:          L = sum[A,i] <i|n_A|i>^4 -> max

 Localization group 1:   8 orbitals, occupancy  2.000
 Iterative localization: IB/PM,    6 iter; Final gradient 0.36E-08

 Bond order analysis:       [THRPRINT= 0.020]

   CEN ATOM   CEN ATOM     WIBERG.BO      RENORM.BO
     1   C  -   2   C       1.154762       2.021688
     1   C  -   5   H       0.963360       0.982043
     1   C  -   4   H       0.963360       0.982043
     1   C  -   3   H       0.057469       0.639890

     2   C  -   1   C       1.154762       2.021688
     2   C  -   7   H       0.941158       0.987674
     2   C  -   6   H       0.941158       0.987674
     2   C  -   3   H       0.891185       0.998885

     3   H  -   2   C       0.891185       0.998885
     3   H  -   1   C       0.057469       0.639890

     4   H  -   1   C       0.963360       0.982043

     5   H  -   1   C       0.963360       0.982043

     6   H  -   2   C       0.941158       0.987674

     7   H  -   2   C       0.941158       0.987674


 Valency analysis:

   CEN ATOM   TOT.VALENCE
     1   C       3.166320
     2   C       3.930874
     3   H       0.957255
     4   H       0.979846
     5   H       0.979846
     6   H       0.973332
     7   H       0.973332
 Localization group 2:   1 orbitals, occupancy  1.000
 Iterative localization: IB/PM,    1 iter; Final gradient 0.00E+00

 Bond order analysis:       [THRPRINT= 0.020]

   CEN ATOM   CEN ATOM     WIBERG.BO      RENORM.BO
     1   C  -   3   H       0.097668       0.500000
     1   C  -   6   H       0.020782       0.500000
     1   C  -   7   H       0.020782       0.500000


     3   H  -   1   C       0.097668       0.500000



     6   H  -   1   C       0.020782       0.500000

     7   H  -   1   C       0.020782       0.500000


 Valency analysis:

   CEN ATOM   TOT.VALENCE
     1   C       0.150515
     2   C       0.011565
     3   H       0.100730
     4   H       0.000329
     5   H       0.000329
     6   H       0.022381
     7   H       0.022381

 Total charge composition:

   CEN ATOM         s          p       ELECTRONS ->P.CHARGE
     1   C       3.05162    3.25754      6.30916   -0.30916
     2   C       3.01139    3.42058      6.43197   -0.43197
     3   H       0.84645                 0.84645    0.15355
     4   H       0.85820                 0.85820    0.14180
     5   H       0.85820                 0.85820    0.14180
     6   H       0.84801                 0.84801    0.15199
     7   H       0.84801                 0.84801    0.15199

 Total charge composition, AO contributions:

   CEN ATOM SHL      SPHERICAL COMPONENTS
     1   C  1s       1.99278
     1   C  2s       1.05884
     1   C  2p       1.02833    1.06072    1.16849

     2   C  1s       1.99131
     2   C  2s       1.02007
     2   C  2p       1.16191    1.07958    1.17909

     3   H  1s       0.84645

     4   H  1s       0.85820

     5   H  1s       0.85820

     6   H  1s       0.84801

     7   H  1s       0.84801

 Active orbital charges:

   CEN ATOM         s          p       ELECTRONS ->SPIN.DEN
     1   C       0.00325    0.91477      0.91802    0.91802
     2   C       0.00003    0.00579      0.00582    0.00582
     3   H       0.05319                 0.05319    0.05319
     4   H       0.00016                 0.00016    0.00016
     5   H       0.00016                 0.00016    0.00016
     6   H       0.01132                 0.01132    0.01132
     7   H       0.01132                 0.01132    0.01132

 Active orbital charges, AO contributions:

   CEN ATOM SHL      SPHERICAL COMPONENTS
     1   C  1s       0.00000
     1   C  2s       0.00325
     1   C  2p       0.91065    0.00412    0.00000

     2   C  1s       0.00000
     2   C  2s       0.00003
     2   C  2p       0.00572    0.00007    0.00000

     3   H  1s       0.05319

     4   H  1s       0.00016

     5   H  1s       0.00016

     6   H  1s       0.01132

     7   H  1s       0.01132

 Summary of localized orbital composition:   [THRPRINT= 0.020]

   ORB  GRP  ORB.ENERGY      CENTERS/CHARGES
     1   1    -9.728284      C  1   2.000
     2   1    -9.715421      C  2   2.000
     3   1    -0.543494      C  2   1.007   C  1   0.989
     4   1    -0.456374      C  1   1.141   H  4   0.852
     5   1    -0.456374      C  1   1.141   H  5   0.852
     6   1    -0.442389      C  2   1.131   H  3   0.790   C  1   0.078
     7   1    -0.437532      C  2   1.141   H  7   0.831   C  1   0.021
     8   1    -0.437532      C  2   1.141   H  6   0.831   C  1   0.021
     9   2    -0.116999      C  1   0.918   H  3   0.053   (other: 0.029)

 Localized orbitals saved to record      2100.2  (orbital set 2)


 **********************************************************************************************************************************
 DATASETS  * FILE   NREC   LENGTH (MB)   RECORD NAMES
              1      20       35.18       500      610      700      900      950      970     1000      129      960     1100   
                                          VAR    BASINP    GEOM    SYMINP    ZMAT    AOBASIS   BASIS     P2S    ABASIS      S 
                                         1400     1410     1200     1210     1080     1600     1650     1300     1700     1800   
                                           T        V       H0       H01     AOSYM     SMH    MOLCAS    ERIS     OPER     GRID   

              2       5        2.96       700     1000      520     1800     2100   
                                         GEOM     BASIS   MCVARS    GRID      RKS  

 PROGRAMS   *        TOTAL      IBBA        KS       INT
 CPU TIMES  *         3.98      0.02      3.45      0.38
 REAL TIME  *         5.88 SEC
 DISK USED  *        48.39 MB      
 **********************************************************************************************************************************
 Molecular orbitals read from record     2100.2  Type=RKS/LOCAL(IBO)  
 Occupation numbers read from record     2100.2  Type=RKS/LOCAL(IBO)  
 Orbital energies read from record       2100.2  Type=RKS/LOCAL(IBO)  
 Redundancy group numbers read from rec  2100.2  Type=RKS/LOCAL(IBO)  

 IBBA/SVP energy=      0.000000000000

        KS-SCF  
    -78.52294667
 **********************************************************************************************************************************
 Molpro calculation terminated
