
 Primary working directories    : /tmp/sb13343
 Secondary working directories  : /tmp/sb13343
 Wavefunction directory         : /panfs/panasas01/chem/sb13343/wfu/
 Main file repository           : /tmp/sb13343/

 SHA1      : b4a5b34a9e711420743f49e6833241d17c61fb3c
 NAME      : 2099.9.b4a5b34
 ARCHNAME  : linux/x86_64_openmp
 FC        : /cm/shared/languages/GCC-6.1/bin/gfortran
 BLASLIB   : -lblas
 id        : simonbennie

 Nodes     nprocs
 node32-007    1

 Using customized tuning parameters: mindgm=1; mindgv=20; mindgc=4; mindgr=1; noblas=0; minvec=7
 default implementation of scratch files=df  

 memory,500,m
 geomtyp=xyz
 nosym
 noorient
 geometry={
 C         -0.00146        0.79548        0.00000
 C          0.02225       -0.69390        0.00000
 H         -0.99481       -1.12636        0.00000
 H         -0.09300        1.35197        0.92746
 H         -0.09300        1.35197       -0.92746
 H          0.52802       -1.09351        0.88764
 H          0.52802       -1.09351       -0.88764
 }
 basis={ default,svp }
 {uks,B3LYP5,direct;wf,17,1,1}
 {ibba,bonds=1}

 Variables initialized (895), CPU time= 0.00 sec
 Commands  initialized (725), CPU time= 0.01 sec, 591 directives.
 Default parameters read. Elapsed time= 0.16 sec

 Checking input...
 Passed
1


                                         ***  PROGRAM SYSTEM MOLPRO  ***
                                       Copyright, TTI GmbH Stuttgart, 2015
                                    Version 2099.9 linked May 26 2017 16:03:21


 **********************************************************************************************************************************
 LABEL *                                                                                 
  64 bit serial version                                                                  DATE: 08-Jun-17          TIME: 04:38:37  
 **********************************************************************************************************************************

 SHA1:             b4a5b34a9e711420743f49e6833241d17c61fb3c
 **********************************************************************************************************************************
 SETTING GEOMTYP        =    XYZ

 Variable memory set to  500000000 words,  buffer space 

 ZSYMEL=NOSYM

 SETTING BASIS          =    SVP


 Recomputing integrals since basis changed


 Using spherical harmonics

 Library entry C      S def2-SVP             selected for orbital group  1
 Library entry C      P def2-SVP             selected for orbital group  1
 Library entry C      D def2-SVP             selected for orbital group  1
 Library entry H      S def2-SVP             selected for orbital group  2
 Library entry H      P def2-SVP             selected for orbital group  2


 PROGRAM * SEWARD (Integral evaluation for generally contracted gaussian basis sets)     Author: Roland Lindh, 1990

 Geometry written to block  1 of record 700


 Point group  C1  



 ATOMIC COORDINATES

 NR  ATOM    CHARGE       X              Y              Z

   1  C       6.00   -0.002759000    1.503239338    0.000000000
   2  C       6.00    0.042046406   -1.311280958    0.000000000
   3  H       1.00   -1.879918446   -2.128511918    0.000000000
   4  H       1.00   -0.175744530    2.554853029    1.752645391
   5  H       1.00   -0.175744530    2.554853029   -1.752645391
   6  H       1.00    0.997813188   -2.066434414    1.677396497
   7  H       1.00    0.997813188   -2.066434414   -1.677396497

 Bond lengths in Bohr (Angstrom)

 1-2  2.814876910  1-4  2.051238947  1-5  2.051238947  2-3  2.088495950  2-6  2.073018546
     ( 1.489568712)     ( 1.085468905)     ( 1.085468905)     ( 1.105184462)     ( 1.096994173)

 2-7  2.073018546
     ( 1.096994173)

 Bond angles

  1-2-3  112.12345176   1-2-6  111.81246303   1-2-7  111.81246303   2-1-4  120.92728687

  2-1-5  120.92728687   3-2-6  106.36442052   3-2-7  106.36442052   4-1-5  117.39421083

  6-2-7  108.02720793

 NUCLEAR CHARGE:                   17
 NUMBER OF PRIMITIVE AOS:          85
 NUMBER OF SYMMETRY AOS:           83
 NUMBER OF CONTRACTIONS:           53   (  53A   )
 NUMBER OF CORE ORBITALS:           2   (   2A   )
 NUMBER OF VALENCE ORBITALS:       13   (  13A   )


 NUCLEAR REPULSION ENERGY   36.86300145


 Eigenvalues of metric

         1 0.525E-02 0.232E-01 0.271E-01 0.397E-01 0.503E-01 0.635E-01 0.102E+00 0.110E+00


 Contracted 2-electron integrals neglected if value below      1.0D-11
 AO integral compression algorithm  1   Integral accuracy      1.0D-11

     5.243 MB (compressed) written to integral file ( 52.3%)


 NUMBER OF SORTED TWO-ELECTRON INTEGRALS:    1024596.     BUFFER LENGTH:  32768
 NUMBER OF SEGMENTS:   1  SEGMENT LENGTH:    1024596      RECORD LENGTH: 524288

 Memory used in sort:       1.58 MW

 SORT1 READ     1206537. AND WROTE      940164. INTEGRALS IN      3 RECORDS. CPU TIME:     0.02 SEC, REAL TIME:     0.03 SEC
 SORT2 READ      940164. AND WROTE     1024596. INTEGRALS IN     20 RECORDS. CPU TIME:     0.05 SEC, REAL TIME:     0.06 SEC

 FILE SIZES:   FILE 1:    35.4 MBYTE,  FILE 4:    12.6 MBYTE,   TOTAL:     48.0 MBYTE

 OPERATOR DM      FOR CENTER  0  COORDINATES:    0.000000    0.000000    0.000000


 **********************************************************************************************************************************
 DATASETS  * FILE   NREC   LENGTH (MB)   RECORD NAMES
              1      19       34.42       500      610      700      900      950      970     1000      129      960     1100   
                                          VAR    BASINP    GEOM    SYMINP    ZMAT    AOBASIS   BASIS     P2S    ABASIS      S 
                                         1400     1410     1200     1210     1080     1600     1650     1300     1700   
                                           T        V       H0       H01     AOSYM     SMH    MOLCAS    ERIS     OPER   

 PROGRAMS   *        TOTAL       INT
 CPU TIMES  *         0.62      0.47
 REAL TIME  *         1.16 SEC
 DISK USED  *        48.39 MB      
 **********************************************************************************************************************************

 Density functional group B3LYP5=B88+DIRAC+LYP+VWN5
 Functional: B88(Automatically generated (new) B88)                            Gradient terms: 1
 Functional: DIRAC(Automatically generated (new) DIRAC)                        Gradient terms: 0
 Functional: LYP(Automatically generated (new) LYP)                            Gradient terms: 1
 Functional: VWN5(Automatically generated (new) VWN5)                          Gradient terms: 0
 Use grid at  1800.2


 Exact exchange will be calculated, factor:  0.2000

 Functional: B88                       Factor:  0.7200
 Functional: DIRAC                     Factor:  0.0800
 Functional: LYP                       Factor:  0.8100
 Functional: VWN5                      Factor:  0.1900

 Generated new metagrid on record  1800.2 with target accuracy 1.0D-06 and 23794 points in CPU time    0.5
 Computed new grid on record 1800.1 in CPU time    0.6
   46013 words reserved for DFT integration

 PROGRAM * UKS-SCF (Unrestricted Kohn-Sham)     Authors: W. Meyer, H.-J. Werner, P.J. Knowles, 1993

 NUMBER OF ELECTRONS:       9+    8-    SPACE SYMMETRY=1    SPIN SYMMETRY: Doublet 
 CONVERGENCE THRESHOLDS:    1.00E-05 (Density)    1.00E-06 (Energy)
 MAX. NUMBER OF ITERATIONS:       60
 INTERPOLATION TYPE:            DIIS
 INTERPOLATION STEPS:              2 (START)      1 (STEP)
 LEVEL SHIFTS:                 -0.20 (ALPHA)  -0.20 (BETA) 



 Use fine grid record 1800.2 for energy threshold  1.0D-06
 Orbital guess generated from atomic densities. Full valence occupancy:    9

 Molecular orbital dump at record        2200.2

 Initial alpha occupation   9
 Initial beta  occupation   8

 ITERATION    DDIFF          GRAD             ENERGY        2-EL.EN.            DIPOLE MOMENTS         DIIS
    1      0.000D+00      0.000D+00       -78.95422488    149.202685   -0.10934   -0.26107    0.00000    0
    2      0.140D-01      0.717D-02       -79.02973410    142.857691   -0.05866   -0.15544    0.00000    1
    3      0.397D-02      0.260D-02       -79.03840077    144.168540   -0.06273   -0.14326    0.00000    2
    4      0.143D-02      0.393D-03       -79.03902384    144.114095   -0.05856   -0.12530    0.00000    3
    5      0.708D-03      0.198D-03       -79.03917020    144.095402   -0.05541   -0.11209    0.00000    4
    6      0.238D-03      0.671D-04       -79.03919761    144.097514   -0.05398   -0.10687    0.00000    5
    7      0.594D-04      0.277D-04       -79.03920046    144.095900   -0.05343   -0.10492    0.00000    6
    8      0.204D-04      0.580D-05       -79.03920060    144.096317   -0.05330   -0.10482    0.00000    7
    9      0.369D-05      0.968D-06       -79.03920060    144.096226   -0.05330   -0.10483    0.00000    6
   10      0.124D-05      0.349D-06       -79.03920060    144.096301   -0.05329   -0.10485    0.00000    6

 Final alpha occupancy:   9
 Final beta  occupancy:   8

 !UKS STATE 1.1 Energy                -79.039200603648
 Nuclear energy                        36.86300145
 One-electron energy                 -177.76672493
 Two-electron energy                   72.04815074
 Density functional                   -10.18362787     B88=-12.08660846 DIRAC=-10.84289947 LYP= -0.51593216 VWN5= -1.03122507
 Virial quotient                       -1.01253209
 !UKS STATE 1.1 Dipole moment          -0.05329088    -0.10484975     0.00000000
 Dipole moment /Debye                  -0.13544304    -0.26648403     0.00000000

 Orbital energies for positive spin:

         1.1          2.1          3.1          4.1          5.1          6.1          7.1          8.1          9.1         10.1
    -10.185777   -10.181336    -0.744318    -0.597674    -0.445817    -0.409965    -0.389521    -0.353609    -0.200398     0.075511

        11.1
      0.105859

 Orbital energies for negative spin:

         1.1          2.1          3.1          4.1          5.1          6.1          7.1          8.1          9.1         10.1
    -10.182303   -10.171265    -0.727718    -0.573773    -0.439168    -0.394843    -0.381321    -0.348944    -0.041702     0.077733

        11.1
      0.115723

 HOMO      9.1    -0.200398 =      -5.4531eV
 LUMO     -9.1    -0.041702 =      -1.1348eV
 LUMO-HOMO         0.158697 =       4.3184eV

 EXPECTATION VALUE OF S**2:             0.75384967

 Occupation number threshold for canonical orbitals:  1.999000 (occupied),  0.001000 (virtual)

 Number of pseudo-canonical orbitals per symmetry:    7
 Number of active natural orbitals per symmetry:      3

 Natural orbitals saved to record    2200.2 (Orbital set 3)

 Orbital spaces for UNO-CAS (Min. occupation: 0.020  Max. occupation: 1.980):

 Closed:        8
 Active:        1


 **********************************************************************************************************************************
 DATASETS  * FILE   NREC   LENGTH (MB)   RECORD NAMES
              1      20       35.18       500      610      700      900      950      970     1000      129      960     1100   
                                          VAR    BASINP    GEOM    SYMINP    ZMAT    AOBASIS   BASIS     P2S    ABASIS      S 
                                         1400     1410     1200     1210     1080     1600     1650     1300     1700     1800   
                                           T        V       H0       H01     AOSYM     SMH    MOLCAS    ERIS     OPER     GRID   

              2       5        2.98       700     1000      520     1800     2200   
                                         GEOM     BASIS   MCVARS    GRID      UKS  

 PROGRAMS   *        TOTAL       UKS       INT
 CPU TIMES  *         4.50      3.87      0.47
 REAL TIME  *         5.11 SEC
 DISK USED  *        48.39 MB      
 **********************************************************************************************************************************


 PROGRAM * Intrinsic Basis Bonding Analysis (IBBA)          Author: G. Knizia

 Molecular orbitals read from record     2200.2  Type=UKS/ALPHA (state 1.1)
 Fock matrix read from record            2200.2  Type=UKS/TOTAL (state 1.1)
 Orbital energies read from record       2200.2  Type=UKS/ALPHA (state 1.1)
 Density matrix read from record         2200.2  Type=UKS/CHARGE (state 1.1)

 Number of core orbitals:           2 (   2 )
 Number of closed-shell orbitals:   6 (   6 )
 Number of active  orbitals:        1 (   1 )

 Basis set MINAO-AUTO-PP generated.      Number of basis functions:   15 

 Polarized AO type:                A = (O Ot + (1-O)(1-Ot)) P12
 Orthogonalization method:         Symmetric (Loewdin)
 Localization functional:          L = sum[A,i] <i|n_A|i>^4 -> max

 Localization group 1:   8 orbitals, occupancy  2.000
 Iterative localization: IB/PM,    6 iter; Final gradient 0.37E-08

 Bond order analysis:       [THRPRINT= 0.020]

   CEN ATOM   CEN ATOM     WIBERG.BO      RENORM.BO
     1   C  -   2   C       1.244450       2.019680
     1   C  -   5   H       0.960103       0.983726
     1   C  -   4   H       0.960103       0.983726
     1   C  -   3   H       0.098400       0.621618
     1   C  -   6   H       0.023004       0.130350
     1   C  -   7   H       0.023004       0.130350

     2   C  -   1   C       1.244450       2.019680
     2   C  -   7   H       0.935115       0.988959
     2   C  -   6   H       0.935115       0.988959
     2   C  -   3   H       0.840425       0.998613

     3   H  -   2   C       0.840425       0.998613
     3   H  -   1   C       0.098400       0.621618

     4   H  -   1   C       0.960103       0.983726

     5   H  -   1   C       0.960103       0.983726

     6   H  -   2   C       0.935115       0.988959
     6   H  -   1   C       0.023004       0.130350

     7   H  -   2   C       0.935115       0.988959
     7   H  -   1   C       0.023004       0.130350


 Valency analysis:

   CEN ATOM   TOT.VALENCE
     1   C       3.309065
     2   C       3.956945
     3   H       0.951854
     4   H       0.974428
     5   H       0.974428
     6   H       0.976505
     7   H       0.976505
 Localization group 2:   1 orbitals, occupancy  1.000
 Iterative localization: IB/PM,    1 iter; Final gradient 0.00E+00

 Bond order analysis:       [THRPRINT= 0.020]

   CEN ATOM   CEN ATOM     WIBERG.BO      RENORM.BO
     1   C  -   3   H       0.126664       0.500000
     1   C  -   2   C       0.034223       0.500000
     1   C  -   6   H       0.027575       0.500000
     1   C  -   7   H       0.027575       0.500000

     2   C  -   1   C       0.034223       0.500000

     3   H  -   1   C       0.126664       0.500000



     6   H  -   1   C       0.027575       0.500000

     7   H  -   1   C       0.027575       0.500000


 Valency analysis:

   CEN ATOM   TOT.VALENCE
     1   C       0.217249
     2   C       0.038304
     3   H       0.134140
     4   H       0.000692
     5   H       0.000692
     6   H       0.030982
     7   H       0.030982

 Total charge composition:

   CEN ATOM         s          p       ELECTRONS ->P.CHARGE
     1   C       3.09125    3.33180      6.42305   -0.42305
     2   C       3.00078    3.31751      6.31830   -0.31830
     3   H       0.85287                 0.85287    0.14713
     4   H       0.84043                 0.84043    0.15957
     5   H       0.84043                 0.84043    0.15957
     6   H       0.86246                 0.86246    0.13754
     7   H       0.86246                 0.86246    0.13754

 Total charge composition, AO contributions:

   CEN ATOM SHL      SPHERICAL COMPONENTS
     1   C  1s       1.99226
     1   C  2s       1.09899
     1   C  2p       1.07597    1.07817    1.17766

     2   C  1s       1.99086
     2   C  2s       1.00992
     2   C  2p       1.11402    1.04648    1.15701

     3   H  1s       0.85287

     4   H  1s       0.84043

     5   H  1s       0.84043

     6   H  1s       0.86246

     7   H  1s       0.86246

 Active orbital charges:

   CEN ATOM         s          p       ELECTRONS ->SPIN.DEN
     1   C       0.00231    0.87369      0.87600    0.87600
     2   C       0.00005    0.01948      0.01953    0.01953
     3   H       0.07230                 0.07230    0.07230
     4   H       0.00035                 0.00035    0.00035
     5   H       0.00035                 0.00035    0.00035
     6   H       0.01574                 0.01574    0.01574
     7   H       0.01574                 0.01574    0.01574

 Active orbital charges, AO contributions:

   CEN ATOM SHL      SPHERICAL COMPONENTS
     1   C  1s       0.00000
     1   C  2s       0.00231
     1   C  2p       0.86993    0.00376    0.00000

     2   C  1s       0.00000
     2   C  2s       0.00005
     2   C  2p       0.01931    0.00017    0.00000

     3   H  1s       0.07230

     4   H  1s       0.00035

     5   H  1s       0.00035

     6   H  1s       0.01574

     7   H  1s       0.01574

 Summary of localized orbital composition:   [THRPRINT= 0.020]

   ORB  GRP  ORB.ENERGY      CENTERS/CHARGES
     1   1   -10.071082      C  1   2.000
     2   1   -10.066789      C  2   2.000
     3   1    -0.599889      C  1   1.020   C  2   0.978
     4   1    -0.518485      C  1   1.160   H  4   0.835
     5   1    -0.518485      C  1   1.160   H  5   0.835
     6   1    -0.496417      C  2   1.081   H  3   0.776   C  1   0.140
     7   1    -0.494079      C  2   1.117   H  6   0.842   C  1   0.034
     8   1    -0.494079      C  2   1.117   H  7   0.842   C  1   0.034
     9   2    -0.120163      C  1   0.876   H  3   0.072   (other: 0.052)

 Localized orbitals saved to record      2200.2  (orbital set 4)


 **********************************************************************************************************************************
 DATASETS  * FILE   NREC   LENGTH (MB)   RECORD NAMES
              1      20       35.18       500      610      700      900      950      970     1000      129      960     1100   
                                          VAR    BASINP    GEOM    SYMINP    ZMAT    AOBASIS   BASIS     P2S    ABASIS      S 
                                         1400     1410     1200     1210     1080     1600     1650     1300     1700     1800   
                                           T        V       H0       H01     AOSYM     SMH    MOLCAS    ERIS     OPER     GRID   

              2       5        3.00       700     1000      520     1800     2200   
                                         GEOM     BASIS   MCVARS    GRID      UKS  

 PROGRAMS   *        TOTAL      IBBA       UKS       INT
 CPU TIMES  *         4.52      0.01      3.87      0.47
 REAL TIME  *         5.18 SEC
 DISK USED  *        48.39 MB      
 **********************************************************************************************************************************
 Molecular orbitals read from record     2200.2  Type=UKS/LOCAL(IBO)  
 Occupation numbers read from record     2200.2  Type=UKS/LOCAL(IBO)  
 Orbital energies read from record       2200.2  Type=UKS/LOCAL(IBO)  
 Redundancy group numbers read from rec  2200.2  Type=UKS/BETA (state 1.1)

 IBBA/SVP energy=      0.000000000000

        UKS-SCF 
    -79.03920060
 **********************************************************************************************************************************
 Molpro calculation terminated
