
 Primary working directories    : /tmp/sb13343
 Secondary working directories  : /tmp/sb13343
 Wavefunction directory         : /panfs/panasas01/chem/sb13343/wfu/
 Main file repository           : /tmp/sb13343/

 SHA1      : b4a5b34a9e711420743f49e6833241d17c61fb3c
 NAME      : 2099.9.b4a5b34
 ARCHNAME  : linux/x86_64_openmp
 FC        : /cm/shared/languages/GCC-6.1/bin/gfortran
 BLASLIB   : -lblas
 id        : simonbennie

 Nodes     nprocs
 node35-048    1

 Using customized tuning parameters: mindgm=1; mindgv=20; mindgc=4; mindgr=1; noblas=0; minvec=7
 default implementation of scratch files=df  

 memory,500,m
 geomtyp=xyz
 nosym
 noorient
 geometry={
 C         -0.00146        0.79548        0.00000
 C          0.02225       -0.69390        0.00000
 H         -0.99481       -1.12636        0.00000
 H         -0.09300        1.35197        0.92746
 H         -0.09300        1.35197       -0.92746
 H          0.52802       -1.09351        0.88764
 H          0.52802       -1.09351       -0.88764
 }
 basis={ default,sto-3g }
 {uks,BH-LYP,direct;wf,17,1,1}
 {ibba,bonds=1}

 Variables initialized (895), CPU time= 0.00 sec
 Commands  initialized (725), CPU time= 0.02 sec, 591 directives.
 Default parameters read. Elapsed time= 0.12 sec

 Checking input...
 Passed
1


                                         ***  PROGRAM SYSTEM MOLPRO  ***
                                       Copyright, TTI GmbH Stuttgart, 2015
                                    Version 2099.9 linked May 26 2017 16:03:21


 **********************************************************************************************************************************
 LABEL *                                                                                 
  64 bit serial version                                                                  DATE: 08-Jun-17          TIME: 04:37:33  
 **********************************************************************************************************************************

 SHA1:             b4a5b34a9e711420743f49e6833241d17c61fb3c
 **********************************************************************************************************************************
 SETTING GEOMTYP        =    XYZ

 Variable memory set to  500000000 words,  buffer space 

 ZSYMEL=NOSYM

 SETTING BASIS          =    STO-3G


 Recomputing integrals since basis changed


 Using spherical harmonics

 Library entry C      S STO-3G               selected for orbital group  1
 Library entry C      P STO-3G               selected for orbital group  1
 Library entry H      S STO-3G               selected for orbital group  2


 PROGRAM * SEWARD (Integral evaluation for generally contracted gaussian basis sets)     Author: Roland Lindh, 1990

 Geometry written to block  1 of record 700


 Point group  C1  



 ATOMIC COORDINATES

 NR  ATOM    CHARGE       X              Y              Z

   1  C       6.00   -0.002759000    1.503239338    0.000000000
   2  C       6.00    0.042046406   -1.311280958    0.000000000
   3  H       1.00   -1.879918446   -2.128511918    0.000000000
   4  H       1.00   -0.175744530    2.554853029    1.752645391
   5  H       1.00   -0.175744530    2.554853029   -1.752645391
   6  H       1.00    0.997813188   -2.066434414    1.677396497
   7  H       1.00    0.997813188   -2.066434414   -1.677396497

 Bond lengths in Bohr (Angstrom)

 1-2  2.814876910  1-4  2.051238947  1-5  2.051238947  2-3  2.088495950  2-6  2.073018546
     ( 1.489568712)     ( 1.085468905)     ( 1.085468905)     ( 1.105184462)     ( 1.096994173)

 2-7  2.073018546
     ( 1.096994173)

 Bond angles

  1-2-3  112.12345176   1-2-6  111.81246303   1-2-7  111.81246303   2-1-4  120.92728687

  2-1-5  120.92728687   3-2-6  106.36442052   3-2-7  106.36442052   4-1-5  117.39421083

  6-2-7  108.02720793

 NUCLEAR CHARGE:                   17
 NUMBER OF PRIMITIVE AOS:          45
 NUMBER OF SYMMETRY AOS:           45
 NUMBER OF CONTRACTIONS:           15   (  15A   )
 NUMBER OF CORE ORBITALS:           2   (   2A   )
 NUMBER OF VALENCE ORBITALS:       13   (  13A   )


 NUCLEAR REPULSION ENERGY   36.86300145


 Eigenvalues of metric

         1 0.218E+00 0.272E+00 0.329E+00 0.377E+00 0.382E+00 0.392E+00 0.935E+00 0.955E+00


 Contracted 2-electron integrals neglected if value below      1.0D-11
 AO integral compression algorithm  1   Integral accuracy      1.0D-11

     0.262 MB (compressed) written to integral file (100.0%)


 NUMBER OF SORTED TWO-ELECTRON INTEGRALS:       7260.     BUFFER LENGTH:  32768
 NUMBER OF SEGMENTS:   1  SEGMENT LENGTH:       7260      RECORD LENGTH: 524288

 Memory used in sort:       0.56 MW

 SORT1 READ        9024. AND WROTE        6273. INTEGRALS IN      1 RECORDS. CPU TIME:     0.00 SEC, REAL TIME:     0.00 SEC
 SORT2 READ        6273. AND WROTE        7260. INTEGRALS IN      1 RECORDS. CPU TIME:     0.00 SEC, REAL TIME:     0.01 SEC

 FILE SIZES:   FILE 1:    30.3 MBYTE,  FILE 4:     4.2 MBYTE,   TOTAL:     34.5 MBYTE

 OPERATOR DM      FOR CENTER  0  COORDINATES:    0.000000    0.000000    0.000000


 **********************************************************************************************************************************
 DATASETS  * FILE   NREC   LENGTH (MB)   RECORD NAMES
              1      19       30.09       500      610      700      900      950      970     1000      129      960     1100   
                                          VAR    BASINP    GEOM    SYMINP    ZMAT    AOBASIS   BASIS     P2S    ABASIS      S 
                                         1400     1410     1200     1210     1080     1600     1650     1300     1700   
                                           T        V       H0       H01     AOSYM     SMH    MOLCAS    ERIS     OPER   

 PROGRAMS   *        TOTAL       INT
 CPU TIMES  *         0.32      0.19
 REAL TIME  *         1.01 SEC
 DISK USED  *        34.91 MB      
 **********************************************************************************************************************************

 Density functional group BH-LYP=B88+LYP
 Functional: B88(Automatically generated (new) B88)                            Gradient terms: 1
 Functional: LYP(Automatically generated (new) LYP)                            Gradient terms: 1
 Use grid at  1800.2


 Exact exchange will be calculated, factor:  0.5000

 Functional: B88                       Factor:  0.5000
 Functional: LYP                       Factor:  1.0000

 Generated new metagrid on record  1800.2 with target accuracy 1.0D-06 and 23794 points in CPU time    0.5
 Computed new grid on record 1800.1 in CPU time    0.6
   15985 words reserved for DFT integration

 PROGRAM * UKS-SCF (Unrestricted Kohn-Sham)     Authors: W. Meyer, H.-J. Werner, P.J. Knowles, 1993

 NUMBER OF ELECTRONS:       9+    8-    SPACE SYMMETRY=1    SPIN SYMMETRY: Doublet 
 CONVERGENCE THRESHOLDS:    1.00E-05 (Density)    1.00E-06 (Energy)
 MAX. NUMBER OF ITERATIONS:       60
 INTERPOLATION TYPE:            DIIS
 INTERPOLATION STEPS:              2 (START)      1 (STEP)
 LEVEL SHIFTS:                 -0.20 (ALPHA)  -0.20 (BETA) 



 Use fine grid record 1800.2 for energy threshold  1.0D-06
 Orbital guess generated from atomic densities. Full valence occupancy:    9

 Molecular orbital dump at record        2200.2

 Initial alpha occupation   9
 Initial beta  occupation   8

 ITERATION    DDIFF          GRAD             ENERGY        2-EL.EN.            DIPOLE MOMENTS         DIIS
    1      0.000D+00      0.000D+00       -78.09367381    140.678162   -0.10935   -0.21996    0.00000    0
    2      0.447D-01      0.186D-01       -78.14895412    137.716985   -0.04939   -0.11186    0.00000    1
    3      0.366D-02      0.330D-02       -78.15076816    137.602235   -0.03884   -0.07776    0.00000    2
    4      0.233D-02      0.147D-02       -78.15144145    137.582582   -0.03444   -0.06049    0.00000    3
    5      0.111D-02      0.569D-03       -78.15155646    137.584845   -0.03282   -0.05422    0.00000    4
    6      0.251D-03      0.129D-03       -78.15156202    137.584086   -0.03269   -0.05443    0.00000    5
    7      0.277D-04      0.274D-04       -78.15156231    137.584444   -0.03267   -0.05451    0.00000    6
    8      0.127D-04      0.863D-05       -78.15156233    137.584372   -0.03267   -0.05451    0.00000    6
    9      0.189D-05      0.116D-05       -78.15156233    137.584412   -0.03268   -0.05451    0.00000    6
   10      0.478D-06      0.321D-06       -78.15156233    137.584407   -0.03268   -0.05451    0.00000    5

 Final alpha occupancy:   9
 Final beta  occupancy:   8

 !UKS STATE 1.1 Energy                -78.151562333156
 Nuclear energy                        36.86300145
 One-electron energy                 -177.21655415
 Two-electron energy                   68.79220327
 Density functional                    -6.59021290     B88=-12.15114851 LYP= -0.51463865
 Virial quotient                       -1.01281415
 !UKS STATE 1.1 Dipole moment          -0.03267622    -0.05451477     0.00000000
 Dipole moment /Debye                  -0.08304924    -0.13855365     0.00000000

 Orbital energies for positive spin:

         1.1          2.1          3.1          4.1          5.1          6.1          7.1          8.1          9.1         10.1
    -10.410930   -10.373439    -0.823247    -0.664850    -0.483538    -0.446820    -0.411343    -0.381716    -0.208502     0.481455

        11.1
      0.486747

 Orbital energies for negative spin:

         1.1          2.1          3.1          4.1          5.1          6.1          7.1          8.1          9.1         10.1
    -10.412715   -10.354651    -0.799039    -0.627319    -0.476259    -0.427453    -0.401134    -0.377106     0.151558     0.485226

        11.1
      0.527751

 HOMO      9.1    -0.208502 =      -5.6736eV
 LUMO     -9.1     0.151558 =       4.1241eV
 LUMO-HOMO         0.360060 =       9.7977eV

 EXPECTATION VALUE OF S**2:             0.75597682

 Occupation number threshold for canonical orbitals:  1.999000 (occupied),  0.001000 (virtual)

 Number of pseudo-canonical orbitals per symmetry:    7
 Number of active natural orbitals per symmetry:      3

 Natural orbitals saved to record    2200.2 (Orbital set 3)

 Orbital spaces for UNO-CAS (Min. occupation: 0.020  Max. occupation: 1.980):

 Closed:        8
 Active:        1


 **********************************************************************************************************************************
 DATASETS  * FILE   NREC   LENGTH (MB)   RECORD NAMES
              1      20       30.85       500      610      700      900      950      970     1000      129      960     1100   
                                          VAR    BASINP    GEOM    SYMINP    ZMAT    AOBASIS   BASIS     P2S    ABASIS      S 
                                         1400     1410     1200     1210     1080     1600     1650     1300     1700     1800   
                                           T        V       H0       H01     AOSYM     SMH    MOLCAS    ERIS     OPER     GRID   

              2       5        2.86       700     1000      520     1800     2200   
                                         GEOM     BASIS   MCVARS    GRID      UKS  

 PROGRAMS   *        TOTAL       UKS       INT
 CPU TIMES  *         1.71      1.39      0.19
 REAL TIME  *         2.88 SEC
 DISK USED  *        34.91 MB      
 **********************************************************************************************************************************


 PROGRAM * Intrinsic Basis Bonding Analysis (IBBA)          Author: G. Knizia

 Molecular orbitals read from record     2200.2  Type=UKS/ALPHA (state 1.1)
 Fock matrix read from record            2200.2  Type=UKS/TOTAL (state 1.1)
 Orbital energies read from record       2200.2  Type=UKS/ALPHA (state 1.1)
 Density matrix read from record         2200.2  Type=UKS/CHARGE (state 1.1)

 Number of core orbitals:           2 (   2 )
 Number of closed-shell orbitals:   6 (   6 )
 Number of active  orbitals:        1 (   1 )

 Basis set MINAO-AUTO-PP generated.      Number of basis functions:   15 

 Polarized AO type:                A = (O Ot + (1-O)(1-Ot)) P12
 Orthogonalization method:         Symmetric (Loewdin)
 Localization functional:          L = sum[A,i] <i|n_A|i>^4 -> max

 Localization group 1:   8 orbitals, occupancy  2.000
 Iterative localization: IB/PM,    6 iter; Final gradient 0.45E-08

 Bond order analysis:       [THRPRINT= 0.020]

   CEN ATOM   CEN ATOM     WIBERG.BO      RENORM.BO
     1   C  -   2   C       1.240172       2.016253
     1   C  -   5   H       0.963499       0.986591
     1   C  -   4   H       0.963499       0.986591
     1   C  -   3   H       0.100638       0.622883
     1   C  -   6   H       0.023115       0.127242
     1   C  -   7   H       0.023115       0.127242

     2   C  -   1   C       1.240172       2.016253
     2   C  -   7   H       0.937658       0.990996
     2   C  -   6   H       0.937658       0.990996
     2   C  -   3   H       0.839232       0.998884

     3   H  -   2   C       0.839232       0.998884
     3   H  -   1   C       0.100638       0.622883

     4   H  -   1   C       0.963499       0.986591

     5   H  -   1   C       0.963499       0.986591

     6   H  -   2   C       0.937658       0.990996
     6   H  -   1   C       0.023115       0.127242

     7   H  -   2   C       0.937658       0.990996
     7   H  -   1   C       0.023115       0.127242


 Valency analysis:

   CEN ATOM   TOT.VALENCE
     1   C       3.314039
     2   C       3.956220
     3   H       0.955050
     4   H       0.975344
     5   H       0.975344
     6   H       0.978071
     7   H       0.978071
 Localization group 2:   1 orbitals, occupancy  1.000
 Iterative localization: IB/PM,    1 iter; Final gradient 0.00E+00

 Bond order analysis:       [THRPRINT= 0.020]

   CEN ATOM   CEN ATOM     WIBERG.BO      RENORM.BO
     1   C  -   3   H       0.123181       0.500000
     1   C  -   2   C       0.050213       0.500000
     1   C  -   6   H       0.027294       0.500000
     1   C  -   7   H       0.027294       0.500000

     2   C  -   1   C       0.050213       0.500000

     3   H  -   1   C       0.123181       0.500000



     6   H  -   1   C       0.027294       0.500000

     7   H  -   1   C       0.027294       0.500000


 Valency analysis:

   CEN ATOM   TOT.VALENCE
     1   C       0.229190
     2   C       0.056177
     3   H       0.131847
     4   H       0.000696
     5   H       0.000696
     6   H       0.030951
     7   H       0.030951

 Total charge composition:

   CEN ATOM         s          p       ELECTRONS ->P.CHARGE
     1   C       3.09183    3.32242      6.41424   -0.41424
     2   C       2.97756    3.32732      6.30488   -0.30488
     3   H       0.85895                 0.85895    0.14105
     4   H       0.84333                 0.84333    0.15667
     5   H       0.84333                 0.84333    0.15667
     6   H       0.86764                 0.86764    0.13236
     7   H       0.86764                 0.86764    0.13236

 Total charge composition, AO contributions:

   CEN ATOM SHL      SPHERICAL COMPONENTS
     1   C  1s       1.99251
     1   C  2s       1.09932
     1   C  2p       1.07005    1.07736    1.17500

     2   C  1s       1.99125
     2   C  2s       0.98631
     2   C  2p       1.12079    1.04481    1.16172

     3   H  1s       0.85895

     4   H  1s       0.84333

     5   H  1s       0.84333

     6   H  1s       0.86764

     7   H  1s       0.86764

 Active orbital charges:

   CEN ATOM         s          p       ELECTRONS ->SPIN.DEN
     1   C       0.00221    0.86576      0.86797    0.86797
     2   C       0.00005    0.02887      0.02893    0.02893
     3   H       0.07096                 0.07096    0.07096
     4   H       0.00035                 0.00035    0.00035
     5   H       0.00035                 0.00035    0.00035
     6   H       0.01572                 0.01572    0.01572
     7   H       0.01572                 0.01572    0.01572

 Active orbital charges, AO contributions:

   CEN ATOM SHL      SPHERICAL COMPONENTS
     1   C  1s       0.00000
     1   C  2s       0.00221
     1   C  2p       0.86229    0.00348    0.00000

     2   C  1s       0.00000
     2   C  2s       0.00005
     2   C  2p       0.02854    0.00033    0.00000

     3   H  1s       0.07096

     4   H  1s       0.00035

     5   H  1s       0.00035

     6   H  1s       0.01572

     7   H  1s       0.01572

 Summary of localized orbital composition:   [THRPRINT= 0.020]

   ORB  GRP  ORB.ENERGY      CENTERS/CHARGES
     1   1   -10.294122      C  2   2.000
     2   1   -10.251351      C  1   2.000
     3   1    -0.634497      C  1   1.024   C  2   0.973
     4   1    -0.562947      C  1   1.157   H  4   0.838
     5   1    -0.562947      C  1   1.157   H  5   0.838
     6   1    -0.539889      C  2   1.114   H  7   0.847   C  1   0.033
     7   1    -0.539889      C  2   1.114   H  6   0.847   C  1   0.033
     8   1    -0.539095      C  2   1.071   H  3   0.782   C  1   0.142
     9   2    -0.034704      C  1   0.868   H  3   0.071   C  2   0.029   (other: 0.032)

 Localized orbitals saved to record      2200.2  (orbital set 4)


 **********************************************************************************************************************************
 DATASETS  * FILE   NREC   LENGTH (MB)   RECORD NAMES
              1      20       30.85       500      610      700      900      950      970     1000      129      960     1100   
                                          VAR    BASINP    GEOM    SYMINP    ZMAT    AOBASIS   BASIS     P2S    ABASIS      S 
                                         1400     1410     1200     1210     1080     1600     1650     1300     1700     1800   
                                           T        V       H0       H01     AOSYM     SMH    MOLCAS    ERIS     OPER     GRID   

              2       5        2.87       700     1000      520     1800     2200   
                                         GEOM     BASIS   MCVARS    GRID      UKS  

 PROGRAMS   *        TOTAL      IBBA       UKS       INT
 CPU TIMES  *         1.74      0.02      1.39      0.19
 REAL TIME  *         2.94 SEC
 DISK USED  *        34.91 MB      
 **********************************************************************************************************************************
 Molecular orbitals read from record     2200.2  Type=UKS/LOCAL(IBO)  
 Occupation numbers read from record     2200.2  Type=UKS/LOCAL(IBO)  
 Orbital energies read from record       2200.2  Type=UKS/LOCAL(IBO)  
 Redundancy group numbers read from rec  2200.2  Type=UKS/BETA (state 1.1)

 IBBA/STO-3G energy=      0.000000000000

        UKS-SCF 
    -78.15156233
 **********************************************************************************************************************************
 Molpro calculation terminated
