
 Primary working directories    : /tmp/sb13343
 Secondary working directories  : /tmp/sb13343
 Wavefunction directory         : /panfs/panasas01/chem/sb13343/wfu/
 Main file repository           : /tmp/sb13343/

 SHA1      : b4a5b34a9e711420743f49e6833241d17c61fb3c
 NAME      : 2099.9.b4a5b34
 ARCHNAME  : linux/x86_64_openmp
 FC        : /cm/shared/languages/GCC-6.1/bin/gfortran
 BLASLIB   : -lblas
 id        : simonbennie

 Nodes     nprocs
 node35-048    1

 Using customized tuning parameters: mindgm=1; mindgv=20; mindgc=4; mindgr=1; noblas=0; minvec=7
 default implementation of scratch files=df  

 memory,500,m
 geomtyp=xyz
 nosym
 noorient
 geometry={
 C         -0.00146        0.79548        0.00000
 C          0.02225       -0.69390        0.00000
 H         -0.99481       -1.12636        0.00000
 H         -0.09300        1.35197        0.92746
 H         -0.09300        1.35197       -0.92746
 H          0.52802       -1.09351        0.88764
 H          0.52802       -1.09351       -0.88764
 }
 basis={ default,svp }
 {uks,B3LYP3,direct;wf,17,1,1}
 {ibba,bonds=1}

 Variables initialized (895), CPU time= 0.00 sec
 Commands  initialized (725), CPU time= 0.02 sec, 591 directives.
 Default parameters read. Elapsed time= 0.11 sec

 Checking input...
 Passed
1


                                         ***  PROGRAM SYSTEM MOLPRO  ***
                                       Copyright, TTI GmbH Stuttgart, 2015
                                    Version 2099.9 linked May 26 2017 16:03:21


 **********************************************************************************************************************************
 LABEL *                                                                                 
  64 bit serial version                                                                  DATE: 08-Jun-17          TIME: 04:53:33  
 **********************************************************************************************************************************

 SHA1:             b4a5b34a9e711420743f49e6833241d17c61fb3c
 **********************************************************************************************************************************
 SETTING GEOMTYP        =    XYZ

 Variable memory set to  500000000 words,  buffer space 

 ZSYMEL=NOSYM

 SETTING BASIS          =    SVP


 Recomputing integrals since basis changed


 Using spherical harmonics

 Library entry C      S def2-SVP             selected for orbital group  1
 Library entry C      P def2-SVP             selected for orbital group  1
 Library entry C      D def2-SVP             selected for orbital group  1
 Library entry H      S def2-SVP             selected for orbital group  2
 Library entry H      P def2-SVP             selected for orbital group  2


 PROGRAM * SEWARD (Integral evaluation for generally contracted gaussian basis sets)     Author: Roland Lindh, 1990

 Geometry written to block  1 of record 700


 Point group  C1  



 ATOMIC COORDINATES

 NR  ATOM    CHARGE       X              Y              Z

   1  C       6.00   -0.002759000    1.503239338    0.000000000
   2  C       6.00    0.042046406   -1.311280958    0.000000000
   3  H       1.00   -1.879918446   -2.128511918    0.000000000
   4  H       1.00   -0.175744530    2.554853029    1.752645391
   5  H       1.00   -0.175744530    2.554853029   -1.752645391
   6  H       1.00    0.997813188   -2.066434414    1.677396497
   7  H       1.00    0.997813188   -2.066434414   -1.677396497

 Bond lengths in Bohr (Angstrom)

 1-2  2.814876910  1-4  2.051238947  1-5  2.051238947  2-3  2.088495950  2-6  2.073018546
     ( 1.489568712)     ( 1.085468905)     ( 1.085468905)     ( 1.105184462)     ( 1.096994173)

 2-7  2.073018546
     ( 1.096994173)

 Bond angles

  1-2-3  112.12345176   1-2-6  111.81246303   1-2-7  111.81246303   2-1-4  120.92728687

  2-1-5  120.92728687   3-2-6  106.36442052   3-2-7  106.36442052   4-1-5  117.39421083

  6-2-7  108.02720793

 NUCLEAR CHARGE:                   17
 NUMBER OF PRIMITIVE AOS:          85
 NUMBER OF SYMMETRY AOS:           83
 NUMBER OF CONTRACTIONS:           53   (  53A   )
 NUMBER OF CORE ORBITALS:           2   (   2A   )
 NUMBER OF VALENCE ORBITALS:       13   (  13A   )


 NUCLEAR REPULSION ENERGY   36.86300145


 Eigenvalues of metric

         1 0.525E-02 0.232E-01 0.271E-01 0.397E-01 0.503E-01 0.635E-01 0.102E+00 0.110E+00


 Contracted 2-electron integrals neglected if value below      1.0D-11
 AO integral compression algorithm  1   Integral accuracy      1.0D-11

     5.243 MB (compressed) written to integral file ( 52.3%)


 NUMBER OF SORTED TWO-ELECTRON INTEGRALS:    1024596.     BUFFER LENGTH:  32768
 NUMBER OF SEGMENTS:   1  SEGMENT LENGTH:    1024596      RECORD LENGTH: 524288

 Memory used in sort:       1.58 MW

 SORT1 READ     1206537. AND WROTE      940164. INTEGRALS IN      3 RECORDS. CPU TIME:     0.01 SEC, REAL TIME:     0.03 SEC
 SORT2 READ      940164. AND WROTE     1024596. INTEGRALS IN     20 RECORDS. CPU TIME:     0.05 SEC, REAL TIME:     0.07 SEC

 FILE SIZES:   FILE 1:    35.4 MBYTE,  FILE 4:    12.6 MBYTE,   TOTAL:     48.0 MBYTE

 OPERATOR DM      FOR CENTER  0  COORDINATES:    0.000000    0.000000    0.000000


 **********************************************************************************************************************************
 DATASETS  * FILE   NREC   LENGTH (MB)   RECORD NAMES
              1      19       34.42       500      610      700      900      950      970     1000      129      960     1100   
                                          VAR    BASINP    GEOM    SYMINP    ZMAT    AOBASIS   BASIS     P2S    ABASIS      S 
                                         1400     1410     1200     1210     1080     1600     1650     1300     1700   
                                           T        V       H0       H01     AOSYM     SMH    MOLCAS    ERIS     OPER   

 PROGRAMS   *        TOTAL       INT
 CPU TIMES  *         0.54      0.39
 REAL TIME  *         1.17 SEC
 DISK USED  *        48.39 MB      
 **********************************************************************************************************************************

 Density functional group B3LYP3=B88+DIRAC+LYP+VWN3
 Functional: B88(Automatically generated (new) B88)                            Gradient terms: 1
 Functional: DIRAC(Automatically generated (new) DIRAC)                        Gradient terms: 0
 Functional: LYP(Automatically generated (new) LYP)                            Gradient terms: 1
 Functional: VWN3(Automatically generated (new) VWN3)                          Gradient terms: 0
 Use grid at  1800.2


 Exact exchange will be calculated, factor:  0.2000

 Functional: B88                       Factor:  0.7200
 Functional: DIRAC                     Factor:  0.0800
 Functional: LYP                       Factor:  0.8100
 Functional: VWN3                      Factor:  0.1900

 Generated new metagrid on record  1800.2 with target accuracy 1.0D-06 and 23794 points in CPU time    0.5
 Computed new grid on record 1800.1 in CPU time    0.5
   46013 words reserved for DFT integration

 PROGRAM * UKS-SCF (Unrestricted Kohn-Sham)     Authors: W. Meyer, H.-J. Werner, P.J. Knowles, 1993

 NUMBER OF ELECTRONS:       9+    8-    SPACE SYMMETRY=1    SPIN SYMMETRY: Doublet 
 CONVERGENCE THRESHOLDS:    1.00E-05 (Density)    1.00E-06 (Energy)
 MAX. NUMBER OF ITERATIONS:       60
 INTERPOLATION TYPE:            DIIS
 INTERPOLATION STEPS:              2 (START)      1 (STEP)
 LEVEL SHIFTS:                 -0.20 (ALPHA)  -0.20 (BETA) 



 Use fine grid record 1800.2 for energy threshold  1.0D-06
 Orbital guess generated from atomic densities. Full valence occupancy:    9

 Molecular orbital dump at record        2200.2

 Initial alpha occupation   9
 Initial beta  occupation   8

 ITERATION    DDIFF          GRAD             ENERGY        2-EL.EN.            DIPOLE MOMENTS         DIIS
    1      0.000D+00      0.000D+00       -79.01560454    149.216830   -0.10936   -0.26104    0.00000    0
    2      0.141D-01      0.718D-02       -79.09123469    142.867485   -0.05870   -0.15547    0.00000    1
    3      0.397D-02      0.260D-02       -79.09990154    144.178537   -0.06278   -0.14332    0.00000    2
    4      0.143D-02      0.393D-03       -79.10052092    144.124172   -0.05863   -0.12541    0.00000    3
    5      0.707D-03      0.197D-03       -79.10066629    144.105477   -0.05548   -0.11222    0.00000    4
    6      0.238D-03      0.670D-04       -79.10069352    144.107536   -0.05405   -0.10700    0.00000    5
    7      0.595D-04      0.275D-04       -79.10069634    144.105935   -0.05351   -0.10504    0.00000    6
    8      0.204D-04      0.575D-05       -79.10069648    144.106351   -0.05337   -0.10494    0.00000    7
    9      0.369D-05      0.958D-06       -79.10069649    144.106260   -0.05337   -0.10495    0.00000    6
   10      0.125D-05      0.346D-06       -79.10069649    144.106336   -0.05336   -0.10497    0.00000    6

 Final alpha occupancy:   9
 Final beta  occupancy:   8

 !UKS STATE 1.1 Energy                -79.100696485914
 Nuclear energy                        36.86300145
 One-electron energy                 -177.77120883
 Two-electron energy                   72.05316796
 Density functional                   -10.24565707     B88=-12.08724365 DIRAC=-10.84348903 LYP= -0.51595578 VWN3= -1.35493861
 Virial quotient                       -1.01327963
 !UKS STATE 1.1 Dipole moment          -0.05336462    -0.10497171     0.00000000
 Dipole moment /Debye                  -0.13563046    -0.26679400     0.00000000

 Orbital energies for positive spin:

         1.1          2.1          3.1          4.1          5.1          6.1          7.1          8.1          9.1         10.1
    -10.189367   -10.184981    -0.747690    -0.601050    -0.449203    -0.413337    -0.392901    -0.357025    -0.203556     0.072603

        11.1
      0.102913

 Orbital energies for negative spin:

         1.1          2.1          3.1          4.1          5.1          6.1          7.1          8.1          9.1         10.1
    -10.185931   -10.174972    -0.731198    -0.577301    -0.442627    -0.398293    -0.384792    -0.352406    -0.045273     0.074799

        11.1
      0.112729

 HOMO      9.1    -0.203556 =      -5.5390eV
 LUMO     -9.1    -0.045273 =      -1.2319eV
 LUMO-HOMO         0.158282 =       4.3071eV

 EXPECTATION VALUE OF S**2:             0.75378984

 Occupation number threshold for canonical orbitals:  1.999000 (occupied),  0.001000 (virtual)

 Number of pseudo-canonical orbitals per symmetry:    7
 Number of active natural orbitals per symmetry:      3

 Natural orbitals saved to record    2200.2 (Orbital set 3)

 Orbital spaces for UNO-CAS (Min. occupation: 0.020  Max. occupation: 1.980):

 Closed:        8
 Active:        1


 **********************************************************************************************************************************
 DATASETS  * FILE   NREC   LENGTH (MB)   RECORD NAMES
              1      20       35.18       500      610      700      900      950      970     1000      129      960     1100   
                                          VAR    BASINP    GEOM    SYMINP    ZMAT    AOBASIS   BASIS     P2S    ABASIS      S 
                                         1400     1410     1200     1210     1080     1600     1650     1300     1700     1800   
                                           T        V       H0       H01     AOSYM     SMH    MOLCAS    ERIS     OPER     GRID   

              2       5        2.98       700     1000      520     1800     2200   
                                         GEOM     BASIS   MCVARS    GRID      UKS  

 PROGRAMS   *        TOTAL       UKS       INT
 CPU TIMES  *         4.17      3.63      0.39
 REAL TIME  *         6.39 SEC
 DISK USED  *        48.39 MB      
 **********************************************************************************************************************************


 PROGRAM * Intrinsic Basis Bonding Analysis (IBBA)          Author: G. Knizia

 Molecular orbitals read from record     2200.2  Type=UKS/ALPHA (state 1.1)
 Fock matrix read from record            2200.2  Type=UKS/TOTAL (state 1.1)
 Orbital energies read from record       2200.2  Type=UKS/ALPHA (state 1.1)
 Density matrix read from record         2200.2  Type=UKS/CHARGE (state 1.1)

 Number of core orbitals:           2 (   2 )
 Number of closed-shell orbitals:   6 (   6 )
 Number of active  orbitals:        1 (   1 )

 Basis set MINAO-AUTO-PP generated.      Number of basis functions:   15 

 Polarized AO type:                A = (O Ot + (1-O)(1-Ot)) P12
 Orthogonalization method:         Symmetric (Loewdin)
 Localization functional:          L = sum[A,i] <i|n_A|i>^4 -> max

 Localization group 1:   8 orbitals, occupancy  2.000
 Iterative localization: IB/PM,    6 iter; Final gradient 0.37E-08

 Bond order analysis:       [THRPRINT= 0.020]

   CEN ATOM   CEN ATOM     WIBERG.BO      RENORM.BO
     1   C  -   2   C       1.243965       2.019664
     1   C  -   5   H       0.960146       0.983735
     1   C  -   4   H       0.960146       0.983735
     1   C  -   3   H       0.098171       0.621768
     1   C  -   6   H       0.022948       0.130370
     1   C  -   7   H       0.022948       0.130370

     2   C  -   1   C       1.243965       2.019664
     2   C  -   7   H       0.935149       0.988970
     2   C  -   6   H       0.935149       0.988970
     2   C  -   3   H       0.840670       0.998616

     3   H  -   2   C       0.840670       0.998616
     3   H  -   1   C       0.098171       0.621768

     4   H  -   1   C       0.960146       0.983735

     5   H  -   1   C       0.960146       0.983735

     6   H  -   2   C       0.935149       0.988970
     6   H  -   1   C       0.022948       0.130370

     7   H  -   2   C       0.935149       0.988970
     7   H  -   1   C       0.022948       0.130370


 Valency analysis:

   CEN ATOM   TOT.VALENCE
     1   C       3.308324
     2   C       3.956773
     3   H       0.951833
     4   H       0.974462
     5   H       0.974462
     6   H       0.976459
     7   H       0.976459
 Localization group 2:   1 orbitals, occupancy  1.000
 Iterative localization: IB/PM,    1 iter; Final gradient 0.00E+00

 Bond order analysis:       [THRPRINT= 0.020]

   CEN ATOM   CEN ATOM     WIBERG.BO      RENORM.BO
     1   C  -   3   H       0.126507       0.500000
     1   C  -   2   C       0.034084       0.500000
     1   C  -   6   H       0.027538       0.500000
     1   C  -   7   H       0.027538       0.500000

     2   C  -   1   C       0.034084       0.500000

     3   H  -   1   C       0.126507       0.500000



     6   H  -   1   C       0.027538       0.500000

     7   H  -   1   C       0.027538       0.500000


 Valency analysis:

   CEN ATOM   TOT.VALENCE
     1   C       0.216879
     2   C       0.038141
     3   H       0.133952
     4   H       0.000692
     5   H       0.000692
     6   H       0.030933
     7   H       0.030933

 Total charge composition:

   CEN ATOM         s          p       ELECTRONS ->P.CHARGE
     1   C       3.09108    3.33127      6.42235   -0.42235
     2   C       3.00098    3.31831      6.31929   -0.31929
     3   H       0.85272                 0.85272    0.14728
     4   H       0.84054                 0.84054    0.15946
     5   H       0.84054                 0.84054    0.15946
     6   H       0.86228                 0.86228    0.13772
     7   H       0.86228                 0.86228    0.13772

 Total charge composition, AO contributions:

   CEN ATOM SHL      SPHERICAL COMPONENTS
     1   C  1s       1.99226
     1   C  2s       1.09882
     1   C  2p       1.07570    1.07801    1.17757

     2   C  1s       1.99086
     2   C  2s       1.01012
     2   C  2p       1.11437    1.04672    1.15721

     3   H  1s       0.85272

     4   H  1s       0.84054

     5   H  1s       0.84054

     6   H  1s       0.86228

     7   H  1s       0.86228

 Active orbital charges:

   CEN ATOM         s          p       ELECTRONS ->SPIN.DEN
     1   C       0.00231    0.87393      0.87625    0.87625
     2   C       0.00005    0.01939      0.01945    0.01945
     3   H       0.07219                 0.07219    0.07219
     4   H       0.00035                 0.00035    0.00035
     5   H       0.00035                 0.00035    0.00035
     6   H       0.01571                 0.01571    0.01571
     7   H       0.01571                 0.01571    0.01571

 Active orbital charges, AO contributions:

   CEN ATOM SHL      SPHERICAL COMPONENTS
     1   C  1s       0.00000
     1   C  2s       0.00231
     1   C  2p       0.87017    0.00376    0.00000

     2   C  1s       0.00000
     2   C  2s       0.00005
     2   C  2p       0.01923    0.00017    0.00000

     3   H  1s       0.07219

     4   H  1s       0.00035

     5   H  1s       0.00035

     6   H  1s       0.01571

     7   H  1s       0.01571

 Summary of localized orbital composition:   [THRPRINT= 0.020]

   ORB  GRP  ORB.ENERGY      CENTERS/CHARGES
     1   1   -10.074741      C  1   2.000
     2   1   -10.070399      C  2   2.000
     3   1    -0.603324      C  1   1.020   C  2   0.978
     4   1    -0.521930      C  1   1.159   H  4   0.835
     5   1    -0.521930      C  1   1.159   H  5   0.835
     6   1    -0.499867      C  2   1.082   H  3   0.776   C  1   0.140
     7   1    -0.497512      C  2   1.117   H  6   0.842   C  1   0.034
     8   1    -0.497512      C  2   1.117   H  7   0.842   C  1   0.034
     9   2    -0.123534      C  1   0.876   H  3   0.072   (other: 0.052)

 Localized orbitals saved to record      2200.2  (orbital set 4)


 **********************************************************************************************************************************
 DATASETS  * FILE   NREC   LENGTH (MB)   RECORD NAMES
              1      20       35.18       500      610      700      900      950      970     1000      129      960     1100   
                                          VAR    BASINP    GEOM    SYMINP    ZMAT    AOBASIS   BASIS     P2S    ABASIS      S 
                                         1400     1410     1200     1210     1080     1600     1650     1300     1700     1800   
                                           T        V       H0       H01     AOSYM     SMH    MOLCAS    ERIS     OPER     GRID   

              2       5        3.00       700     1000      520     1800     2200   
                                         GEOM     BASIS   MCVARS    GRID      UKS  

 PROGRAMS   *        TOTAL      IBBA       UKS       INT
 CPU TIMES  *         4.19      0.02      3.63      0.39
 REAL TIME  *         6.48 SEC
 DISK USED  *        48.39 MB      
 **********************************************************************************************************************************
 Molecular orbitals read from record     2200.2  Type=UKS/LOCAL(IBO)  
 Occupation numbers read from record     2200.2  Type=UKS/LOCAL(IBO)  
 Orbital energies read from record       2200.2  Type=UKS/LOCAL(IBO)  
 Redundancy group numbers read from rec  2200.2  Type=UKS/BETA (state 1.1)

 IBBA/SVP energy=      0.000000000000

        UKS-SCF 
    -79.10069649
 **********************************************************************************************************************************
 Molpro calculation terminated
