
 Primary working directories    : /tmp/sb13343
 Secondary working directories  : /tmp/sb13343
 Wavefunction directory         : /panfs/panasas01/chem/sb13343/wfu/
 Main file repository           : /tmp/sb13343/

 SHA1      : b4a5b34a9e711420743f49e6833241d17c61fb3c
 NAME      : 2099.9.b4a5b34
 ARCHNAME  : linux/x86_64_openmp
 FC        : /cm/shared/languages/GCC-6.1/bin/gfortran
 BLASLIB   : -lblas
 id        : simonbennie

 Nodes     nprocs
 node33-004    1

 Using customized tuning parameters: mindgm=1; mindgv=20; mindgc=4; mindgr=1; noblas=0; minvec=7
 default implementation of scratch files=df  

 memory,500,m
 geomtyp=xyz
 nosym
 noorient
 geometry={
 C         -0.00146        0.79548        0.00000
 C          0.02225       -0.69390        0.00000
 H         -0.99481       -1.12636        0.00000
 H         -0.09300        1.35197        0.92746
 H         -0.09300        1.35197       -0.92746
 H          0.52802       -1.09351        0.88764
 H          0.52802       -1.09351       -0.88764
 }
 basis={ default,sto-3g }
 {uks,B-VWN,direct;wf,17,1,1}
 {ibba,bonds=1}

 Variables initialized (895), CPU time= 0.00 sec
 Commands  initialized (725), CPU time= 0.01 sec, 591 directives.
 Default parameters read. Elapsed time= 0.08 sec

 Checking input...
 Passed
1


                                         ***  PROGRAM SYSTEM MOLPRO  ***
                                       Copyright, TTI GmbH Stuttgart, 2015
                                    Version 2099.9 linked May 26 2017 16:03:21


 **********************************************************************************************************************************
 LABEL *                                                                                 
  64 bit serial version                                                                  DATE: 08-Jun-17          TIME: 04:34:53  
 **********************************************************************************************************************************

 SHA1:             b4a5b34a9e711420743f49e6833241d17c61fb3c
 **********************************************************************************************************************************
 SETTING GEOMTYP        =    XYZ

 Variable memory set to  500000000 words,  buffer space 

 ZSYMEL=NOSYM

 SETTING BASIS          =    STO-3G


 Recomputing integrals since basis changed


 Using spherical harmonics

 Library entry C      S STO-3G               selected for orbital group  1
 Library entry C      P STO-3G               selected for orbital group  1
 Library entry H      S STO-3G               selected for orbital group  2


 PROGRAM * SEWARD (Integral evaluation for generally contracted gaussian basis sets)     Author: Roland Lindh, 1990

 Geometry written to block  1 of record 700


 Point group  C1  



 ATOMIC COORDINATES

 NR  ATOM    CHARGE       X              Y              Z

   1  C       6.00   -0.002759000    1.503239338    0.000000000
   2  C       6.00    0.042046406   -1.311280958    0.000000000
   3  H       1.00   -1.879918446   -2.128511918    0.000000000
   4  H       1.00   -0.175744530    2.554853029    1.752645391
   5  H       1.00   -0.175744530    2.554853029   -1.752645391
   6  H       1.00    0.997813188   -2.066434414    1.677396497
   7  H       1.00    0.997813188   -2.066434414   -1.677396497

 Bond lengths in Bohr (Angstrom)

 1-2  2.814876910  1-4  2.051238947  1-5  2.051238947  2-3  2.088495950  2-6  2.073018546
     ( 1.489568712)     ( 1.085468905)     ( 1.085468905)     ( 1.105184462)     ( 1.096994173)

 2-7  2.073018546
     ( 1.096994173)

 Bond angles

  1-2-3  112.12345176   1-2-6  111.81246303   1-2-7  111.81246303   2-1-4  120.92728687

  2-1-5  120.92728687   3-2-6  106.36442052   3-2-7  106.36442052   4-1-5  117.39421083

  6-2-7  108.02720793

 NUCLEAR CHARGE:                   17
 NUMBER OF PRIMITIVE AOS:          45
 NUMBER OF SYMMETRY AOS:           45
 NUMBER OF CONTRACTIONS:           15   (  15A   )
 NUMBER OF CORE ORBITALS:           2   (   2A   )
 NUMBER OF VALENCE ORBITALS:       13   (  13A   )


 NUCLEAR REPULSION ENERGY   36.86300145


 Eigenvalues of metric

         1 0.218E+00 0.272E+00 0.329E+00 0.377E+00 0.382E+00 0.392E+00 0.935E+00 0.955E+00


 Contracted 2-electron integrals neglected if value below      1.0D-11
 AO integral compression algorithm  1   Integral accuracy      1.0D-11

     0.262 MB (compressed) written to integral file (100.0%)


 NUMBER OF SORTED TWO-ELECTRON INTEGRALS:       7260.     BUFFER LENGTH:  32768
 NUMBER OF SEGMENTS:   1  SEGMENT LENGTH:       7260      RECORD LENGTH: 524288

 Memory used in sort:       0.56 MW

 SORT1 READ        9024. AND WROTE        6273. INTEGRALS IN      1 RECORDS. CPU TIME:     0.01 SEC, REAL TIME:     0.00 SEC
 SORT2 READ        6273. AND WROTE        7260. INTEGRALS IN      1 RECORDS. CPU TIME:     0.00 SEC, REAL TIME:     0.01 SEC

 FILE SIZES:   FILE 1:    30.3 MBYTE,  FILE 4:     4.2 MBYTE,   TOTAL:     34.5 MBYTE

 OPERATOR DM      FOR CENTER  0  COORDINATES:    0.000000    0.000000    0.000000


 **********************************************************************************************************************************
 DATASETS  * FILE   NREC   LENGTH (MB)   RECORD NAMES
              1      19       30.09       500      610      700      900      950      970     1000      129      960     1100   
                                          VAR    BASINP    GEOM    SYMINP    ZMAT    AOBASIS   BASIS     P2S    ABASIS      S 
                                         1400     1410     1200     1210     1080     1600     1650     1300     1700   
                                           T        V       H0       H01     AOSYM     SMH    MOLCAS    ERIS     OPER   

 PROGRAMS   *        TOTAL       INT
 CPU TIMES  *         0.37      0.23
 REAL TIME  *         0.65 SEC
 DISK USED  *        34.91 MB      
 **********************************************************************************************************************************

 Density functional group B-VWN=B88+VWN5
 Functional: B88(Automatically generated (new) B88)                            Gradient terms: 1
 Functional: VWN5(Automatically generated (new) VWN5)                          Gradient terms: 0
 Use grid at  1800.2

 Functional: B88                       Factor:  1.0000
 Functional: VWN5                      Factor:  1.0000

 Generated new metagrid on record  1800.2 with target accuracy 1.0D-06 and 23794 points in CPU time    0.5
 Computed new grid on record 1800.1 in CPU time    0.5
   15985 words reserved for DFT integration

 PROGRAM * UKS-SCF (Unrestricted Kohn-Sham)     Authors: W. Meyer, H.-J. Werner, P.J. Knowles, 1993

 NUMBER OF ELECTRONS:       9+    8-    SPACE SYMMETRY=1    SPIN SYMMETRY: Doublet 
 CONVERGENCE THRESHOLDS:    1.00E-05 (Density)    1.00E-06 (Energy)
 MAX. NUMBER OF ITERATIONS:       60
 INTERPOLATION TYPE:            DIIS
 INTERPOLATION STEPS:              2 (START)      1 (STEP)
 LEVEL SHIFTS:                 -0.20 (ALPHA)  -0.20 (BETA) 



 Use fine grid record 1800.2 for energy threshold  1.0D-06
 Orbital guess generated from atomic densities. Full valence occupancy:    9

 Molecular orbital dump at record        2200.2

 Initial alpha occupation   9
 Initial beta  occupation   8

 ITERATION    DDIFF          GRAD             ENERGY        2-EL.EN.            DIPOLE MOMENTS         DIIS
    1      0.000D+00      0.000D+00       -78.57066230    153.589488   -0.11769   -0.20919    0.00000    0
    2      0.676D-01      0.224D-01       -78.64692695    149.066390   -0.03437   -0.09367    0.00000    1
    3      0.109D-01      0.449D-02       -78.64997338    149.722796   -0.03633   -0.08212    0.00000    2
    4      0.142D-02      0.910D-03       -78.65020236    149.710084   -0.03476   -0.07543    0.00000    3
    5      0.948D-03      0.528D-03       -78.65029578    149.712138   -0.03285   -0.06801    0.00000    4
    6      0.256D-03      0.968D-04       -78.65030000    149.711298   -0.03271   -0.06692    0.00000    5
    7      0.367D-04      0.130D-04       -78.65030007    149.711249   -0.03268   -0.06680    0.00000    6
    8      0.515D-05      0.238D-05       -78.65030008    149.711287   -0.03268   -0.06680    0.00000    5
    9      0.895D-06      0.460D-06       -78.65030008    149.711261   -0.03268   -0.06680    0.00000    5

 Final alpha occupancy:   9
 Final beta  occupancy:   8

 !UKS STATE 1.1 Energy                -78.650300077285
 Nuclear energy                        36.86300145
 One-electron energy                 -177.19027567
 Two-electron energy                   74.85563027
 Density functional                   -13.17865613     B88=-12.14285730 VWN5= -1.03579883
 Virial quotient                       -1.02028921
 !UKS STATE 1.1 Dipole moment          -0.03268242    -0.06679942     0.00000000
 Dipole moment /Debye                  -0.08306498    -0.16977607     0.00000000

 Orbital energies for positive spin:

         1.1          2.1          3.1          4.1          5.1          6.1          7.1          8.1          9.1         10.1
     -9.799863    -9.758708    -0.657972    -0.526188    -0.380771    -0.345761    -0.319353    -0.294526    -0.106329     0.328458

        11.1
      0.337278

 Orbital energies for negative spin:

         1.1          2.1          3.1          4.1          5.1          6.1          7.1          8.1          9.1         10.1
     -9.800740    -9.745135    -0.643783    -0.504147    -0.374750    -0.337286    -0.310526    -0.290310     0.011415     0.332376

        11.1
      0.370859

 HOMO      9.1    -0.106329 =      -2.8934eV
 LUMO     -9.1     0.011415 =       0.3106eV
 LUMO-HOMO         0.117744 =       3.2040eV

 EXPECTATION VALUE OF S**2:             0.75344187

 Occupation number threshold for canonical orbitals:  1.999000 (occupied),  0.001000 (virtual)

 Number of pseudo-canonical orbitals per symmetry:    8
 Number of active natural orbitals per symmetry:      1

 Natural orbitals saved to record    2200.2 (Orbital set 3)

 Orbital spaces for UNO-CAS (Min. occupation: 0.020  Max. occupation: 1.980):

 Closed:        8
 Active:        1


 **********************************************************************************************************************************
 DATASETS  * FILE   NREC   LENGTH (MB)   RECORD NAMES
              1      20       30.85       500      610      700      900      950      970     1000      129      960     1100   
                                          VAR    BASINP    GEOM    SYMINP    ZMAT    AOBASIS   BASIS     P2S    ABASIS      S 
                                         1400     1410     1200     1210     1080     1600     1650     1300     1700     1800   
                                           T        V       H0       H01     AOSYM     SMH    MOLCAS    ERIS     OPER     GRID   

              2       5        2.86       700     1000      520     1800     2200   
                                         GEOM     BASIS   MCVARS    GRID      UKS  

 PROGRAMS   *        TOTAL       UKS       INT
 CPU TIMES  *         1.78      1.41      0.23
 REAL TIME  *         2.13 SEC
 DISK USED  *        34.91 MB      
 **********************************************************************************************************************************


 PROGRAM * Intrinsic Basis Bonding Analysis (IBBA)          Author: G. Knizia

 Molecular orbitals read from record     2200.2  Type=UKS/ALPHA (state 1.1)
 Fock matrix read from record            2200.2  Type=UKS/TOTAL (state 1.1)
 Orbital energies read from record       2200.2  Type=UKS/ALPHA (state 1.1)
 Density matrix read from record         2200.2  Type=UKS/CHARGE (state 1.1)

 Number of core orbitals:           2 (   2 )
 Number of closed-shell orbitals:   6 (   6 )
 Number of active  orbitals:        1 (   1 )

 Basis set MINAO-AUTO-PP generated.      Number of basis functions:   15 

 Polarized AO type:                A = (O Ot + (1-O)(1-Ot)) P12
 Orthogonalization method:         Symmetric (Loewdin)
 Localization functional:          L = sum[A,i] <i|n_A|i>^4 -> max

 Localization group 1:   8 orbitals, occupancy  2.000
 Iterative localization: IB/PM,    6 iter; Final gradient 0.37E-08

 Bond order analysis:       [THRPRINT= 0.020]

   CEN ATOM   CEN ATOM     WIBERG.BO      RENORM.BO
     1   C  -   2   C       1.180603       2.018104
     1   C  -   5   H       0.965828       0.985241
     1   C  -   4   H       0.965828       0.985241
     1   C  -   3   H       0.073678       0.634836

     2   C  -   1   C       1.180603       2.018104
     2   C  -   7   H       0.944963       0.990082
     2   C  -   6   H       0.944963       0.990082
     2   C  -   3   H       0.877114       0.998932

     3   H  -   2   C       0.877114       0.998932
     3   H  -   1   C       0.073678       0.634836

     4   H  -   1   C       0.965828       0.985241

     5   H  -   1   C       0.965828       0.985241

     6   H  -   2   C       0.944963       0.990082

     7   H  -   2   C       0.944963       0.990082


 Valency analysis:

   CEN ATOM   TOT.VALENCE
     1   C       3.220190
     2   C       3.949286
     3   H       0.962161
     4   H       0.978922
     5   H       0.978922
     6   H       0.978996
     7   H       0.978996
 Localization group 2:   1 orbitals, occupancy  1.000
 Iterative localization: IB/PM,    1 iter; Final gradient 0.00E+00

 Bond order analysis:       [THRPRINT= 0.020]

   CEN ATOM   CEN ATOM     WIBERG.BO      RENORM.BO
     1   C  -   3   H       0.111741       0.500000
     1   C  -   2   C       0.025403       0.500000
     1   C  -   6   H       0.024801       0.500000
     1   C  -   7   H       0.024801       0.500000

     2   C  -   1   C       0.025403       0.500000

     3   H  -   1   C       0.111741       0.500000



     6   H  -   1   C       0.024801       0.500000

     7   H  -   1   C       0.024801       0.500000


 Valency analysis:

   CEN ATOM   TOT.VALENCE
     1   C       0.187635
     2   C       0.027974
     3   H       0.117032
     4   H       0.000496
     5   H       0.000496
     6   H       0.027321
     7   H       0.027321

 Total charge composition:

   CEN ATOM         s          p       ELECTRONS ->P.CHARGE
     1   C       3.07720    3.26904      6.34623   -0.34623
     2   C       2.98381    3.35409      6.33790   -0.33790
     3   H       0.86789                 0.86789    0.13211
     4   H       0.85506                 0.85506    0.14494
     5   H       0.85506                 0.85506    0.14494
     6   H       0.86892                 0.86892    0.13108
     7   H       0.86892                 0.86892    0.13108

 Total charge composition, AO contributions:

   CEN ATOM SHL      SPHERICAL COMPONENTS
     1   C  1s       1.99297
     1   C  2s       1.08422
     1   C  2p       1.03629    1.06801    1.16473

     2   C  1s       1.99175
     2   C  2s       0.99207
     2   C  2p       1.13773    1.05437    1.16199

     3   H  1s       0.86789

     4   H  1s       0.85506

     5   H  1s       0.85506

     6   H  1s       0.86892

     7   H  1s       0.86892

 Active orbital charges:

   CEN ATOM         s          p       ELECTRONS ->SPIN.DEN
     1   C       0.00264    0.89256      0.89520    0.89520
     2   C       0.00005    0.01414      0.01419    0.01419
     3   H       0.06241                 0.06241    0.06241
     4   H       0.00025                 0.00025    0.00025
     5   H       0.00025                 0.00025    0.00025
     6   H       0.01385                 0.01385    0.01385
     7   H       0.01385                 0.01385    0.01385

 Active orbital charges, AO contributions:

   CEN ATOM SHL      SPHERICAL COMPONENTS
     1   C  1s       0.00000
     1   C  2s       0.00264
     1   C  2p       0.88881    0.00375    0.00000

     2   C  1s       0.00000
     2   C  2s       0.00005
     2   C  2p       0.01390    0.00024    0.00000

     3   H  1s       0.06241

     4   H  1s       0.00025

     5   H  1s       0.00025

     6   H  1s       0.01385

     7   H  1s       0.01385

 Summary of localized orbital composition:   [THRPRINT= 0.020]

   ORB  GRP  ORB.ENERGY      CENTERS/CHARGES
     1   1    -9.689417      C  2   2.000
     2   1    -9.647483      C  1   2.000
     3   1    -0.510122      C  1   1.013   C  2   0.984
     4   1    -0.449352      C  1   1.145   H  4   0.850
     5   1    -0.449352      C  1   1.145   H  5   0.850
     6   1    -0.433833      C  2   1.096   H  3   0.801   C  1   0.099
     7   1    -0.431343      C  2   1.119   H  7   0.850   C  1   0.024
     8   1    -0.431343      C  2   1.119   H  6   0.850   C  1   0.024
     9   2    -0.048166      C  1   0.895   H  3   0.062   (other: 0.042)

 Localized orbitals saved to record      2200.2  (orbital set 4)


 **********************************************************************************************************************************
 DATASETS  * FILE   NREC   LENGTH (MB)   RECORD NAMES
              1      20       30.85       500      610      700      900      950      970     1000      129      960     1100   
                                          VAR    BASINP    GEOM    SYMINP    ZMAT    AOBASIS   BASIS     P2S    ABASIS      S 
                                         1400     1410     1200     1210     1080     1600     1650     1300     1700     1800   
                                           T        V       H0       H01     AOSYM     SMH    MOLCAS    ERIS     OPER     GRID   

              2       5        2.87       700     1000      520     1800     2200   
                                         GEOM     BASIS   MCVARS    GRID      UKS  

 PROGRAMS   *        TOTAL      IBBA       UKS       INT
 CPU TIMES  *         1.80      0.01      1.41      0.23
 REAL TIME  *         2.19 SEC
 DISK USED  *        34.91 MB      
 **********************************************************************************************************************************
 Molecular orbitals read from record     2200.2  Type=UKS/LOCAL(IBO)  
 Occupation numbers read from record     2200.2  Type=UKS/LOCAL(IBO)  
 Orbital energies read from record       2200.2  Type=UKS/LOCAL(IBO)  
 Redundancy group numbers read from rec  2200.2  Type=UKS/BETA (state 1.1)

 IBBA/STO-3G energy=      0.000000000000

        UKS-SCF 
    -78.65030008
 **********************************************************************************************************************************
 Molpro calculation terminated
