
 Primary working directories    : /tmp/sb13343
 Secondary working directories  : /tmp/sb13343
 Wavefunction directory         : /panfs/panasas01/chem/sb13343/wfu/
 Main file repository           : /tmp/sb13343/

 SHA1      : b4a5b34a9e711420743f49e6833241d17c61fb3c
 NAME      : 2099.9.b4a5b34
 ARCHNAME  : linux/x86_64_openmp
 FC        : /cm/shared/languages/GCC-6.1/bin/gfortran
 BLASLIB   : -lblas
 id        : simonbennie

 Nodes     nprocs
 node35-048    1

 Using customized tuning parameters: mindgm=1; mindgv=20; mindgc=4; mindgr=1; noblas=0; minvec=7
 default implementation of scratch files=df  

 memory,500,m
 geomtyp=xyz
 nosym
 noorient
 geometry={
 C         -0.00146        0.79548        0.00000
 C          0.02225       -0.69390        0.00000
 H         -0.99481       -1.12636        0.00000
 H         -0.09300        1.35197        0.92746
 H         -0.09300        1.35197       -0.92746
 H          0.52802       -1.09351        0.88764
 H          0.52802       -1.09351       -0.88764
 }
 basis={ default,svp }
 {ks,M08-SO,direct;wf,17,1,1}
 {ibba,bonds=1}

 Variables initialized (895), CPU time= 0.00 sec
 Commands  initialized (725), CPU time= 0.02 sec, 591 directives.
 Default parameters read. Elapsed time= 0.09 sec

 Checking input...
 Passed
1


                                         ***  PROGRAM SYSTEM MOLPRO  ***
                                       Copyright, TTI GmbH Stuttgart, 2015
                                    Version 2099.9 linked May 26 2017 16:03:21


 **********************************************************************************************************************************
 LABEL *                                                                                 
  64 bit serial version                                                                  DATE: 08-Jun-17          TIME: 05:06:53  
 **********************************************************************************************************************************

 SHA1:             b4a5b34a9e711420743f49e6833241d17c61fb3c
 **********************************************************************************************************************************
 SETTING GEOMTYP        =    XYZ

 Variable memory set to  500000000 words,  buffer space 

 ZSYMEL=NOSYM

 SETTING BASIS          =    SVP


 Recomputing integrals since basis changed


 Using spherical harmonics

 Library entry C      S def2-SVP             selected for orbital group  1
 Library entry C      P def2-SVP             selected for orbital group  1
 Library entry C      D def2-SVP             selected for orbital group  1
 Library entry H      S def2-SVP             selected for orbital group  2
 Library entry H      P def2-SVP             selected for orbital group  2


 PROGRAM * SEWARD (Integral evaluation for generally contracted gaussian basis sets)     Author: Roland Lindh, 1990

 Geometry written to block  1 of record 700


 Point group  C1  



 ATOMIC COORDINATES

 NR  ATOM    CHARGE       X              Y              Z

   1  C       6.00   -0.002759000    1.503239338    0.000000000
   2  C       6.00    0.042046406   -1.311280958    0.000000000
   3  H       1.00   -1.879918446   -2.128511918    0.000000000
   4  H       1.00   -0.175744530    2.554853029    1.752645391
   5  H       1.00   -0.175744530    2.554853029   -1.752645391
   6  H       1.00    0.997813188   -2.066434414    1.677396497
   7  H       1.00    0.997813188   -2.066434414   -1.677396497

 Bond lengths in Bohr (Angstrom)

 1-2  2.814876910  1-4  2.051238947  1-5  2.051238947  2-3  2.088495950  2-6  2.073018546
     ( 1.489568712)     ( 1.085468905)     ( 1.085468905)     ( 1.105184462)     ( 1.096994173)

 2-7  2.073018546
     ( 1.096994173)

 Bond angles

  1-2-3  112.12345176   1-2-6  111.81246303   1-2-7  111.81246303   2-1-4  120.92728687

  2-1-5  120.92728687   3-2-6  106.36442052   3-2-7  106.36442052   4-1-5  117.39421083

  6-2-7  108.02720793

 NUCLEAR CHARGE:                   17
 NUMBER OF PRIMITIVE AOS:          85
 NUMBER OF SYMMETRY AOS:           83
 NUMBER OF CONTRACTIONS:           53   (  53A   )
 NUMBER OF CORE ORBITALS:           2   (   2A   )
 NUMBER OF VALENCE ORBITALS:       13   (  13A   )


 NUCLEAR REPULSION ENERGY   36.86300145


 Eigenvalues of metric

         1 0.525E-02 0.232E-01 0.271E-01 0.397E-01 0.503E-01 0.635E-01 0.102E+00 0.110E+00


 Contracted 2-electron integrals neglected if value below      1.0D-11
 AO integral compression algorithm  1   Integral accuracy      1.0D-11

     5.243 MB (compressed) written to integral file ( 52.3%)


 NUMBER OF SORTED TWO-ELECTRON INTEGRALS:    1024596.     BUFFER LENGTH:  32768
 NUMBER OF SEGMENTS:   1  SEGMENT LENGTH:    1024596      RECORD LENGTH: 524288

 Memory used in sort:       1.58 MW

 SORT1 READ     1206537. AND WROTE      940164. INTEGRALS IN      3 RECORDS. CPU TIME:     0.02 SEC, REAL TIME:     0.03 SEC
 SORT2 READ      940164. AND WROTE     1024596. INTEGRALS IN     20 RECORDS. CPU TIME:     0.05 SEC, REAL TIME:     0.16 SEC

 FILE SIZES:   FILE 1:    35.4 MBYTE,  FILE 4:    12.6 MBYTE,   TOTAL:     48.0 MBYTE

 OPERATOR DM      FOR CENTER  0  COORDINATES:    0.000000    0.000000    0.000000


 **********************************************************************************************************************************
 DATASETS  * FILE   NREC   LENGTH (MB)   RECORD NAMES
              1      19       34.42       500      610      700      900      950      970     1000      129      960     1100   
                                          VAR    BASINP    GEOM    SYMINP    ZMAT    AOBASIS   BASIS     P2S    ABASIS      S 
                                         1400     1410     1200     1210     1080     1600     1650     1300     1700   
                                           T        V       H0       H01     AOSYM     SMH    MOLCAS    ERIS     OPER   

 PROGRAMS   *        TOTAL       INT
 CPU TIMES  *         0.51      0.38
 REAL TIME  *         1.03 SEC
 DISK USED  *        48.39 MB      
 **********************************************************************************************************************************

 Density functional group M08-SO=XC-M08-SO
 Functional: XC-M08-SO(via MFM 1.6)                                            Gradient terms: 1
 Use grid at  1800.2


 Exact exchange will be calculated, factor:  0.5679

 Functional: XC-M08-SO                 Factor:  1.0000

 Generated new metagrid on record  1800.2 with target accuracy 1.0D-06 and 23794 points in CPU time    0.5
 Computed new grid on record 1800.1 in CPU time    0.6
   46013 words reserved for DFT integration

 PROGRAM * RKS-SCF (Restricted open shell Kohn-Sham)     Authors: W. Meyer, H.-J. Werner, P.J. Knowles, 1993

 NUMBER OF ELECTRONS:       9+    8-    SPACE SYMMETRY=1    SPIN SYMMETRY: Doublet 
 CONVERGENCE THRESHOLDS:    1.00E-05 (Density)    1.00E-06 (Energy)
 MAX. NUMBER OF ITERATIONS:       60
 INTERPOLATION TYPE:            DIIS
 INTERPOLATION STEPS:              2 (START)      1 (STEP)
 LEVEL SHIFTS:                 -0.60 (CLOSED) -0.30 (OPEN) 



 Use fine grid record 1800.2 for energy threshold  1.0D-06
 Orbital guess generated from atomic densities. Full valence occupancy:    9

 Molecular orbital dump at record        2100.2

 Initial alpha occupancy:   9
 Initial beta  occupancy:   8
 Wave function symmetry:    1

 ITERATION    DDIFF          GRAD             ENERGY        2-EL.EN.            DIPOLE MOMENTS         DIIS   ORB.
    1      0.000D+00      0.000D+00       -78.99122852    138.130651   -0.11332   -0.31553    0.00000    0    start
    2      0.000D+00      0.889D-02       -79.03185952    134.611570   -0.06510   -0.16912    0.00000    1    diag,B
    3      0.815D-02      0.211D-02       -79.03454256    134.985896   -0.06362   -0.13911    0.00000    2    diag,B
    4      0.199D-02      0.790D-03       -79.03565023    134.935273   -0.05700   -0.10542    0.00000    3    diag,B
    5      0.168D-02      0.257D-03       -79.03580352    134.921140   -0.05382   -0.09297    0.00000    4    diag,B
    6      0.815D-03      0.534D-04       -79.03580975    134.919492   -0.05311   -0.09185    0.00000    5    diag,B
    7      0.154D-03      0.154D-04       -79.03581025    134.919206   -0.05288   -0.09176    0.00000    6    fixocc
    8      0.378D-04      0.472D-05       -79.03581030    134.919289   -0.05282   -0.09180    0.00000    7    diag,B
    9      0.128D-04      0.155D-05       -79.03581031    134.919349   -0.05281   -0.09182    0.00000    8    diag,B
   10      0.626D-05      0.428D-06       -79.03581031    134.919356   -0.05280   -0.09183    0.00000    0    orth

 Final alpha occupancy:   9
 Final beta  occupancy:   8

 !RKS STATE 1.1 Energy                -79.035810307812
 Nuclear energy                        36.86300145
 One-electron energy                 -177.63776660
 Two-electron energy                   67.45967775
 Density functional                    -5.72072291     XC-M08-SO=-5.72072291
 Virial quotient                       -1.01432630
 !RKS STATE 1.1 Dipole moment          -0.05280400    -0.09182522     0.00000000
 Dipole moment /Debye                  -0.13420559    -0.23338115     0.00000000

 Orbital energies:

         1.1          2.1          3.1          4.1          5.1          6.1          7.1          8.1          9.1         10.1
    -10.510439   -10.509672    -0.835754    -0.674050    -0.519200    -0.473057    -0.457927    -0.420670    -0.268268     0.098588

        11.1
      0.131585

 HOMO      9.1    -0.268268 =      -7.2999eV
 LUMO     10.1     0.098588 =       2.6827eV
 LUMO-HOMO         0.366856 =       9.9827eV


 **********************************************************************************************************************************
 DATASETS  * FILE   NREC   LENGTH (MB)   RECORD NAMES
              1      20       35.18       500      610      700      900      950      970     1000      129      960     1100   
                                          VAR    BASINP    GEOM    SYMINP    ZMAT    AOBASIS   BASIS     P2S    ABASIS      S 
                                         1400     1410     1200     1210     1080     1600     1650     1300     1700     1800   
                                           T        V       H0       H01     AOSYM     SMH    MOLCAS    ERIS     OPER     GRID   

              2       5        2.94       700     1000      520     1800     2100   
                                         GEOM     BASIS   MCVARS    GRID      RKS  

 PROGRAMS   *        TOTAL        KS       INT
 CPU TIMES  *         8.59      8.08      0.38
 REAL TIME  *        10.21 SEC
 DISK USED  *        48.39 MB      
 **********************************************************************************************************************************


 PROGRAM * Intrinsic Basis Bonding Analysis (IBBA)          Author: G. Knizia

 Molecular orbitals read from record     2100.2  Type=RKS/CANONICAL (state 1.1)
 Fock matrix read from record            2100.2  Type=RKS/TOTAL (state 1.1)
 Orbital energies read from record       2100.2  Type=RKS/CANONICAL (state 1.1)
 Density matrix read from record         2100.2  Type=RKS/CHARGE (state 1.1)

 Number of core orbitals:           2 (   2 )
 Number of closed-shell orbitals:   6 (   6 )
 Number of active  orbitals:        1 (   1 )

 Basis set MINAO-AUTO-PP generated.      Number of basis functions:   15 

 Polarized AO type:                A = (O Ot + (1-O)(1-Ot)) P12
 Orthogonalization method:         Symmetric (Loewdin)
 Localization functional:          L = sum[A,i] <i|n_A|i>^4 -> max

 Localization group 1:   8 orbitals, occupancy  2.000
 Iterative localization: IB/PM,    6 iter; Final gradient 0.34E-08

 Bond order analysis:       [THRPRINT= 0.020]

   CEN ATOM   CEN ATOM     WIBERG.BO      RENORM.BO
     1   C  -   2   C       1.108009       2.019111
     1   C  -   5   H       0.968726       0.984415
     1   C  -   4   H       0.968726       0.984415
     1   C  -   3   H       0.041680       0.656941

     2   C  -   1   C       1.108009       2.019111
     2   C  -   7   H       0.953973       0.989781
     2   C  -   6   H       0.953973       0.989781
     2   C  -   3   H       0.921254       0.999057

     3   H  -   2   C       0.921254       0.999057
     3   H  -   1   C       0.041680       0.656941

     4   H  -   1   C       0.968726       0.984415

     5   H  -   1   C       0.968726       0.984415

     6   H  -   2   C       0.953973       0.989781

     7   H  -   2   C       0.953973       0.989781


 Valency analysis:

   CEN ATOM   TOT.VALENCE
     1   C       3.106721
     2   C       3.939598
     3   H       0.969529
     4   H       0.983093
     5   H       0.983093
     6   H       0.979535
     7   H       0.979535
 Localization group 2:   1 orbitals, occupancy  1.000
 Iterative localization: IB/PM,    1 iter; Final gradient 0.00E+00

 Bond order analysis:       [THRPRINT= 0.020]

   CEN ATOM   CEN ATOM     WIBERG.BO      RENORM.BO
     1   C  -   3   H       0.077204       0.500000


     3   H  -   1   C       0.077204       0.500000






 Valency analysis:

   CEN ATOM   TOT.VALENCE
     1   C       0.114962
     2   C       0.004672
     3   H       0.078858
     4   H       0.000348
     5   H       0.000348
     6   H       0.017269
     7   H       0.017269

 Total charge composition:

   CEN ATOM         s          p       ELECTRONS ->P.CHARGE
     1   C       3.04287    3.23252      6.27539   -0.27539
     2   C       2.99676    3.38969      6.38645   -0.38645
     3   H       0.86656                 0.86656    0.13344
     4   H       0.87015                 0.87015    0.12985
     5   H       0.87015                 0.87015    0.12985
     6   H       0.86565                 0.86565    0.13435
     7   H       0.86565                 0.86565    0.13435

 Total charge composition, AO contributions:

   CEN ATOM SHL      SPHERICAL COMPONENTS
     1   C  1s       1.99230
     1   C  2s       1.05058
     1   C  2p       1.01257    1.06313    1.15681

     2   C  1s       1.99081
     2   C  2s       1.00596
     2   C  2p       1.15396    1.07161    1.16411

     3   H  1s       0.86656

     4   H  1s       0.87015

     5   H  1s       0.87015

     6   H  1s       0.86565

     7   H  1s       0.86565

 Active orbital charges:

   CEN ATOM         s          p       ELECTRONS ->SPIN.DEN
     1   C       0.00353    0.93524      0.93877    0.93877
     2   C       0.00003    0.00231      0.00234    0.00234
     3   H       0.04112                 0.04112    0.04112
     4   H       0.00017                 0.00017    0.00017
     5   H       0.00017                 0.00017    0.00017
     6   H       0.00871                 0.00871    0.00871
     7   H       0.00871                 0.00871    0.00871

 Active orbital charges, AO contributions:

   CEN ATOM SHL      SPHERICAL COMPONENTS
     1   C  1s       0.00000
     1   C  2s       0.00353
     1   C  2p       0.93068    0.00456    0.00000

     2   C  1s       0.00000
     2   C  2s       0.00003
     2   C  2p       0.00220    0.00012    0.00000

     3   H  1s       0.04112

     4   H  1s       0.00017

     5   H  1s       0.00017

     6   H  1s       0.00871

     7   H  1s       0.00871

 Summary of localized orbital composition:   [THRPRINT= 0.020]

   ORB  GRP  ORB.ENERGY      CENTERS/CHARGES
     1   1   -10.403871      C  1   2.000
     2   1   -10.392680      C  2   2.000
     3   1    -0.690592      C  2   1.001   C  1   0.995
     4   1    -0.597616      C  1   1.130   H  4   0.865
     5   1    -0.597616      C  1   1.130   H  5   0.865
     6   1    -0.574719      C  2   1.123   H  3   0.823   C  1   0.053
     7   1    -0.571837      C  2   1.128   H  7   0.852   (other: 0.020)
     8   1    -0.571837      C  2   1.128   H  6   0.852   (other: 0.020)
     9   2    -0.126915      C  1   0.939   H  3   0.041   (other: 0.020)

 Localized orbitals saved to record      2100.2  (orbital set 2)


 **********************************************************************************************************************************
 DATASETS  * FILE   NREC   LENGTH (MB)   RECORD NAMES
              1      20       35.18       500      610      700      900      950      970     1000      129      960     1100   
                                          VAR    BASINP    GEOM    SYMINP    ZMAT    AOBASIS   BASIS     P2S    ABASIS      S 
                                         1400     1410     1200     1210     1080     1600     1650     1300     1700     1800   
                                           T        V       H0       H01     AOSYM     SMH    MOLCAS    ERIS     OPER     GRID   

              2       5        2.96       700     1000      520     1800     2100   
                                         GEOM     BASIS   MCVARS    GRID      RKS  

 PROGRAMS   *        TOTAL      IBBA        KS       INT
 CPU TIMES  *         8.61      0.01      8.08      0.38
 REAL TIME  *        10.30 SEC
 DISK USED  *        48.39 MB      
 **********************************************************************************************************************************
 Molecular orbitals read from record     2100.2  Type=RKS/LOCAL(IBO)  
 Occupation numbers read from record     2100.2  Type=RKS/LOCAL(IBO)  
 Orbital energies read from record       2100.2  Type=RKS/LOCAL(IBO)  
 Redundancy group numbers read from rec  2100.2  Type=RKS/LOCAL(IBO)  

 IBBA/SVP energy=      0.000000000000

        KS-SCF  
    -79.03581031
 **********************************************************************************************************************************
 Molpro calculation terminated
