
 Primary working directories    : /tmp/sb13343
 Secondary working directories  : /tmp/sb13343
 Wavefunction directory         : /panfs/panasas01/chem/sb13343/wfu/
 Main file repository           : /tmp/sb13343/

 SHA1      : b4a5b34a9e711420743f49e6833241d17c61fb3c
 NAME      : 2099.9.b4a5b34
 ARCHNAME  : linux/x86_64_openmp
 FC        : /cm/shared/languages/GCC-6.1/bin/gfortran
 BLASLIB   : -lblas
 id        : simonbennie

 Nodes     nprocs
 node32-007    1

 Using customized tuning parameters: mindgm=1; mindgv=20; mindgc=4; mindgr=1; noblas=0; minvec=7
 default implementation of scratch files=df  

 memory,500,m
 geomtyp=xyz
 nosym
 noorient
 geometry={
 C         -0.00146        0.79548        0.00000
 C          0.02225       -0.69390        0.00000
 H         -0.99481       -1.12636        0.00000
 H         -0.09300        1.35197        0.92746
 H         -0.09300        1.35197       -0.92746
 H          0.52802       -1.09351        0.88764
 H          0.52802       -1.09351       -0.88764
 }
 basis={ default,svp }
 {uks,M06-L,direct;wf,17,1,1}
 {ibba,bonds=1}

 Variables initialized (895), CPU time= 0.00 sec
 Commands  initialized (725), CPU time= 0.01 sec, 591 directives.
 Default parameters read. Elapsed time= 0.08 sec

 Checking input...
 Passed
1


                                         ***  PROGRAM SYSTEM MOLPRO  ***
                                       Copyright, TTI GmbH Stuttgart, 2015
                                    Version 2099.9 linked May 26 2017 16:03:21


 **********************************************************************************************************************************
 LABEL *                                                                                 
  64 bit serial version                                                                  DATE: 08-Jun-17          TIME: 05:05:17  
 **********************************************************************************************************************************

 SHA1:             b4a5b34a9e711420743f49e6833241d17c61fb3c
 **********************************************************************************************************************************
 SETTING GEOMTYP        =    XYZ

 Variable memory set to  500000000 words,  buffer space 

 ZSYMEL=NOSYM

 SETTING BASIS          =    SVP


 Recomputing integrals since basis changed


 Using spherical harmonics

 Library entry C      S def2-SVP             selected for orbital group  1
 Library entry C      P def2-SVP             selected for orbital group  1
 Library entry C      D def2-SVP             selected for orbital group  1
 Library entry H      S def2-SVP             selected for orbital group  2
 Library entry H      P def2-SVP             selected for orbital group  2


 PROGRAM * SEWARD (Integral evaluation for generally contracted gaussian basis sets)     Author: Roland Lindh, 1990

 Geometry written to block  1 of record 700


 Point group  C1  



 ATOMIC COORDINATES

 NR  ATOM    CHARGE       X              Y              Z

   1  C       6.00   -0.002759000    1.503239338    0.000000000
   2  C       6.00    0.042046406   -1.311280958    0.000000000
   3  H       1.00   -1.879918446   -2.128511918    0.000000000
   4  H       1.00   -0.175744530    2.554853029    1.752645391
   5  H       1.00   -0.175744530    2.554853029   -1.752645391
   6  H       1.00    0.997813188   -2.066434414    1.677396497
   7  H       1.00    0.997813188   -2.066434414   -1.677396497

 Bond lengths in Bohr (Angstrom)

 1-2  2.814876910  1-4  2.051238947  1-5  2.051238947  2-3  2.088495950  2-6  2.073018546
     ( 1.489568712)     ( 1.085468905)     ( 1.085468905)     ( 1.105184462)     ( 1.096994173)

 2-7  2.073018546
     ( 1.096994173)

 Bond angles

  1-2-3  112.12345176   1-2-6  111.81246303   1-2-7  111.81246303   2-1-4  120.92728687

  2-1-5  120.92728687   3-2-6  106.36442052   3-2-7  106.36442052   4-1-5  117.39421083

  6-2-7  108.02720793

 NUCLEAR CHARGE:                   17
 NUMBER OF PRIMITIVE AOS:          85
 NUMBER OF SYMMETRY AOS:           83
 NUMBER OF CONTRACTIONS:           53   (  53A   )
 NUMBER OF CORE ORBITALS:           2   (   2A   )
 NUMBER OF VALENCE ORBITALS:       13   (  13A   )


 NUCLEAR REPULSION ENERGY   36.86300145


 Eigenvalues of metric

         1 0.525E-02 0.232E-01 0.271E-01 0.397E-01 0.503E-01 0.635E-01 0.102E+00 0.110E+00


 Contracted 2-electron integrals neglected if value below      1.0D-11
 AO integral compression algorithm  1   Integral accuracy      1.0D-11

     5.243 MB (compressed) written to integral file ( 52.3%)


 NUMBER OF SORTED TWO-ELECTRON INTEGRALS:    1024596.     BUFFER LENGTH:  32768
 NUMBER OF SEGMENTS:   1  SEGMENT LENGTH:    1024596      RECORD LENGTH: 524288

 Memory used in sort:       1.58 MW

 SORT1 READ     1206537. AND WROTE      940164. INTEGRALS IN      3 RECORDS. CPU TIME:     0.01 SEC, REAL TIME:     0.03 SEC
 SORT2 READ      940164. AND WROTE     1024596. INTEGRALS IN     20 RECORDS. CPU TIME:     0.06 SEC, REAL TIME:     0.07 SEC

 FILE SIZES:   FILE 1:    35.4 MBYTE,  FILE 4:    12.6 MBYTE,   TOTAL:     48.0 MBYTE

 OPERATOR DM      FOR CENTER  0  COORDINATES:    0.000000    0.000000    0.000000


 **********************************************************************************************************************************
 DATASETS  * FILE   NREC   LENGTH (MB)   RECORD NAMES
              1      19       34.42       500      610      700      900      950      970     1000      129      960     1100   
                                          VAR    BASINP    GEOM    SYMINP    ZMAT    AOBASIS   BASIS     P2S    ABASIS      S 
                                         1400     1410     1200     1210     1080     1600     1650     1300     1700   
                                           T        V       H0       H01     AOSYM     SMH    MOLCAS    ERIS     OPER   

 PROGRAMS   *        TOTAL       INT
 CPU TIMES  *         0.61      0.47
 REAL TIME  *         0.99 SEC
 DISK USED  *        48.39 MB      
 **********************************************************************************************************************************

 Density functional group M06-L=XC-M06-L
 Functional: XC-M06-L(via MFM 1.6)                                             Gradient terms: 1
 Use grid at  1800.2

 Functional: XC-M06-L                  Factor:  1.0000

 Generated new metagrid on record  1800.2 with target accuracy 1.0D-06 and 23794 points in CPU time    0.5
 Computed new grid on record 1800.1 in CPU time    0.6
   46013 words reserved for DFT integration

 PROGRAM * UKS-SCF (Unrestricted Kohn-Sham)     Authors: W. Meyer, H.-J. Werner, P.J. Knowles, 1993

 NUMBER OF ELECTRONS:       9+    8-    SPACE SYMMETRY=1    SPIN SYMMETRY: Doublet 
 CONVERGENCE THRESHOLDS:    1.00E-05 (Density)    1.00E-06 (Energy)
 MAX. NUMBER OF ITERATIONS:       60
 INTERPOLATION TYPE:            DIIS
 INTERPOLATION STEPS:              2 (START)      1 (STEP)
 LEVEL SHIFTS:                 -0.20 (ALPHA)  -0.20 (BETA) 



 Use fine grid record 1800.2 for energy threshold  1.0D-06
 Orbital guess generated from atomic densities. Full valence occupancy:    9

 Molecular orbital dump at record        2200.2

 Initial alpha occupation   9
 Initial beta  occupation   8

 ITERATION    DDIFF          GRAD             ENERGY        2-EL.EN.            DIPOLE MOMENTS         DIIS
    1      0.000D+00      0.000D+00       -78.98678627    154.424500   -0.10636   -0.22979    0.00000    0
    2      0.155D-01      0.759D-02       -79.07068938    147.449183   -0.04870   -0.13169    0.00000    1
    3      0.436D-02      0.307D-02       -79.08248493    149.046421   -0.05760   -0.13443    0.00000    2
    4      0.943D-03      0.408D-03       -79.08300934    148.972183   -0.05352   -0.12506    0.00000    3
    5      0.482D-03      0.199D-03       -79.08315037    148.958532   -0.04988   -0.11542    0.00000    4
    6      0.229D-03      0.763D-04       -79.08318677    148.960883   -0.04725   -0.11009    0.00000    5
    7      0.506D-04      0.318D-04       -79.08318964    148.960134   -0.04647   -0.10810    0.00000    6
    8      0.259D-04      0.830D-05       -79.08318989    148.960448   -0.04621   -0.10796    0.00000    7
    9      0.552D-05      0.186D-05       -79.08318990    148.960349   -0.04613   -0.10796    0.00000    6
   10      0.224D-05      0.678D-06       -79.08318990    148.960406   -0.04612   -0.10798    0.00000    7

 Final alpha occupancy:   9
 Final beta  occupancy:   8

 !UKS STATE 1.1 Energy                -79.083189903477
 Nuclear energy                        36.86300145
 One-electron energy                 -177.76351829
 Two-electron energy                   74.48020315
 Density functional                   -12.66287622     XC-M06-L=-12.66287622
 Virial quotient                       -1.01220339
 !UKS STATE 1.1 Dipole moment          -0.04611606    -0.10797908     0.00000000
 Dipole moment /Debye                  -0.11720766    -0.27443748     0.00000000

 Orbital energies for positive spin:

         1.1          2.1          3.1          4.1          5.1          6.1          7.1          8.1          9.1         10.1
    -10.063443   -10.059064    -0.712087    -0.566065    -0.412061    -0.376445    -0.358340    -0.321305    -0.174617     0.091691

        11.1
      0.113979

 Orbital energies for negative spin:

         1.1          2.1          3.1          4.1          5.1          6.1          7.1          8.1          9.1         10.1
    -10.059808   -10.049283    -0.691196    -0.533187    -0.401734    -0.362201    -0.351352    -0.313561    -0.056372     0.089388

        11.1
      0.110162

 HOMO      9.1    -0.174617 =      -4.7516eV
 LUMO     -9.1    -0.056372 =      -1.5340eV
 LUMO-HOMO         0.118245 =       3.2176eV

 EXPECTATION VALUE OF S**2:             0.75649128

 Occupation number threshold for canonical orbitals:  1.999000 (occupied),  0.001000 (virtual)

 Number of pseudo-canonical orbitals per symmetry:    7
 Number of active natural orbitals per symmetry:      3

 Natural orbitals saved to record    2200.2 (Orbital set 3)

 Orbital spaces for UNO-CAS (Min. occupation: 0.020  Max. occupation: 1.980):

 Closed:        8
 Active:        1


 **********************************************************************************************************************************
 DATASETS  * FILE   NREC   LENGTH (MB)   RECORD NAMES
              1      20       35.18       500      610      700      900      950      970     1000      129      960     1100   
                                          VAR    BASINP    GEOM    SYMINP    ZMAT    AOBASIS   BASIS     P2S    ABASIS      S 
                                         1400     1410     1200     1210     1080     1600     1650     1300     1700     1800   
                                           T        V       H0       H01     AOSYM     SMH    MOLCAS    ERIS     OPER     GRID   

              2       5        2.98       700     1000      520     1800     2200   
                                         GEOM     BASIS   MCVARS    GRID      UKS  

 PROGRAMS   *        TOTAL       UKS       INT
 CPU TIMES  *         9.88      9.27      0.47
 REAL TIME  *        10.77 SEC
 DISK USED  *        48.39 MB      
 **********************************************************************************************************************************


 PROGRAM * Intrinsic Basis Bonding Analysis (IBBA)          Author: G. Knizia

 Molecular orbitals read from record     2200.2  Type=UKS/ALPHA (state 1.1)
 Fock matrix read from record            2200.2  Type=UKS/TOTAL (state 1.1)
 Orbital energies read from record       2200.2  Type=UKS/ALPHA (state 1.1)
 Density matrix read from record         2200.2  Type=UKS/CHARGE (state 1.1)

 Number of core orbitals:           2 (   2 )
 Number of closed-shell orbitals:   6 (   6 )
 Number of active  orbitals:        1 (   1 )

 Basis set MINAO-AUTO-PP generated.      Number of basis functions:   15 

 Polarized AO type:                A = (O Ot + (1-O)(1-Ot)) P12
 Orthogonalization method:         Symmetric (Loewdin)
 Localization functional:          L = sum[A,i] <i|n_A|i>^4 -> max

 Localization group 1:   8 orbitals, occupancy  2.000
 Iterative localization: IB/PM,    6 iter; Final gradient 0.36E-08

 Bond order analysis:       [THRPRINT= 0.020]

   CEN ATOM   CEN ATOM     WIBERG.BO      RENORM.BO
     1   C  -   2   C       1.261344       2.021547
     1   C  -   5   H       0.954506       0.981825
     1   C  -   4   H       0.954506       0.981825
     1   C  -   3   H       0.101668       0.620830
     1   C  -   6   H       0.023755       0.129213
     1   C  -   7   H       0.023755       0.129213

     2   C  -   1   C       1.261344       2.021547
     2   C  -   7   H       0.930676       0.987534
     2   C  -   6   H       0.930676       0.987534
     2   C  -   3   H       0.829892       0.998670

     3   H  -   2   C       0.829892       0.998670
     3   H  -   1   C       0.101668       0.620830

     4   H  -   1   C       0.954506       0.981825

     5   H  -   1   C       0.954506       0.981825

     6   H  -   2   C       0.930676       0.987534
     6   H  -   1   C       0.023755       0.129213

     7   H  -   2   C       0.930676       0.987534
     7   H  -   1   C       0.023755       0.129213


 Valency analysis:

   CEN ATOM   TOT.VALENCE
     1   C       3.319533
     2   C       3.954539
     3   H       0.944137
     4   H       0.970129
     5   H       0.970129
     6   H       0.973935
     7   H       0.973935
 Localization group 2:   1 orbitals, occupancy  1.000
 Iterative localization: IB/PM,    1 iter; Final gradient 0.00E+00

 Bond order analysis:       [THRPRINT= 0.020]

   CEN ATOM   CEN ATOM     WIBERG.BO      RENORM.BO
     1   C  -   3   H       0.133680       0.500000
     1   C  -   2   C       0.035461       0.500000
     1   C  -   6   H       0.029630       0.500000
     1   C  -   7   H       0.029630       0.500000

     2   C  -   1   C       0.035461       0.500000

     3   H  -   1   C       0.133680       0.500000



     6   H  -   1   C       0.029630       0.500000

     7   H  -   1   C       0.029630       0.500000


 Valency analysis:

   CEN ATOM   TOT.VALENCE
     1   C       0.229795
     2   C       0.040039
     3   H       0.142215
     4   H       0.000804
     5   H       0.000804
     6   H       0.033570
     7   H       0.033570

 Total charge composition:

   CEN ATOM         s          p       ELECTRONS ->P.CHARGE
     1   C       3.11648    3.33913      6.45561   -0.45561
     2   C       3.01853    3.31878      6.33730   -0.33730
     3   H       0.84069                 0.84069    0.15931
     4   H       0.82757                 0.82757    0.17243
     5   H       0.82757                 0.82757    0.17243
     6   H       0.85563                 0.85563    0.14437
     7   H       0.85563                 0.85563    0.14437

 Total charge composition, AO contributions:

   CEN ATOM SHL      SPHERICAL COMPONENTS
     1   C  1s       1.99198
     1   C  2s       1.12450
     1   C  2p       1.07934    1.07737    1.18242

     2   C  1s       1.99055
     2   C  2s       1.02798
     2   C  2p       1.11781    1.04418    1.15679

     3   H  1s       0.84069

     4   H  1s       0.82757

     5   H  1s       0.82757

     6   H  1s       0.85563

     7   H  1s       0.85563

 Active orbital charges:

   CEN ATOM         s          p       ELECTRONS ->SPIN.DEN
     1   C       0.00206    0.86550      0.86756    0.86756
     2   C       0.00004    0.02039      0.02044    0.02044
     3   H       0.07704                 0.07704    0.07704
     4   H       0.00040                 0.00040    0.00040
     5   H       0.00040                 0.00040    0.00040
     6   H       0.01708                 0.01708    0.01708
     7   H       0.01708                 0.01708    0.01708

 Active orbital charges, AO contributions:

   CEN ATOM SHL      SPHERICAL COMPONENTS
     1   C  1s       0.00000
     1   C  2s       0.00206
     1   C  2p       0.86191    0.00359    0.00000

     2   C  1s       0.00000
     2   C  2s       0.00004
     2   C  2p       0.02019    0.00020    0.00000

     3   H  1s       0.07704

     4   H  1s       0.00040

     5   H  1s       0.00040

     6   H  1s       0.01708

     7   H  1s       0.01708

 Summary of localized orbital composition:   [THRPRINT= 0.020]

   ORB  GRP  ORB.ENERGY      CENTERS/CHARGES
     1   1    -9.947239      C  1   2.000
     2   1    -9.943424      C  2   2.000
     3   1    -0.567738      C  1   1.023   C  2   0.975
     4   1    -0.484215      C  1   1.172   H  4   0.821
     5   1    -0.484215      C  1   1.172   H  5   0.821
     6   1    -0.462370      C  2   1.090   H  3   0.758   C  1   0.149
     7   1    -0.460024      C  2   1.123   H  6   0.834   C  1   0.036
     8   1    -0.460024      C  2   1.123   H  7   0.834   C  1   0.036
     9   2    -0.112499      C  1   0.868   H  3   0.077   C  2   0.020   (other: 0.035)

 Localized orbitals saved to record      2200.2  (orbital set 4)


 **********************************************************************************************************************************
 DATASETS  * FILE   NREC   LENGTH (MB)   RECORD NAMES
              1      20       35.18       500      610      700      900      950      970     1000      129      960     1100   
                                          VAR    BASINP    GEOM    SYMINP    ZMAT    AOBASIS   BASIS     P2S    ABASIS      S 
                                         1400     1410     1200     1210     1080     1600     1650     1300     1700     1800   
                                           T        V       H0       H01     AOSYM     SMH    MOLCAS    ERIS     OPER     GRID   

              2       5        3.00       700     1000      520     1800     2200   
                                         GEOM     BASIS   MCVARS    GRID      UKS  

 PROGRAMS   *        TOTAL      IBBA       UKS       INT
 CPU TIMES  *         9.90      0.02      9.27      0.47
 REAL TIME  *        10.83 SEC
 DISK USED  *        48.39 MB      
 **********************************************************************************************************************************
 Molecular orbitals read from record     2200.2  Type=UKS/LOCAL(IBO)  
 Occupation numbers read from record     2200.2  Type=UKS/LOCAL(IBO)  
 Orbital energies read from record       2200.2  Type=UKS/LOCAL(IBO)  
 Redundancy group numbers read from rec  2200.2  Type=UKS/BETA (state 1.1)

 IBBA/SVP energy=      0.000000000000

        UKS-SCF 
    -79.08318990
 **********************************************************************************************************************************
 Molpro calculation terminated
