
 Primary working directories    : /tmp/sb13343
 Secondary working directories  : /tmp/sb13343
 Wavefunction directory         : /panfs/panasas01/chem/sb13343/wfu/
 Main file repository           : /tmp/sb13343/

 SHA1      : b4a5b34a9e711420743f49e6833241d17c61fb3c
 NAME      : 2099.9.b4a5b34
 ARCHNAME  : linux/x86_64_openmp
 FC        : /cm/shared/languages/GCC-6.1/bin/gfortran
 BLASLIB   : -lblas
 id        : simonbennie

 Nodes     nprocs
 node35-048    1

 Using customized tuning parameters: mindgm=1; mindgv=20; mindgc=4; mindgr=1; noblas=0; minvec=7
 default implementation of scratch files=df  

 memory,500,m
 geomtyp=xyz
 nosym
 noorient
 geometry={
 C         -0.00146        0.79548        0.00000
 C          0.02225       -0.69390        0.00000
 H         -0.99481       -1.12636        0.00000
 H         -0.09300        1.35197        0.92746
 H         -0.09300        1.35197       -0.92746
 H          0.52802       -1.09351        0.88764
 H          0.52802       -1.09351       -0.88764
 }
 basis={ default,sto-3g }
 {ks,SOGGA11,direct;wf,17,1,1}
 {ibba,bonds=1}

 Variables initialized (895), CPU time= 0.00 sec
 Commands  initialized (725), CPU time= 0.02 sec, 591 directives.
 Default parameters read. Elapsed time= 0.12 sec

 Checking input...
 Passed
1


                                         ***  PROGRAM SYSTEM MOLPRO  ***
                                       Copyright, TTI GmbH Stuttgart, 2015
                                    Version 2099.9 linked May 26 2017 16:03:21


 **********************************************************************************************************************************
 LABEL *                                                                                 
  64 bit serial version                                                                  DATE: 08-Jun-17          TIME: 04:50:53  
 **********************************************************************************************************************************

 SHA1:             b4a5b34a9e711420743f49e6833241d17c61fb3c
 **********************************************************************************************************************************
 SETTING GEOMTYP        =    XYZ

 Variable memory set to  500000000 words,  buffer space 

 ZSYMEL=NOSYM

 SETTING BASIS          =    STO-3G


 Recomputing integrals since basis changed


 Using spherical harmonics

 Library entry C      S STO-3G               selected for orbital group  1
 Library entry C      P STO-3G               selected for orbital group  1
 Library entry H      S STO-3G               selected for orbital group  2


 PROGRAM * SEWARD (Integral evaluation for generally contracted gaussian basis sets)     Author: Roland Lindh, 1990

 Geometry written to block  1 of record 700


 Point group  C1  



 ATOMIC COORDINATES

 NR  ATOM    CHARGE       X              Y              Z

   1  C       6.00   -0.002759000    1.503239338    0.000000000
   2  C       6.00    0.042046406   -1.311280958    0.000000000
   3  H       1.00   -1.879918446   -2.128511918    0.000000000
   4  H       1.00   -0.175744530    2.554853029    1.752645391
   5  H       1.00   -0.175744530    2.554853029   -1.752645391
   6  H       1.00    0.997813188   -2.066434414    1.677396497
   7  H       1.00    0.997813188   -2.066434414   -1.677396497

 Bond lengths in Bohr (Angstrom)

 1-2  2.814876910  1-4  2.051238947  1-5  2.051238947  2-3  2.088495950  2-6  2.073018546
     ( 1.489568712)     ( 1.085468905)     ( 1.085468905)     ( 1.105184462)     ( 1.096994173)

 2-7  2.073018546
     ( 1.096994173)

 Bond angles

  1-2-3  112.12345176   1-2-6  111.81246303   1-2-7  111.81246303   2-1-4  120.92728687

  2-1-5  120.92728687   3-2-6  106.36442052   3-2-7  106.36442052   4-1-5  117.39421083

  6-2-7  108.02720793

 NUCLEAR CHARGE:                   17
 NUMBER OF PRIMITIVE AOS:          45
 NUMBER OF SYMMETRY AOS:           45
 NUMBER OF CONTRACTIONS:           15   (  15A   )
 NUMBER OF CORE ORBITALS:           2   (   2A   )
 NUMBER OF VALENCE ORBITALS:       13   (  13A   )


 NUCLEAR REPULSION ENERGY   36.86300145


 Eigenvalues of metric

         1 0.218E+00 0.272E+00 0.329E+00 0.377E+00 0.382E+00 0.392E+00 0.935E+00 0.955E+00


 Contracted 2-electron integrals neglected if value below      1.0D-11
 AO integral compression algorithm  1   Integral accuracy      1.0D-11

     0.262 MB (compressed) written to integral file (100.0%)


 NUMBER OF SORTED TWO-ELECTRON INTEGRALS:       7260.     BUFFER LENGTH:  32768
 NUMBER OF SEGMENTS:   1  SEGMENT LENGTH:       7260      RECORD LENGTH: 524288

 Memory used in sort:       0.56 MW

 SORT1 READ        9024. AND WROTE        6273. INTEGRALS IN      1 RECORDS. CPU TIME:     0.00 SEC, REAL TIME:     0.01 SEC
 SORT2 READ        6273. AND WROTE        7260. INTEGRALS IN      1 RECORDS. CPU TIME:     0.01 SEC, REAL TIME:     0.01 SEC

 FILE SIZES:   FILE 1:    30.3 MBYTE,  FILE 4:     4.2 MBYTE,   TOTAL:     34.5 MBYTE

 OPERATOR DM      FOR CENTER  0  COORDINATES:    0.000000    0.000000    0.000000


 **********************************************************************************************************************************
 DATASETS  * FILE   NREC   LENGTH (MB)   RECORD NAMES
              1      19       30.09       500      610      700      900      950      970     1000      129      960     1100   
                                          VAR    BASINP    GEOM    SYMINP    ZMAT    AOBASIS   BASIS     P2S    ABASIS      S 
                                         1400     1410     1200     1210     1080     1600     1650     1300     1700   
                                           T        V       H0       H01     AOSYM     SMH    MOLCAS    ERIS     OPER   

 PROGRAMS   *        TOTAL       INT
 CPU TIMES  *         0.34      0.20
 REAL TIME  *         0.82 SEC
 DISK USED  *        34.91 MB      
 **********************************************************************************************************************************

 Density functional group SOGGA11=XC-SOGGA11
 Functional: XC-SOGGA11(via MFM 1.6)                                           Gradient terms: 1
 Use grid at  1800.2

 Functional: XC-SOGGA11                Factor:  1.0000

 Generated new metagrid on record  1800.2 with target accuracy 1.0D-06 and 23794 points in CPU time    0.5
 Computed new grid on record 1800.1 in CPU time    0.5
   15985 words reserved for DFT integration

 PROGRAM * RKS-SCF (Restricted open shell Kohn-Sham)     Authors: W. Meyer, H.-J. Werner, P.J. Knowles, 1993

 NUMBER OF ELECTRONS:       9+    8-    SPACE SYMMETRY=1    SPIN SYMMETRY: Doublet 
 CONVERGENCE THRESHOLDS:    1.00E-05 (Density)    1.00E-06 (Energy)
 MAX. NUMBER OF ITERATIONS:       60
 INTERPOLATION TYPE:            DIIS
 INTERPOLATION STEPS:              2 (START)      1 (STEP)
 LEVEL SHIFTS:                 -0.60 (CLOSED) -0.30 (OPEN) 



 Use fine grid record 1800.2 for energy threshold  1.0D-06
 Orbital guess generated from atomic densities. Full valence occupancy:    9

 Molecular orbital dump at record        2100.2

 Initial alpha occupancy:   9
 Initial beta  occupancy:   8
 Wave function symmetry:    1

 ITERATION    DDIFF          GRAD             ENERGY        2-EL.EN.            DIPOLE MOMENTS         DIIS   ORB.
    1      0.000D+00      0.000D+00       -78.10417667    154.223297   -0.12858   -0.24112    0.00000    0    start
    2      0.000D+00      0.328D-01       -78.19517523    149.582285   -0.02775   -0.06947    0.00000    1    diag,B
    3      0.687D-01      0.443D-02       -78.19652539    149.998436   -0.03772   -0.08054    0.00000    2    diag,B
    4      0.741D-02      0.550D-03       -78.19659625    149.990090   -0.03891   -0.08280    0.00000    3    diag,B
    5      0.120D-02      0.196D-03       -78.19660972    149.989857   -0.03870   -0.08240    0.00000    4    diag,B
    6      0.595D-03      0.448D-04       -78.19661049    149.989412   -0.03858   -0.08218    0.00000    5    diag,B
    7      0.150D-03      0.802D-05       -78.19661051    149.989516   -0.03853   -0.08208    0.00000    6    fixocc
    8      0.245D-04      0.103D-05       -78.19661051    149.989516   -0.03853   -0.08210    0.00000    7    diag,B
    9      0.317D-05      0.112D-06       -78.19661051    149.989518   -0.03853   -0.08210    0.00000    0    orth

 Final alpha occupancy:   9
 Final beta  occupancy:   8

 !RKS STATE 1.1 Energy                -78.196610513976
 Nuclear energy                        36.86300145
 One-electron energy                 -177.32528981
 Two-electron energy                   74.99475886
 Density functional                   -12.72908101     XC-SOGGA11=-12.72908101
 Virial quotient                       -1.01405970
 !RKS STATE 1.1 Dipole moment          -0.03853342    -0.08209991     0.00000000
 Dipole moment /Debye                  -0.09793576    -0.20866348     0.00000000

 Orbital energies:

         1.1          2.1          3.1          4.1          5.1          6.1          7.1          8.1          9.1         10.1
     -9.740493    -9.696323    -0.630936    -0.495050    -0.357482    -0.320444    -0.294510    -0.268999    -0.088686     0.354397

        11.1
      0.364064

 HOMO      9.1    -0.088686 =      -2.4133eV
 LUMO     10.1     0.354397 =       9.6436eV
 LUMO-HOMO         0.443083 =      12.0569eV


 **********************************************************************************************************************************
 DATASETS  * FILE   NREC   LENGTH (MB)   RECORD NAMES
              1      20       30.85       500      610      700      900      950      970     1000      129      960     1100   
                                          VAR    BASINP    GEOM    SYMINP    ZMAT    AOBASIS   BASIS     P2S    ABASIS      S 
                                         1400     1410     1200     1210     1080     1600     1650     1300     1700     1800   
                                           T        V       H0       H01     AOSYM     SMH    MOLCAS    ERIS     OPER     GRID   

              2       5        2.86       700     1000      520     1800     2100   
                                         GEOM     BASIS   MCVARS    GRID      RKS  

 PROGRAMS   *        TOTAL        KS       INT
 CPU TIMES  *         2.13      1.79      0.20
 REAL TIME  *         2.95 SEC
 DISK USED  *        34.91 MB      
 **********************************************************************************************************************************


 PROGRAM * Intrinsic Basis Bonding Analysis (IBBA)          Author: G. Knizia

 Molecular orbitals read from record     2100.2  Type=RKS/CANONICAL (state 1.1)
 Fock matrix read from record            2100.2  Type=RKS/TOTAL (state 1.1)
 Orbital energies read from record       2100.2  Type=RKS/CANONICAL (state 1.1)
 Density matrix read from record         2100.2  Type=RKS/CHARGE (state 1.1)

 Number of core orbitals:           2 (   2 )
 Number of closed-shell orbitals:   6 (   6 )
 Number of active  orbitals:        1 (   1 )

 Basis set MINAO-AUTO-PP generated.      Number of basis functions:   15 

 Polarized AO type:                A = (O Ot + (1-O)(1-Ot)) P12
 Orthogonalization method:         Symmetric (Loewdin)
 Localization functional:          L = sum[A,i] <i|n_A|i>^4 -> max

 Localization group 1:   8 orbitals, occupancy  2.000
 Iterative localization: IB/PM,    6 iter; Final gradient 0.63E-08

 Bond order analysis:       [THRPRINT= 0.020]

   CEN ATOM   CEN ATOM     WIBERG.BO      RENORM.BO
     1   C  -   2   C       1.108252       2.018232
     1   C  -   5   H       0.970966       0.985200
     1   C  -   4   H       0.970966       0.985200
     1   C  -   3   H       0.041527       0.648758

     2   C  -   1   C       1.108252       2.018232
     2   C  -   7   H       0.950327       0.990094
     2   C  -   6   H       0.950327       0.990094
     2   C  -   3   H       0.916657       0.999124

     3   H  -   2   C       0.916657       0.999124
     3   H  -   1   C       0.041527       0.648758

     4   H  -   1   C       0.970966       0.985200

     5   H  -   1   C       0.970966       0.985200

     6   H  -   2   C       0.950327       0.990094

     7   H  -   2   C       0.950327       0.990094


 Valency analysis:

   CEN ATOM   TOT.VALENCE
     1   C       3.111968
     2   C       3.927676
     3   H       0.966247
     4   H       0.984681
     5   H       0.984681
     6   H       0.976655
     7   H       0.976655
 Localization group 2:   1 orbitals, occupancy  1.000
 Iterative localization: IB/PM,    1 iter; Final gradient 0.00E+00

 Bond order analysis:       [THRPRINT= 0.020]

   CEN ATOM   CEN ATOM     WIBERG.BO      RENORM.BO
     1   C  -   3   H       0.082865       0.500000


     3   H  -   1   C       0.082865       0.500000






 Valency analysis:

   CEN ATOM   TOT.VALENCE
     1   C       0.128181
     2   C       0.009011
     3   H       0.085031
     4   H       0.000231
     5   H       0.000231
     6   H       0.019384
     7   H       0.019384

 Total charge composition:

   CEN ATOM         s          p       ELECTRONS ->P.CHARGE
     1   C       3.03677    3.20473      6.24150   -0.24150
     2   C       2.99300    3.43804      6.43104   -0.43104
     3   H       0.86077                 0.86077    0.13923
     4   H       0.87635                 0.87635    0.12365
     5   H       0.87635                 0.87635    0.12365
     6   H       0.85700                 0.85700    0.14300
     7   H       0.85700                 0.85700    0.14300

 Total charge composition, AO contributions:

   CEN ATOM SHL      SPHERICAL COMPONENTS
     1   C  1s       1.99316
     1   C  2s       1.04362
     1   C  2p       1.00626    1.04740    1.15107

     2   C  1s       1.99184
     2   C  2s       1.00116
     2   C  2p       1.17113    1.08702    1.17989

     3   H  1s       0.86077

     4   H  1s       0.87635

     5   H  1s       0.87635

     6   H  1s       0.85700

     7   H  1s       0.85700

 Active orbital charges:

   CEN ATOM         s          p       ELECTRONS ->SPIN.DEN
     1   C       0.00348    0.92769      0.93117    0.93117
     2   C       0.00003    0.00450      0.00453    0.00453
     3   H       0.04450                 0.04450    0.04450
     4   H       0.00012                 0.00012    0.00012
     5   H       0.00012                 0.00012    0.00012
     6   H       0.00979                 0.00979    0.00979
     7   H       0.00979                 0.00979    0.00979

 Active orbital charges, AO contributions:

   CEN ATOM SHL      SPHERICAL COMPONENTS
     1   C  1s       0.00000
     1   C  2s       0.00348
     1   C  2p       0.92372    0.00397    0.00000

     2   C  1s       0.00000
     2   C  2s       0.00003
     2   C  2p       0.00438    0.00011    0.00000

     3   H  1s       0.04450

     4   H  1s       0.00012

     5   H  1s       0.00012

     6   H  1s       0.00979

     7   H  1s       0.00979

 Summary of localized orbital composition:   [THRPRINT= 0.020]

   ORB  GRP  ORB.ENERGY      CENTERS/CHARGES
     1   1    -9.629047      C  2   2.000
     2   1    -9.595635      C  1   2.000
     3   1    -0.492590      C  2   1.015   C  1   0.981
     4   1    -0.426161      C  1   1.123   H  4   0.871
     5   1    -0.426161      C  1   1.123   H  5   0.871
     6   1    -0.413444      C  2   1.132   H  3   0.813   C  1   0.053
     7   1    -0.410599      C  2   1.138   H  7   0.842   (other: 0.020)
     8   1    -0.410599      C  2   1.138   H  6   0.842   (other: 0.020)
     9   2    -0.030081      C  1   0.931   H  3   0.044   (other: 0.024)

 Localized orbitals saved to record      2100.2  (orbital set 2)


 **********************************************************************************************************************************
 DATASETS  * FILE   NREC   LENGTH (MB)   RECORD NAMES
              1      20       30.85       500      610      700      900      950      970     1000      129      960     1100   
                                          VAR    BASINP    GEOM    SYMINP    ZMAT    AOBASIS   BASIS     P2S    ABASIS      S 
                                         1400     1410     1200     1210     1080     1600     1650     1300     1700     1800   
                                           T        V       H0       H01     AOSYM     SMH    MOLCAS    ERIS     OPER     GRID   

              2       5        2.86       700     1000      520     1800     2100   
                                         GEOM     BASIS   MCVARS    GRID      RKS  

 PROGRAMS   *        TOTAL      IBBA        KS       INT
 CPU TIMES  *         2.16      0.02      1.79      0.20
 REAL TIME  *         3.07 SEC
 DISK USED  *        34.91 MB      
 **********************************************************************************************************************************
 Molecular orbitals read from record     2100.2  Type=RKS/LOCAL(IBO)  
 Occupation numbers read from record     2100.2  Type=RKS/LOCAL(IBO)  
 Orbital energies read from record       2100.2  Type=RKS/LOCAL(IBO)  
 Redundancy group numbers read from rec  2100.2  Type=RKS/LOCAL(IBO)  

 IBBA/STO-3G energy=      0.000000000000

        KS-SCF  
    -78.19661051
 **********************************************************************************************************************************
 Molpro calculation terminated
