
 Primary working directories    : /tmp/sb13343
 Secondary working directories  : /tmp/sb13343
 Wavefunction directory         : /panfs/panasas01/chem/sb13343/wfu/
 Main file repository           : /tmp/sb13343/

 SHA1      : b4a5b34a9e711420743f49e6833241d17c61fb3c
 NAME      : 2099.9.b4a5b34
 ARCHNAME  : linux/x86_64_openmp
 FC        : /cm/shared/languages/GCC-6.1/bin/gfortran
 BLASLIB   : -lblas
 id        : simonbennie

 Nodes     nprocs
 node32-007    1

 Using customized tuning parameters: mindgm=1; mindgv=20; mindgc=4; mindgr=1; noblas=0; minvec=7
 default implementation of scratch files=df  

 memory,500,m
 geomtyp=xyz
 nosym
 noorient
 geometry={
 C         -0.00146        0.79548        0.00000
 C          0.02225       -0.69390        0.00000
 H         -0.99481       -1.12636        0.00000
 H         -0.09300        1.35197        0.92746
 H         -0.09300        1.35197       -0.92746
 H          0.52802       -1.09351        0.88764
 H          0.52802       -1.09351       -0.88764
 }
 basis={ default,sto-3g }
 {uks,LDA,direct;wf,17,1,1}
 {ibba,bonds=1}

 Variables initialized (895), CPU time= 0.00 sec
 Commands  initialized (725), CPU time= 0.02 sec, 591 directives.
 Default parameters read. Elapsed time= 0.08 sec

 Checking input...
 Passed
1


                                         ***  PROGRAM SYSTEM MOLPRO  ***
                                       Copyright, TTI GmbH Stuttgart, 2015
                                    Version 2099.9 linked May 26 2017 16:03:21


 **********************************************************************************************************************************
 LABEL *                                                                                 
  64 bit serial version                                                                  DATE: 08-Jun-17          TIME: 04:39:09  
 **********************************************************************************************************************************

 SHA1:             b4a5b34a9e711420743f49e6833241d17c61fb3c
 **********************************************************************************************************************************
 SETTING GEOMTYP        =    XYZ

 Variable memory set to  500000000 words,  buffer space 

 ZSYMEL=NOSYM

 SETTING BASIS          =    STO-3G


 Recomputing integrals since basis changed


 Using spherical harmonics

 Library entry C      S STO-3G               selected for orbital group  1
 Library entry C      P STO-3G               selected for orbital group  1
 Library entry H      S STO-3G               selected for orbital group  2


 PROGRAM * SEWARD (Integral evaluation for generally contracted gaussian basis sets)     Author: Roland Lindh, 1990

 Geometry written to block  1 of record 700


 Point group  C1  



 ATOMIC COORDINATES

 NR  ATOM    CHARGE       X              Y              Z

   1  C       6.00   -0.002759000    1.503239338    0.000000000
   2  C       6.00    0.042046406   -1.311280958    0.000000000
   3  H       1.00   -1.879918446   -2.128511918    0.000000000
   4  H       1.00   -0.175744530    2.554853029    1.752645391
   5  H       1.00   -0.175744530    2.554853029   -1.752645391
   6  H       1.00    0.997813188   -2.066434414    1.677396497
   7  H       1.00    0.997813188   -2.066434414   -1.677396497

 Bond lengths in Bohr (Angstrom)

 1-2  2.814876910  1-4  2.051238947  1-5  2.051238947  2-3  2.088495950  2-6  2.073018546
     ( 1.489568712)     ( 1.085468905)     ( 1.085468905)     ( 1.105184462)     ( 1.096994173)

 2-7  2.073018546
     ( 1.096994173)

 Bond angles

  1-2-3  112.12345176   1-2-6  111.81246303   1-2-7  111.81246303   2-1-4  120.92728687

  2-1-5  120.92728687   3-2-6  106.36442052   3-2-7  106.36442052   4-1-5  117.39421083

  6-2-7  108.02720793

 NUCLEAR CHARGE:                   17
 NUMBER OF PRIMITIVE AOS:          45
 NUMBER OF SYMMETRY AOS:           45
 NUMBER OF CONTRACTIONS:           15   (  15A   )
 NUMBER OF CORE ORBITALS:           2   (   2A   )
 NUMBER OF VALENCE ORBITALS:       13   (  13A   )


 NUCLEAR REPULSION ENERGY   36.86300145


 Eigenvalues of metric

         1 0.218E+00 0.272E+00 0.329E+00 0.377E+00 0.382E+00 0.392E+00 0.935E+00 0.955E+00


 Contracted 2-electron integrals neglected if value below      1.0D-11
 AO integral compression algorithm  1   Integral accuracy      1.0D-11

     0.262 MB (compressed) written to integral file (100.0%)


 NUMBER OF SORTED TWO-ELECTRON INTEGRALS:       7260.     BUFFER LENGTH:  32768
 NUMBER OF SEGMENTS:   1  SEGMENT LENGTH:       7260      RECORD LENGTH: 524288

 Memory used in sort:       0.56 MW

 SORT1 READ        9024. AND WROTE        6273. INTEGRALS IN      1 RECORDS. CPU TIME:     0.00 SEC, REAL TIME:     0.00 SEC
 SORT2 READ        6273. AND WROTE        7260. INTEGRALS IN      1 RECORDS. CPU TIME:     0.01 SEC, REAL TIME:     0.01 SEC

 FILE SIZES:   FILE 1:    30.3 MBYTE,  FILE 4:     4.2 MBYTE,   TOTAL:     34.5 MBYTE

 OPERATOR DM      FOR CENTER  0  COORDINATES:    0.000000    0.000000    0.000000


 **********************************************************************************************************************************
 DATASETS  * FILE   NREC   LENGTH (MB)   RECORD NAMES
              1      19       30.09       500      610      700      900      950      970     1000      129      960     1100   
                                          VAR    BASINP    GEOM    SYMINP    ZMAT    AOBASIS   BASIS     P2S    ABASIS      S 
                                         1400     1410     1200     1210     1080     1600     1650     1300     1700   
                                           T        V       H0       H01     AOSYM     SMH    MOLCAS    ERIS     OPER   

 PROGRAMS   *        TOTAL       INT
 CPU TIMES  *         0.38      0.24
 REAL TIME  *         0.67 SEC
 DISK USED  *        34.91 MB      
 **********************************************************************************************************************************

 Density functional group LDA=DIRAC+VWN5
 Functional: DIRAC(Automatically generated (new) DIRAC)                        Gradient terms: 0
 Functional: VWN5(Automatically generated (new) VWN5)                          Gradient terms: 0
 Use grid at  1800.2

 Functional: DIRAC                     Factor:  1.0000
 Functional: VWN5                      Factor:  1.0000

 Generated new metagrid on record  1800.2 with target accuracy 1.0D-06 and 23794 points in CPU time    0.5
 Computed new grid on record 1800.1 in CPU time    0.6
   10270 words reserved for DFT integration

 PROGRAM * UKS-SCF (Unrestricted Kohn-Sham)     Authors: W. Meyer, H.-J. Werner, P.J. Knowles, 1993

 NUMBER OF ELECTRONS:       9+    8-    SPACE SYMMETRY=1    SPIN SYMMETRY: Doublet 
 CONVERGENCE THRESHOLDS:    1.00E-05 (Density)    1.00E-06 (Energy)
 MAX. NUMBER OF ITERATIONS:       60
 INTERPOLATION TYPE:            DIIS
 INTERPOLATION STEPS:              2 (START)      1 (STEP)
 LEVEL SHIFTS:                 -0.20 (ALPHA)  -0.20 (BETA) 



 Use fine grid record 1800.2 for energy threshold  1.0D-06
 Orbital guess generated from atomic densities. Full valence occupancy:    9

 Molecular orbital dump at record        2200.2

 Initial alpha occupation   9
 Initial beta  occupation   8

 ITERATION    DDIFF          GRAD             ENERGY        2-EL.EN.            DIPOLE MOMENTS         DIIS
    1      0.000D+00      0.000D+00       -77.31020335    154.456836   -0.13194   -0.25891    0.00000    0
    2      0.758D-01      0.251D-01       -77.40299920    149.329845   -0.04204   -0.12637    0.00000    1
    3      0.135D-01      0.570D-02       -77.40759320    150.166157   -0.04575   -0.11408    0.00000    2
    4      0.155D-02      0.948D-03       -77.40779335    150.153894   -0.04449   -0.10714    0.00000    3
    5      0.913D-03      0.511D-03       -77.40787698    150.155180   -0.04252   -0.09845    0.00000    4
    6      0.309D-03      0.115D-03       -77.40788258    150.154301   -0.04226   -0.09663    0.00000    5
    7      0.520D-04      0.169D-04       -77.40788270    150.154206   -0.04223   -0.09641    0.00000    6
    8      0.701D-05      0.259D-05       -77.40788271    150.154278   -0.04223   -0.09640    0.00000    5
    9      0.114D-05      0.575D-06       -77.40788271    150.154223   -0.04223   -0.09640    0.00000    5

 Final alpha occupancy:   9
 Final beta  occupancy:   8

 !UKS STATE 1.1 Energy                -77.407882707092
 Nuclear energy                        36.86300145
 One-electron energy                 -177.40811724
 Two-electron energy                   75.07711150
 Density functional                   -11.93987841     DIRAC=-10.90328281 VWN5= -1.03659560
 Virial quotient                       -1.00481971
 !UKS STATE 1.1 Dipole moment          -0.04222922    -0.09639543     0.00000000
 Dipole moment /Debye                  -0.10732894    -0.24499669     0.00000000

 Orbital energies for positive spin:

         1.1          2.1          3.1          4.1          5.1          6.1          7.1          8.1          9.1         10.1
     -9.586498    -9.550158    -0.628821    -0.494925    -0.354684    -0.318158    -0.294123    -0.262161    -0.070264     0.363237

        11.1
      0.378657

 Orbital energies for negative spin:

         1.1          2.1          3.1          4.1          5.1          6.1          7.1          8.1          9.1         10.1
     -9.587413    -9.533173    -0.614209    -0.473339    -0.345530    -0.309089    -0.280765    -0.254799     0.019431     0.368870

        11.1
      0.405963

 HOMO      9.1    -0.070264 =      -1.9120eV
 LUMO     -9.1     0.019431 =       0.5287eV
 LUMO-HOMO         0.089695 =       2.4407eV

 EXPECTATION VALUE OF S**2:             0.75284857

 Occupation number threshold for canonical orbitals:  1.999000 (occupied),  0.001000 (virtual)

 Number of pseudo-canonical orbitals per symmetry:    8
 Number of active natural orbitals per symmetry:      1

 Natural orbitals saved to record    2200.2 (Orbital set 3)

 Orbital spaces for UNO-CAS (Min. occupation: 0.020  Max. occupation: 1.980):

 Closed:        8
 Active:        1


 **********************************************************************************************************************************
 DATASETS  * FILE   NREC   LENGTH (MB)   RECORD NAMES
              1      20       30.85       500      610      700      900      950      970     1000      129      960     1100   
                                          VAR    BASINP    GEOM    SYMINP    ZMAT    AOBASIS   BASIS     P2S    ABASIS      S 
                                         1400     1410     1200     1210     1080     1600     1650     1300     1700     1800   
                                           T        V       H0       H01     AOSYM     SMH    MOLCAS    ERIS     OPER     GRID   

              2       5        2.86       700     1000      520     1800     2200   
                                         GEOM     BASIS   MCVARS    GRID      UKS  

 PROGRAMS   *        TOTAL       UKS       INT
 CPU TIMES  *         1.64      1.26      0.24
 REAL TIME  *         2.00 SEC
 DISK USED  *        34.91 MB      
 **********************************************************************************************************************************


 PROGRAM * Intrinsic Basis Bonding Analysis (IBBA)          Author: G. Knizia

 Molecular orbitals read from record     2200.2  Type=UKS/ALPHA (state 1.1)
 Fock matrix read from record            2200.2  Type=UKS/TOTAL (state 1.1)
 Orbital energies read from record       2200.2  Type=UKS/ALPHA (state 1.1)
 Density matrix read from record         2200.2  Type=UKS/CHARGE (state 1.1)

 Number of core orbitals:           2 (   2 )
 Number of closed-shell orbitals:   6 (   6 )
 Number of active  orbitals:        1 (   1 )

 Basis set MINAO-AUTO-PP generated.      Number of basis functions:   15 

 Polarized AO type:                A = (O Ot + (1-O)(1-Ot)) P12
 Orthogonalization method:         Symmetric (Loewdin)
 Localization functional:          L = sum[A,i] <i|n_A|i>^4 -> max

 Localization group 1:   8 orbitals, occupancy  2.000
 Iterative localization: IB/PM,    6 iter; Final gradient 0.64E-08

 Bond order analysis:       [THRPRINT= 0.020]

   CEN ATOM   CEN ATOM     WIBERG.BO      RENORM.BO
     1   C  -   2   C       1.187283       2.017466
     1   C  -   5   H       0.960133       0.985086
     1   C  -   4   H       0.960133       0.985086
     1   C  -   3   H       0.073037       0.623900

     2   C  -   1   C       1.187283       2.017466
     2   C  -   7   H       0.936861       0.989882
     2   C  -   6   H       0.936861       0.989882
     2   C  -   3   H       0.867625       0.999012

     3   H  -   2   C       0.867625       0.999012
     3   H  -   1   C       0.073037       0.623900

     4   H  -   1   C       0.960133       0.985086

     5   H  -   1   C       0.960133       0.985086

     6   H  -   2   C       0.936861       0.989882

     7   H  -   2   C       0.936861       0.989882


 Valency analysis:

   CEN ATOM   TOT.VALENCE
     1   C       3.215882
     2   C       3.931041
     3   H       0.953900
     4   H       0.974068
     5   H       0.974068
     6   H       0.972820
     7   H       0.972820
 Localization group 2:   1 orbitals, occupancy  1.000
 Iterative localization: IB/PM,    1 iter; Final gradient 0.00E+00

 Bond order analysis:       [THRPRINT= 0.020]

   CEN ATOM   CEN ATOM     WIBERG.BO      RENORM.BO
     1   C  -   3   H       0.112120       0.500000
     1   C  -   2   C       0.028131       0.500000
     1   C  -   6   H       0.025231       0.500000
     1   C  -   7   H       0.025231       0.500000

     2   C  -   1   C       0.028131       0.500000

     3   H  -   1   C       0.112120       0.500000



     6   H  -   1   C       0.025231       0.500000

     7   H  -   1   C       0.025231       0.500000


 Valency analysis:

   CEN ATOM   TOT.VALENCE
     1   C       0.191483
     2   C       0.031014
     3   H       0.117702
     4   H       0.000431
     5   H       0.000431
     6   H       0.027862
     7   H       0.027862

 Total charge composition:

   CEN ATOM         s          p       ELECTRONS ->P.CHARGE
     1   C       3.06870    3.30747      6.37617   -0.37617
     2   C       2.98148    3.41737      6.39885   -0.39885
     3   H       0.84808                 0.84808    0.15192
     4   H       0.83918                 0.83918    0.16082
     5   H       0.83918                 0.83918    0.16082
     6   H       0.84927                 0.84927    0.15073
     7   H       0.84927                 0.84927    0.15073

 Total charge composition, AO contributions:

   CEN ATOM SHL      SPHERICAL COMPONENTS
     1   C  1s       1.99372
     1   C  2s       1.07497
     1   C  2p       1.03833    1.07961    1.18953

     2   C  1s       1.99261
     2   C  2s       0.98886
     2   C  2p       1.16215    1.06802    1.18720

     3   H  1s       0.84808

     4   H  1s       0.83918

     5   H  1s       0.83918

     6   H  1s       0.84927

     7   H  1s       0.84927

 Active orbital charges:

   CEN ATOM         s          p       ELECTRONS ->SPIN.DEN
     1   C       0.00263    0.89012      0.89276    0.89276
     2   C       0.00005    0.01571      0.01576    0.01576
     3   H       0.06279                 0.06279    0.06279
     4   H       0.00022                 0.00022    0.00022
     5   H       0.00022                 0.00022    0.00022
     6   H       0.01413                 0.01413    0.01413
     7   H       0.01413                 0.01413    0.01413

 Active orbital charges, AO contributions:

   CEN ATOM SHL      SPHERICAL COMPONENTS
     1   C  1s       0.00000
     1   C  2s       0.00263
     1   C  2p       0.88648    0.00365    0.00000

     2   C  1s       0.00000
     2   C  2s       0.00005
     2   C  2p       0.01552    0.00018    0.00000

     3   H  1s       0.06279

     4   H  1s       0.00022

     5   H  1s       0.00022

     6   H  1s       0.01413

     7   H  1s       0.01413

 Summary of localized orbital composition:   [THRPRINT= 0.020]

   ORB  GRP  ORB.ENERGY      CENTERS/CHARGES
     1   1    -9.478249      C  2   2.000
     2   1    -9.439632      C  1   2.000
     3   1    -0.485317      C  1   1.009   C  2   0.986
     4   1    -0.416320      C  1   1.161   H  5   0.834
     5   1    -0.416320      C  1   1.161   H  4   0.834
     6   1    -0.405104      C  2   1.115   H  3   0.780   C  1   0.102
     7   1    -0.400519      C  2   1.139   H  7   0.829   C  1   0.025
     8   1    -0.400519      C  2   1.139   H  6   0.829   C  1   0.025
     9   2    -0.025936      C  1   0.893   H  3   0.063   (other: 0.044)

 Localized orbitals saved to record      2200.2  (orbital set 4)


 **********************************************************************************************************************************
 DATASETS  * FILE   NREC   LENGTH (MB)   RECORD NAMES
              1      20       30.85       500      610      700      900      950      970     1000      129      960     1100   
                                          VAR    BASINP    GEOM    SYMINP    ZMAT    AOBASIS   BASIS     P2S    ABASIS      S 
                                         1400     1410     1200     1210     1080     1600     1650     1300     1700     1800   
                                           T        V       H0       H01     AOSYM     SMH    MOLCAS    ERIS     OPER     GRID   

              2       5        2.87       700     1000      520     1800     2200   
                                         GEOM     BASIS   MCVARS    GRID      UKS  

 PROGRAMS   *        TOTAL      IBBA       UKS       INT
 CPU TIMES  *         1.67      0.02      1.26      0.24
 REAL TIME  *         2.06 SEC
 DISK USED  *        34.91 MB      
 **********************************************************************************************************************************
 Molecular orbitals read from record     2200.2  Type=UKS/LOCAL(IBO)  
 Occupation numbers read from record     2200.2  Type=UKS/LOCAL(IBO)  
 Orbital energies read from record       2200.2  Type=UKS/LOCAL(IBO)  
 Redundancy group numbers read from rec  2200.2  Type=UKS/BETA (state 1.1)

 IBBA/STO-3G energy=      0.000000000000

        UKS-SCF 
    -77.40788271
 **********************************************************************************************************************************
 Molpro calculation terminated
