
 Primary working directories    : /tmp/sb13343
 Secondary working directories  : /tmp/sb13343
 Wavefunction directory         : /panfs/panasas01/chem/sb13343/wfu/
 Main file repository           : /tmp/sb13343/

 SHA1      : b4a5b34a9e711420743f49e6833241d17c61fb3c
 NAME      : 2099.9.b4a5b34
 ARCHNAME  : linux/x86_64_openmp
 FC        : /cm/shared/languages/GCC-6.1/bin/gfortran
 BLASLIB   : -lblas
 id        : simonbennie

 Nodes     nprocs
 node32-007    1

 Using customized tuning parameters: mindgm=1; mindgv=20; mindgc=4; mindgr=1; noblas=0; minvec=7
 default implementation of scratch files=df  

 memory,500,m
 geomtyp=xyz
 nosym
 noorient
 geometry={
 C         -0.00146        0.79548        0.00000
 C          0.02225       -0.69390        0.00000
 H         -0.99481       -1.12636        0.00000
 H         -0.09300        1.35197        0.92746
 H         -0.09300        1.35197       -0.92746
 H          0.52802       -1.09351        0.88764
 H          0.52802       -1.09351       -0.88764
 }
 basis={ default,sto-3g }
 {uks,M06-2X,direct;wf,17,1,1}
 {ibba,bonds=1}

 Variables initialized (895), CPU time= 0.01 sec
 Commands  initialized (725), CPU time= 0.01 sec, 591 directives.
 Default parameters read. Elapsed time= 0.08 sec

 Checking input...
 Passed
1


                                         ***  PROGRAM SYSTEM MOLPRO  ***
                                       Copyright, TTI GmbH Stuttgart, 2015
                                    Version 2099.9 linked May 26 2017 16:03:21


 **********************************************************************************************************************************
 LABEL *                                                                                 
  64 bit serial version                                                                  DATE: 08-Jun-17          TIME: 04:48:45  
 **********************************************************************************************************************************

 SHA1:             b4a5b34a9e711420743f49e6833241d17c61fb3c
 **********************************************************************************************************************************
 SETTING GEOMTYP        =    XYZ

 Variable memory set to  500000000 words,  buffer space 

 ZSYMEL=NOSYM

 SETTING BASIS          =    STO-3G


 Recomputing integrals since basis changed


 Using spherical harmonics

 Library entry C      S STO-3G               selected for orbital group  1
 Library entry C      P STO-3G               selected for orbital group  1
 Library entry H      S STO-3G               selected for orbital group  2


 PROGRAM * SEWARD (Integral evaluation for generally contracted gaussian basis sets)     Author: Roland Lindh, 1990

 Geometry written to block  1 of record 700


 Point group  C1  



 ATOMIC COORDINATES

 NR  ATOM    CHARGE       X              Y              Z

   1  C       6.00   -0.002759000    1.503239338    0.000000000
   2  C       6.00    0.042046406   -1.311280958    0.000000000
   3  H       1.00   -1.879918446   -2.128511918    0.000000000
   4  H       1.00   -0.175744530    2.554853029    1.752645391
   5  H       1.00   -0.175744530    2.554853029   -1.752645391
   6  H       1.00    0.997813188   -2.066434414    1.677396497
   7  H       1.00    0.997813188   -2.066434414   -1.677396497

 Bond lengths in Bohr (Angstrom)

 1-2  2.814876910  1-4  2.051238947  1-5  2.051238947  2-3  2.088495950  2-6  2.073018546
     ( 1.489568712)     ( 1.085468905)     ( 1.085468905)     ( 1.105184462)     ( 1.096994173)

 2-7  2.073018546
     ( 1.096994173)

 Bond angles

  1-2-3  112.12345176   1-2-6  111.81246303   1-2-7  111.81246303   2-1-4  120.92728687

  2-1-5  120.92728687   3-2-6  106.36442052   3-2-7  106.36442052   4-1-5  117.39421083

  6-2-7  108.02720793

 NUCLEAR CHARGE:                   17
 NUMBER OF PRIMITIVE AOS:          45
 NUMBER OF SYMMETRY AOS:           45
 NUMBER OF CONTRACTIONS:           15   (  15A   )
 NUMBER OF CORE ORBITALS:           2   (   2A   )
 NUMBER OF VALENCE ORBITALS:       13   (  13A   )


 NUCLEAR REPULSION ENERGY   36.86300145


 Eigenvalues of metric

         1 0.218E+00 0.272E+00 0.329E+00 0.377E+00 0.382E+00 0.392E+00 0.935E+00 0.955E+00


 Contracted 2-electron integrals neglected if value below      1.0D-11
 AO integral compression algorithm  1   Integral accuracy      1.0D-11

     0.262 MB (compressed) written to integral file (100.0%)


 NUMBER OF SORTED TWO-ELECTRON INTEGRALS:       7260.     BUFFER LENGTH:  32768
 NUMBER OF SEGMENTS:   1  SEGMENT LENGTH:       7260      RECORD LENGTH: 524288

 Memory used in sort:       0.56 MW

 SORT1 READ        9024. AND WROTE        6273. INTEGRALS IN      1 RECORDS. CPU TIME:     0.00 SEC, REAL TIME:     0.01 SEC
 SORT2 READ        6273. AND WROTE        7260. INTEGRALS IN      1 RECORDS. CPU TIME:     0.00 SEC, REAL TIME:     0.00 SEC

 FILE SIZES:   FILE 1:    30.3 MBYTE,  FILE 4:     4.2 MBYTE,   TOTAL:     34.5 MBYTE

 OPERATOR DM      FOR CENTER  0  COORDINATES:    0.000000    0.000000    0.000000


 **********************************************************************************************************************************
 DATASETS  * FILE   NREC   LENGTH (MB)   RECORD NAMES
              1      19       30.09       500      610      700      900      950      970     1000      129      960     1100   
                                          VAR    BASINP    GEOM    SYMINP    ZMAT    AOBASIS   BASIS     P2S    ABASIS      S 
                                         1400     1410     1200     1210     1080     1600     1650     1300     1700   
                                           T        V       H0       H01     AOSYM     SMH    MOLCAS    ERIS     OPER   

 PROGRAMS   *        TOTAL       INT
 CPU TIMES  *         0.50      0.34
 REAL TIME  *         0.96 SEC
 DISK USED  *        34.91 MB      
 **********************************************************************************************************************************

 Density functional group M06-2X=XC-M06-2X
 Functional: XC-M06-2X(via MFM 1.6)                                            Gradient terms: 1
 Use grid at  1800.2


 Exact exchange will be calculated, factor:  0.5400

 Functional: XC-M06-2X                 Factor:  1.0000

 Generated new metagrid on record  1800.2 with target accuracy 1.0D-06 and 23794 points in CPU time    0.5
 Computed new grid on record 1800.1 in CPU time    0.6
   15985 words reserved for DFT integration

 PROGRAM * UKS-SCF (Unrestricted Kohn-Sham)     Authors: W. Meyer, H.-J. Werner, P.J. Knowles, 1993

 NUMBER OF ELECTRONS:       9+    8-    SPACE SYMMETRY=1    SPIN SYMMETRY: Doublet 
 CONVERGENCE THRESHOLDS:    1.00E-05 (Density)    1.00E-06 (Energy)
 MAX. NUMBER OF ITERATIONS:       60
 INTERPOLATION TYPE:            DIIS
 INTERPOLATION STEPS:              2 (START)      1 (STEP)
 LEVEL SHIFTS:                 -0.20 (ALPHA)  -0.20 (BETA) 



 Use fine grid record 1800.2 for energy threshold  1.0D-06
 Orbital guess generated from atomic densities. Full valence occupancy:    9

 Molecular orbital dump at record        2200.2

 Initial alpha occupation   9
 Initial beta  occupation   8

 ITERATION    DDIFF          GRAD             ENERGY        2-EL.EN.            DIPOLE MOMENTS         DIIS
    1      0.000D+00      0.000D+00       -78.11842833    139.775937   -0.11207   -0.23482    0.00000    0
    2      0.464D-01      0.191D-01       -78.17602411    136.712309   -0.04950   -0.11971    0.00000    1
    3      0.349D-02      0.336D-02       -78.17786804    136.628107   -0.03797   -0.08417    0.00000    2
    4      0.246D-02      0.159D-02       -78.17865924    136.604390   -0.03202   -0.06443    0.00000    3
    5      0.132D-02      0.652D-03       -78.17880689    136.604822   -0.02918   -0.05579    0.00000    4
    6      0.312D-03      0.110D-03       -78.17881158    136.603505   -0.02878   -0.05544    0.00000    5
    7      0.476D-04      0.232D-04       -78.17881178    136.603910   -0.02870   -0.05541    0.00000    6
    8      0.115D-04      0.705D-05       -78.17881180    136.603843   -0.02867   -0.05539    0.00000    6
    9      0.296D-05      0.149D-05       -78.17881180    136.603881   -0.02866   -0.05539    0.00000    6
   10      0.755D-06      0.396D-06       -78.17881180    136.603877   -0.02866   -0.05538    0.00000    5

 Final alpha occupancy:   9
 Final beta  occupancy:   8

 !UKS STATE 1.1 Energy                -78.178811803538
 Nuclear energy                        36.86300145
 One-electron energy                 -177.21436232
 Two-electron energy                   68.30193835
 Density functional                    -6.12938928     XC-M06-2X=-6.12938928
 Virial quotient                       -1.01324830
 !UKS STATE 1.1 Dipole moment          -0.02866299    -0.05538470     0.00000000
 Dipole moment /Debye                  -0.07284929    -0.14076464     0.00000000

 Orbital energies for positive spin:

         1.1          2.1          3.1          4.1          5.1          6.1          7.1          8.1          9.1         10.1
    -10.378114   -10.336964    -0.806934    -0.652956    -0.482725    -0.443224    -0.410219    -0.380732    -0.195684     0.468846

        11.1
      0.473933

 Orbital energies for negative spin:

         1.1          2.1          3.1          4.1          5.1          6.1          7.1          8.1          9.1         10.1
    -10.378770   -10.330210    -0.784655    -0.619481    -0.472224    -0.426134    -0.396414    -0.375293     0.143032     0.479931

        11.1
      0.519282

 HOMO      9.1    -0.195684 =      -5.3248eV
 LUMO     -9.1     0.143032 =       3.8921eV
 LUMO-HOMO         0.338716 =       9.2169eV

 EXPECTATION VALUE OF S**2:             0.75580001

 Occupation number threshold for canonical orbitals:  1.999000 (occupied),  0.001000 (virtual)

 Number of pseudo-canonical orbitals per symmetry:    7
 Number of active natural orbitals per symmetry:      3

 Natural orbitals saved to record    2200.2 (Orbital set 3)

 Orbital spaces for UNO-CAS (Min. occupation: 0.020  Max. occupation: 1.980):

 Closed:        8
 Active:        1


 **********************************************************************************************************************************
 DATASETS  * FILE   NREC   LENGTH (MB)   RECORD NAMES
              1      20       30.85       500      610      700      900      950      970     1000      129      960     1100   
                                          VAR    BASINP    GEOM    SYMINP    ZMAT    AOBASIS   BASIS     P2S    ABASIS      S 
                                         1400     1410     1200     1210     1080     1600     1650     1300     1700     1800   
                                           T        V       H0       H01     AOSYM     SMH    MOLCAS    ERIS     OPER     GRID   

              2       5        2.86       700     1000      520     1800     2200   
                                         GEOM     BASIS   MCVARS    GRID      UKS  

 PROGRAMS   *        TOTAL       UKS       INT
 CPU TIMES  *         3.83      3.33      0.34
 REAL TIME  *         4.40 SEC
 DISK USED  *        34.91 MB      
 **********************************************************************************************************************************


 PROGRAM * Intrinsic Basis Bonding Analysis (IBBA)          Author: G. Knizia

 Molecular orbitals read from record     2200.2  Type=UKS/ALPHA (state 1.1)
 Fock matrix read from record            2200.2  Type=UKS/TOTAL (state 1.1)
 Orbital energies read from record       2200.2  Type=UKS/ALPHA (state 1.1)
 Density matrix read from record         2200.2  Type=UKS/CHARGE (state 1.1)

 Number of core orbitals:           2 (   2 )
 Number of closed-shell orbitals:   6 (   6 )
 Number of active  orbitals:        1 (   1 )

 Basis set MINAO-AUTO-PP generated.      Number of basis functions:   15 

 Polarized AO type:                A = (O Ot + (1-O)(1-Ot)) P12
 Orthogonalization method:         Symmetric (Loewdin)
 Localization functional:          L = sum[A,i] <i|n_A|i>^4 -> max

 Localization group 1:   8 orbitals, occupancy  2.000
 Iterative localization: IB/PM,    6 iter; Final gradient 0.43E-08

 Bond order analysis:       [THRPRINT= 0.020]

   CEN ATOM   CEN ATOM     WIBERG.BO      RENORM.BO
     1   C  -   2   C       1.220340       2.016232
     1   C  -   5   H       0.962719       0.986504
     1   C  -   4   H       0.962719       0.986504
     1   C  -   3   H       0.091244       0.625373
     1   C  -   6   H       0.021027       0.127743
     1   C  -   7   H       0.021027       0.127743

     2   C  -   1   C       1.220340       2.016232
     2   C  -   7   H       0.939424       0.990920
     2   C  -   6   H       0.939424       0.990920
     2   C  -   3   H       0.850027       0.998965

     3   H  -   2   C       0.850027       0.998965
     3   H  -   1   C       0.091244       0.625373

     4   H  -   1   C       0.962719       0.986504

     5   H  -   1   C       0.962719       0.986504

     6   H  -   2   C       0.939424       0.990920
     6   H  -   1   C       0.021027       0.127743

     7   H  -   2   C       0.939424       0.990920
     7   H  -   1   C       0.021027       0.127743


 Valency analysis:

   CEN ATOM   TOT.VALENCE
     1   C       3.279075
     2   C       3.951053
     3   H       0.956040
     4   H       0.975117
     5   H       0.975117
     6   H       0.977936
     7   H       0.977936
 Localization group 2:   1 orbitals, occupancy  1.000
 Iterative localization: IB/PM,    1 iter; Final gradient 0.00E+00

 Bond order analysis:       [THRPRINT= 0.020]

   CEN ATOM   CEN ATOM     WIBERG.BO      RENORM.BO
     1   C  -   3   H       0.118294       0.500000
     1   C  -   2   C       0.042820       0.500000
     1   C  -   6   H       0.026269       0.500000
     1   C  -   7   H       0.026269       0.500000

     2   C  -   1   C       0.042820       0.500000

     3   H  -   1   C       0.118294       0.500000



     6   H  -   1   C       0.026269       0.500000

     7   H  -   1   C       0.026269       0.500000


 Valency analysis:

   CEN ATOM   TOT.VALENCE
     1   C       0.214789
     2   C       0.047600
     3   H       0.125704
     4   H       0.000647
     5   H       0.000647
     6   H       0.029484
     7   H       0.029484

 Total charge composition:

   CEN ATOM         s          p       ELECTRONS ->P.CHARGE
     1   C       3.07916    3.32651      6.40567   -0.40567
     2   C       2.97397    3.34461      6.31858   -0.31858
     3   H       0.85773                 0.85773    0.14227
     4   H       0.84258                 0.84258    0.15742
     5   H       0.84258                 0.84258    0.15742
     6   H       0.86643                 0.86643    0.13357
     7   H       0.86643                 0.86643    0.13357

 Total charge composition, AO contributions:

   CEN ATOM SHL      SPHERICAL COMPONENTS
     1   C  1s       1.99241
     1   C  2s       1.08675
     1   C  2p       1.05924    1.08413    1.18314

     2   C  1s       1.99119
     2   C  2s       0.98278
     2   C  2p       1.13282    1.04554    1.16624

     3   H  1s       0.85773

     4   H  1s       0.84258

     5   H  1s       0.84258

     6   H  1s       0.86643

     7   H  1s       0.86643

 Active orbital charges:

   CEN ATOM         s          p       ELECTRONS ->SPIN.DEN
     1   C       0.00232    0.87531      0.87763    0.87763
     2   C       0.00005    0.02434      0.02439    0.02439
     3   H       0.06739                 0.06739    0.06739
     4   H       0.00032                 0.00032    0.00032
     5   H       0.00032                 0.00032    0.00032
     6   H       0.01497                 0.01497    0.01497
     7   H       0.01497                 0.01497    0.01497

 Active orbital charges, AO contributions:

   CEN ATOM SHL      SPHERICAL COMPONENTS
     1   C  1s       0.00000
     1   C  2s       0.00232
     1   C  2p       0.87176    0.00356    0.00000

     2   C  1s       0.00000
     2   C  2s       0.00005
     2   C  2p       0.02400    0.00034    0.00000

     3   H  1s       0.06739

     4   H  1s       0.00032

     5   H  1s       0.00032

     6   H  1s       0.01497

     7   H  1s       0.01497

 Summary of localized orbital composition:   [THRPRINT= 0.020]

   ORB  GRP  ORB.ENERGY      CENTERS/CHARGES
     1   1   -10.262050      C  2   2.000
     2   1   -10.222355      C  1   2.000
     3   1    -0.626268      C  1   1.025   C  2   0.972
     4   1    -0.556353      C  1   1.158   H  4   0.837
     5   1    -0.556353      C  1   1.158   H  5   0.837
     6   1    -0.535230      C  2   1.083   H  3   0.785   C  1   0.128
     7   1    -0.534910      C  2   1.117   H  7   0.846   C  1   0.030
     8   1    -0.534910      C  2   1.117   H  6   0.846   C  1   0.030
     9   2    -0.031075      C  1   0.878   H  3   0.067   C  2   0.024   (other: 0.031)

 Localized orbitals saved to record      2200.2  (orbital set 4)


 **********************************************************************************************************************************
 DATASETS  * FILE   NREC   LENGTH (MB)   RECORD NAMES
              1      20       30.85       500      610      700      900      950      970     1000      129      960     1100   
                                          VAR    BASINP    GEOM    SYMINP    ZMAT    AOBASIS   BASIS     P2S    ABASIS      S 
                                         1400     1410     1200     1210     1080     1600     1650     1300     1700     1800   
                                           T        V       H0       H01     AOSYM     SMH    MOLCAS    ERIS     OPER     GRID   

              2       5        2.87       700     1000      520     1800     2200   
                                         GEOM     BASIS   MCVARS    GRID      UKS  

 PROGRAMS   *        TOTAL      IBBA       UKS       INT
 CPU TIMES  *         3.85      0.02      3.33      0.34
 REAL TIME  *         4.47 SEC
 DISK USED  *        34.91 MB      
 **********************************************************************************************************************************
 Molecular orbitals read from record     2200.2  Type=UKS/LOCAL(IBO)  
 Occupation numbers read from record     2200.2  Type=UKS/LOCAL(IBO)  
 Orbital energies read from record       2200.2  Type=UKS/LOCAL(IBO)  
 Redundancy group numbers read from rec  2200.2  Type=UKS/BETA (state 1.1)

 IBBA/STO-3G energy=      0.000000000000

        UKS-SCF 
    -78.17881180
 **********************************************************************************************************************************
 Molpro calculation terminated
