
 Primary working directories    : /tmp/sb13343
 Secondary working directories  : /tmp/sb13343
 Wavefunction directory         : /panfs/panasas01/chem/sb13343/wfu/
 Main file repository           : /tmp/sb13343/

 SHA1      : b4a5b34a9e711420743f49e6833241d17c61fb3c
 NAME      : 2099.9.b4a5b34
 ARCHNAME  : linux/x86_64_openmp
 FC        : /cm/shared/languages/GCC-6.1/bin/gfortran
 BLASLIB   : -lblas
 id        : simonbennie

 Nodes     nprocs
 node35-048    1

 Using customized tuning parameters: mindgm=1; mindgv=20; mindgc=4; mindgr=1; noblas=0; minvec=7
 default implementation of scratch files=df  

 memory,500,m
 geomtyp=xyz
 nosym
 noorient
 geometry={
 C         -0.00146        0.79548        0.00000
 C          0.02225       -0.69390        0.00000
 H         -0.99481       -1.12636        0.00000
 H         -0.09300        1.35197        0.92746
 H         -0.09300        1.35197       -0.92746
 H          0.52802       -1.09351        0.88764
 H          0.52802       -1.09351       -0.88764
 }
 basis={ default,sto-3g }
 {uks,M06-L,direct;wf,17,1,1}
 {ibba,bonds=1}

 Variables initialized (895), CPU time= 0.01 sec
 Commands  initialized (725), CPU time= 0.01 sec, 591 directives.
 Default parameters read. Elapsed time= 0.13 sec

 Checking input...
 Passed
1


                                         ***  PROGRAM SYSTEM MOLPRO  ***
                                       Copyright, TTI GmbH Stuttgart, 2015
                                    Version 2099.9 linked May 26 2017 16:03:21


 **********************************************************************************************************************************
 LABEL *                                                                                 
  64 bit serial version                                                                  DATE: 08-Jun-17          TIME: 04:49:18  
 **********************************************************************************************************************************

 SHA1:             b4a5b34a9e711420743f49e6833241d17c61fb3c
 **********************************************************************************************************************************
 SETTING GEOMTYP        =    XYZ

 Variable memory set to  500000000 words,  buffer space 

 ZSYMEL=NOSYM

 SETTING BASIS          =    STO-3G


 Recomputing integrals since basis changed


 Using spherical harmonics

 Library entry C      S STO-3G               selected for orbital group  1
 Library entry C      P STO-3G               selected for orbital group  1
 Library entry H      S STO-3G               selected for orbital group  2


 PROGRAM * SEWARD (Integral evaluation for generally contracted gaussian basis sets)     Author: Roland Lindh, 1990

 Geometry written to block  1 of record 700


 Point group  C1  



 ATOMIC COORDINATES

 NR  ATOM    CHARGE       X              Y              Z

   1  C       6.00   -0.002759000    1.503239338    0.000000000
   2  C       6.00    0.042046406   -1.311280958    0.000000000
   3  H       1.00   -1.879918446   -2.128511918    0.000000000
   4  H       1.00   -0.175744530    2.554853029    1.752645391
   5  H       1.00   -0.175744530    2.554853029   -1.752645391
   6  H       1.00    0.997813188   -2.066434414    1.677396497
   7  H       1.00    0.997813188   -2.066434414   -1.677396497

 Bond lengths in Bohr (Angstrom)

 1-2  2.814876910  1-4  2.051238947  1-5  2.051238947  2-3  2.088495950  2-6  2.073018546
     ( 1.489568712)     ( 1.085468905)     ( 1.085468905)     ( 1.105184462)     ( 1.096994173)

 2-7  2.073018546
     ( 1.096994173)

 Bond angles

  1-2-3  112.12345176   1-2-6  111.81246303   1-2-7  111.81246303   2-1-4  120.92728687

  2-1-5  120.92728687   3-2-6  106.36442052   3-2-7  106.36442052   4-1-5  117.39421083

  6-2-7  108.02720793

 NUCLEAR CHARGE:                   17
 NUMBER OF PRIMITIVE AOS:          45
 NUMBER OF SYMMETRY AOS:           45
 NUMBER OF CONTRACTIONS:           15   (  15A   )
 NUMBER OF CORE ORBITALS:           2   (   2A   )
 NUMBER OF VALENCE ORBITALS:       13   (  13A   )


 NUCLEAR REPULSION ENERGY   36.86300145


 Eigenvalues of metric

         1 0.218E+00 0.272E+00 0.329E+00 0.377E+00 0.382E+00 0.392E+00 0.935E+00 0.955E+00


 Contracted 2-electron integrals neglected if value below      1.0D-11
 AO integral compression algorithm  1   Integral accuracy      1.0D-11

     0.262 MB (compressed) written to integral file (100.0%)


 NUMBER OF SORTED TWO-ELECTRON INTEGRALS:       7260.     BUFFER LENGTH:  32768
 NUMBER OF SEGMENTS:   1  SEGMENT LENGTH:       7260      RECORD LENGTH: 524288

 Memory used in sort:       0.56 MW

 SORT1 READ        9024. AND WROTE        6273. INTEGRALS IN      1 RECORDS. CPU TIME:     0.00 SEC, REAL TIME:     0.00 SEC
 SORT2 READ        6273. AND WROTE        7260. INTEGRALS IN      1 RECORDS. CPU TIME:     0.01 SEC, REAL TIME:     0.00 SEC

 FILE SIZES:   FILE 1:    30.3 MBYTE,  FILE 4:     4.2 MBYTE,   TOTAL:     34.5 MBYTE

 OPERATOR DM      FOR CENTER  0  COORDINATES:    0.000000    0.000000    0.000000


 **********************************************************************************************************************************
 DATASETS  * FILE   NREC   LENGTH (MB)   RECORD NAMES
              1      19       30.09       500      610      700      900      950      970     1000      129      960     1100   
                                          VAR    BASINP    GEOM    SYMINP    ZMAT    AOBASIS   BASIS     P2S    ABASIS      S 
                                         1400     1410     1200     1210     1080     1600     1650     1300     1700   
                                           T        V       H0       H01     AOSYM     SMH    MOLCAS    ERIS     OPER   

 PROGRAMS   *        TOTAL       INT
 CPU TIMES  *         0.35      0.20
 REAL TIME  *         0.78 SEC
 DISK USED  *        34.91 MB      
 **********************************************************************************************************************************

 Density functional group M06-L=XC-M06-L
 Functional: XC-M06-L(via MFM 1.6)                                             Gradient terms: 1
 Use grid at  1800.2

 Functional: XC-M06-L                  Factor:  1.0000

 Generated new metagrid on record  1800.2 with target accuracy 1.0D-06 and 23794 points in CPU time    0.5
 Computed new grid on record 1800.1 in CPU time    0.5
   15985 words reserved for DFT integration

 PROGRAM * UKS-SCF (Unrestricted Kohn-Sham)     Authors: W. Meyer, H.-J. Werner, P.J. Knowles, 1993

 NUMBER OF ELECTRONS:       9+    8-    SPACE SYMMETRY=1    SPIN SYMMETRY: Doublet 
 CONVERGENCE THRESHOLDS:    1.00E-05 (Density)    1.00E-06 (Energy)
 MAX. NUMBER OF ITERATIONS:       60
 INTERPOLATION TYPE:            DIIS
 INTERPOLATION STEPS:              2 (START)      1 (STEP)
 LEVEL SHIFTS:                 -0.20 (ALPHA)  -0.20 (BETA) 



 Use fine grid record 1800.2 for energy threshold  1.0D-06
 Orbital guess generated from atomic densities. Full valence occupancy:    9

 Molecular orbital dump at record        2200.2

 Initial alpha occupation   9
 Initial beta  occupation   8

 ITERATION    DDIFF          GRAD             ENERGY        2-EL.EN.            DIPOLE MOMENTS         DIIS
    1      0.000D+00      0.000D+00       -78.08449754    153.583820   -0.11815   -0.20831    0.00000    0
    2      0.637D-01      0.217D-01       -78.15811891    149.327920   -0.03870   -0.09817    0.00000    1
    3      0.801D-02      0.364D-02       -78.16037256    149.800521   -0.03655   -0.08732    0.00000    2
    4      0.158D-02      0.115D-02       -78.16084059    149.784000   -0.03244   -0.08007    0.00000    3
    5      0.111D-02      0.643D-03       -78.16098761    149.786860   -0.02863   -0.07257    0.00000    4
    6      0.176D-03      0.789D-04       -78.16099011    149.786119   -0.02818   -0.07111    0.00000    5
    7      0.242D-04      0.136D-04       -78.16099018    149.786016   -0.02809   -0.07109    0.00000    6
    8      0.526D-05      0.317D-05       -78.16099018    149.786053   -0.02805   -0.07109    0.00000    6
    9      0.146D-05      0.603D-06       -78.16099018    149.786029   -0.02805   -0.07109    0.00000    5

 Final alpha occupancy:   9
 Final beta  occupancy:   8

 !UKS STATE 1.1 Energy                -78.160990184725
 Nuclear energy                        36.86300145
 One-electron energy                 -177.22007595
 Two-electron energy                   74.89301435
 Density functional                   -12.69693004     XC-M06-L=-12.69693004
 Virial quotient                       -1.01308071
 !UKS STATE 1.1 Dipole moment          -0.02804747    -0.07108658     0.00000000
 Dipole moment /Debye                  -0.07128489    -0.18067223     0.00000000

 Orbital energies for positive spin:

         1.1          2.1          3.1          4.1          5.1          6.1          7.1          8.1          9.1         10.1
     -9.873437    -9.835035    -0.681812    -0.540488    -0.380858    -0.343502    -0.316990    -0.287193    -0.098667     0.363081

        11.1
      0.375105

 Orbital energies for negative spin:

         1.1          2.1          3.1          4.1          5.1          6.1          7.1          8.1          9.1         10.1
     -9.874429    -9.819474    -0.662228    -0.505785    -0.369273    -0.331152    -0.306384    -0.279516     0.064365     0.353979

        11.1
      0.390456

 HOMO      9.1    -0.098667 =      -2.6849eV
 LUMO     -9.1     0.064365 =       1.7515eV
 LUMO-HOMO         0.163032 =       4.4363eV

 EXPECTATION VALUE OF S**2:             0.75773512

 Occupation number threshold for canonical orbitals:  1.999000 (occupied),  0.001000 (virtual)

 Number of pseudo-canonical orbitals per symmetry:    6
 Number of active natural orbitals per symmetry:      5

 Natural orbitals saved to record    2200.2 (Orbital set 3)

 Orbital spaces for UNO-CAS (Min. occupation: 0.020  Max. occupation: 1.980):

 Closed:        8
 Active:        1


 **********************************************************************************************************************************
 DATASETS  * FILE   NREC   LENGTH (MB)   RECORD NAMES
              1      20       30.85       500      610      700      900      950      970     1000      129      960     1100   
                                          VAR    BASINP    GEOM    SYMINP    ZMAT    AOBASIS   BASIS     P2S    ABASIS      S 
                                         1400     1410     1200     1210     1080     1600     1650     1300     1700     1800   
                                           T        V       H0       H01     AOSYM     SMH    MOLCAS    ERIS     OPER     GRID   

              2       5        2.86       700     1000      520     1800     2200   
                                         GEOM     BASIS   MCVARS    GRID      UKS  

 PROGRAMS   *        TOTAL       UKS       INT
 CPU TIMES  *         3.46      3.11      0.20
 REAL TIME  *         4.10 SEC
 DISK USED  *        34.91 MB      
 **********************************************************************************************************************************


 PROGRAM * Intrinsic Basis Bonding Analysis (IBBA)          Author: G. Knizia

 Molecular orbitals read from record     2200.2  Type=UKS/ALPHA (state 1.1)
 Fock matrix read from record            2200.2  Type=UKS/TOTAL (state 1.1)
 Orbital energies read from record       2200.2  Type=UKS/ALPHA (state 1.1)
 Density matrix read from record         2200.2  Type=UKS/CHARGE (state 1.1)

 Number of core orbitals:           2 (   2 )
 Number of closed-shell orbitals:   6 (   6 )
 Number of active  orbitals:        1 (   1 )

 Basis set MINAO-AUTO-PP generated.      Number of basis functions:   15 

 Polarized AO type:                A = (O Ot + (1-O)(1-Ot)) P12
 Orthogonalization method:         Symmetric (Loewdin)
 Localization functional:          L = sum[A,i] <i|n_A|i>^4 -> max

 Localization group 1:   8 orbitals, occupancy  2.000
 Iterative localization: IB/PM,    6 iter; Final gradient 0.31E-08

 Bond order analysis:       [THRPRINT= 0.020]

   CEN ATOM   CEN ATOM     WIBERG.BO      RENORM.BO
     1   C  -   2   C       1.201384       2.018932
     1   C  -   5   H       0.958202       0.984356
     1   C  -   4   H       0.958202       0.984356
     1   C  -   3   H       0.080446       0.629730

     2   C  -   1   C       1.201384       2.018932
     2   C  -   7   H       0.941477       0.989076
     2   C  -   6   H       0.941477       0.989076
     2   C  -   3   H       0.864636       0.998879

     3   H  -   2   C       0.864636       0.998879
     3   H  -   1   C       0.080446       0.629730

     4   H  -   1   C       0.958202       0.984356

     5   H  -   1   C       0.958202       0.984356

     6   H  -   2   C       0.941477       0.989076

     7   H  -   2   C       0.941477       0.989076


 Valency analysis:

   CEN ATOM   TOT.VALENCE
     1   C       3.235643
     2   C       3.950649
     3   H       0.957048
     4   H       0.972052
     5   H       0.972052
     6   H       0.977914
     7   H       0.977914
 Localization group 2:   1 orbitals, occupancy  1.000
 Iterative localization: IB/PM,    1 iter; Final gradient 0.00E+00

 Bond order analysis:       [THRPRINT= 0.020]

   CEN ATOM   CEN ATOM     WIBERG.BO      RENORM.BO
     1   C  -   3   H       0.117354       0.500000
     1   C  -   2   C       0.030592       0.500000
     1   C  -   7   H       0.026697       0.500000
     1   C  -   6   H       0.026697       0.500000

     2   C  -   1   C       0.030592       0.500000

     3   H  -   1   C       0.117354       0.500000



     6   H  -   1   C       0.026697       0.500000

     7   H  -   1   C       0.026697       0.500000


 Valency analysis:

   CEN ATOM   TOT.VALENCE
     1   C       0.202404
     2   C       0.033942
     3   H       0.123715
     4   H       0.000600
     5   H       0.000600
     6   H       0.029687
     7   H       0.029687

 Total charge composition:

   CEN ATOM         s          p       ELECTRONS ->P.CHARGE
     1   C       3.10203    3.30942      6.41145   -0.41145
     2   C       2.99226    3.33813      6.33040   -0.33040
     3   H       0.85900                 0.85900    0.14100
     4   H       0.83312                 0.83312    0.16688
     5   H       0.83312                 0.83312    0.16688
     6   H       0.86646                 0.86646    0.13354
     7   H       0.86646                 0.86646    0.13354

 Total charge composition, AO contributions:

   CEN ATOM SHL      SPHERICAL COMPONENTS
     1   C  1s       1.99274
     1   C  2s       1.10928
     1   C  2p       1.04423    1.08085    1.18433

     2   C  1s       1.99147
     2   C  2s       1.00080
     2   C  2p       1.13724    1.04039    1.16050

     3   H  1s       0.85900

     4   H  1s       0.83312

     5   H  1s       0.83312

     6   H  1s       0.86646

     7   H  1s       0.86646

 Active orbital charges:

   CEN ATOM         s          p       ELECTRONS ->SPIN.DEN
     1   C       0.00239    0.88335      0.88574    0.88574
     2   C       0.00004    0.01723      0.01727    0.01727
     3   H       0.06625                 0.06625    0.06625
     4   H       0.00030                 0.00030    0.00030
     5   H       0.00030                 0.00030    0.00030
     6   H       0.01507                 0.01507    0.01507
     7   H       0.01507                 0.01507    0.01507

 Active orbital charges, AO contributions:

   CEN ATOM SHL      SPHERICAL COMPONENTS
     1   C  1s       0.00000
     1   C  2s       0.00239
     1   C  2p       0.87980    0.00355    0.00000

     2   C  1s       0.00000
     2   C  2s       0.00004
     2   C  2p       0.01693    0.00030    0.00000

     3   H  1s       0.06625

     4   H  1s       0.00030

     5   H  1s       0.00030

     6   H  1s       0.01507

     7   H  1s       0.01507

 Summary of localized orbital composition:   [THRPRINT= 0.020]

   ORB  GRP  ORB.ENERGY      CENTERS/CHARGES
     1   1    -9.760627      C  2   2.000
     2   1    -9.719455      C  1   2.000
     3   1    -0.519100      C  1   1.027   C  2   0.971
     4   1    -0.450001      C  1   1.167   H  4   0.828
     5   1    -0.450001      C  1   1.167   H  5   0.828
     6   1    -0.434735      C  2   1.097   H  3   0.788   C  1   0.111
     7   1    -0.432046      C  2   1.120   H  7   0.847   C  1   0.027
     8   1    -0.432046      C  2   1.120   H  6   0.847   C  1   0.027
     9   2    -0.018458      C  1   0.886   H  3   0.066   (other: 0.048)

 Localized orbitals saved to record      2200.2  (orbital set 4)


 **********************************************************************************************************************************
 DATASETS  * FILE   NREC   LENGTH (MB)   RECORD NAMES
              1      20       30.85       500      610      700      900      950      970     1000      129      960     1100   
                                          VAR    BASINP    GEOM    SYMINP    ZMAT    AOBASIS   BASIS     P2S    ABASIS      S 
                                         1400     1410     1200     1210     1080     1600     1650     1300     1700     1800   
                                           T        V       H0       H01     AOSYM     SMH    MOLCAS    ERIS     OPER     GRID   

              2       5        2.87       700     1000      520     1800     2200   
                                         GEOM     BASIS   MCVARS    GRID      UKS  

 PROGRAMS   *        TOTAL      IBBA       UKS       INT
 CPU TIMES  *         3.48      0.02      3.11      0.20
 REAL TIME  *         4.19 SEC
 DISK USED  *        34.91 MB      
 **********************************************************************************************************************************
 Molecular orbitals read from record     2200.2  Type=UKS/LOCAL(IBO)  
 Occupation numbers read from record     2200.2  Type=UKS/LOCAL(IBO)  
 Orbital energies read from record       2200.2  Type=UKS/LOCAL(IBO)  
 Redundancy group numbers read from rec  2200.2  Type=UKS/BETA (state 1.1)

 IBBA/STO-3G energy=      0.000000000000

        UKS-SCF 
    -78.16099018
 **********************************************************************************************************************************
 Molpro calculation terminated
