
 Primary working directories    : /tmp/sb13343
 Secondary working directories  : /tmp/sb13343
 Wavefunction directory         : /panfs/panasas01/chem/sb13343/wfu/
 Main file repository           : /tmp/sb13343/

 SHA1      : b4a5b34a9e711420743f49e6833241d17c61fb3c
 NAME      : 2099.9.b4a5b34
 ARCHNAME  : linux/x86_64_openmp
 FC        : /cm/shared/languages/GCC-6.1/bin/gfortran
 BLASLIB   : -lblas
 id        : simonbennie

 Nodes     nprocs
 node35-048    1

 Using customized tuning parameters: mindgm=1; mindgv=20; mindgc=4; mindgr=1; noblas=0; minvec=7
 default implementation of scratch files=df  

 memory,500,m
 geomtyp=xyz
 nosym
 noorient
 geometry={
 C         -0.00146        0.79548        0.00000
 C          0.02225       -0.69390        0.00000
 H         -0.99481       -1.12636        0.00000
 H         -0.09300        1.35197        0.92746
 H         -0.09300        1.35197       -0.92746
 H          0.52802       -1.09351        0.88764
 H          0.52802       -1.09351       -0.88764
 }
 basis={ default,sto-3g }
 {uks,SOGGA11,direct;wf,17,1,1}
 {ibba,bonds=1}

 Variables initialized (895), CPU time= 0.00 sec
 Commands  initialized (725), CPU time= 0.02 sec, 591 directives.
 Default parameters read. Elapsed time= 0.15 sec

 Checking input...
 Passed
1


                                         ***  PROGRAM SYSTEM MOLPRO  ***
                                       Copyright, TTI GmbH Stuttgart, 2015
                                    Version 2099.9 linked May 26 2017 16:03:21


 **********************************************************************************************************************************
 LABEL *                                                                                 
  64 bit serial version                                                                  DATE: 08-Jun-17          TIME: 04:50:53  
 **********************************************************************************************************************************

 SHA1:             b4a5b34a9e711420743f49e6833241d17c61fb3c
 **********************************************************************************************************************************
 SETTING GEOMTYP        =    XYZ

 Variable memory set to  500000000 words,  buffer space 

 ZSYMEL=NOSYM

 SETTING BASIS          =    STO-3G


 Recomputing integrals since basis changed


 Using spherical harmonics

 Library entry C      S STO-3G               selected for orbital group  1
 Library entry C      P STO-3G               selected for orbital group  1
 Library entry H      S STO-3G               selected for orbital group  2


 PROGRAM * SEWARD (Integral evaluation for generally contracted gaussian basis sets)     Author: Roland Lindh, 1990

 Geometry written to block  1 of record 700


 Point group  C1  



 ATOMIC COORDINATES

 NR  ATOM    CHARGE       X              Y              Z

   1  C       6.00   -0.002759000    1.503239338    0.000000000
   2  C       6.00    0.042046406   -1.311280958    0.000000000
   3  H       1.00   -1.879918446   -2.128511918    0.000000000
   4  H       1.00   -0.175744530    2.554853029    1.752645391
   5  H       1.00   -0.175744530    2.554853029   -1.752645391
   6  H       1.00    0.997813188   -2.066434414    1.677396497
   7  H       1.00    0.997813188   -2.066434414   -1.677396497

 Bond lengths in Bohr (Angstrom)

 1-2  2.814876910  1-4  2.051238947  1-5  2.051238947  2-3  2.088495950  2-6  2.073018546
     ( 1.489568712)     ( 1.085468905)     ( 1.085468905)     ( 1.105184462)     ( 1.096994173)

 2-7  2.073018546
     ( 1.096994173)

 Bond angles

  1-2-3  112.12345176   1-2-6  111.81246303   1-2-7  111.81246303   2-1-4  120.92728687

  2-1-5  120.92728687   3-2-6  106.36442052   3-2-7  106.36442052   4-1-5  117.39421083

  6-2-7  108.02720793

 NUCLEAR CHARGE:                   17
 NUMBER OF PRIMITIVE AOS:          45
 NUMBER OF SYMMETRY AOS:           45
 NUMBER OF CONTRACTIONS:           15   (  15A   )
 NUMBER OF CORE ORBITALS:           2   (   2A   )
 NUMBER OF VALENCE ORBITALS:       13   (  13A   )


 NUCLEAR REPULSION ENERGY   36.86300145


 Eigenvalues of metric

         1 0.218E+00 0.272E+00 0.329E+00 0.377E+00 0.382E+00 0.392E+00 0.935E+00 0.955E+00


 Contracted 2-electron integrals neglected if value below      1.0D-11
 AO integral compression algorithm  1   Integral accuracy      1.0D-11

     0.262 MB (compressed) written to integral file (100.0%)


 NUMBER OF SORTED TWO-ELECTRON INTEGRALS:       7260.     BUFFER LENGTH:  32768
 NUMBER OF SEGMENTS:   1  SEGMENT LENGTH:       7260      RECORD LENGTH: 524288

 Memory used in sort:       0.56 MW

 SORT1 READ        9024. AND WROTE        6273. INTEGRALS IN      1 RECORDS. CPU TIME:     0.00 SEC, REAL TIME:     0.00 SEC
 SORT2 READ        6273. AND WROTE        7260. INTEGRALS IN      1 RECORDS. CPU TIME:     0.01 SEC, REAL TIME:     0.01 SEC

 FILE SIZES:   FILE 1:    30.3 MBYTE,  FILE 4:     4.2 MBYTE,   TOTAL:     34.5 MBYTE

 OPERATOR DM      FOR CENTER  0  COORDINATES:    0.000000    0.000000    0.000000


 **********************************************************************************************************************************
 DATASETS  * FILE   NREC   LENGTH (MB)   RECORD NAMES
              1      19       30.09       500      610      700      900      950      970     1000      129      960     1100   
                                          VAR    BASINP    GEOM    SYMINP    ZMAT    AOBASIS   BASIS     P2S    ABASIS      S 
                                         1400     1410     1200     1210     1080     1600     1650     1300     1700   
                                           T        V       H0       H01     AOSYM     SMH    MOLCAS    ERIS     OPER   

 PROGRAMS   *        TOTAL       INT
 CPU TIMES  *         0.34      0.20
 REAL TIME  *         0.76 SEC
 DISK USED  *        34.91 MB      
 **********************************************************************************************************************************

 Density functional group SOGGA11=XC-SOGGA11
 Functional: XC-SOGGA11(via MFM 1.6)                                           Gradient terms: 1
 Use grid at  1800.2

 Functional: XC-SOGGA11                Factor:  1.0000

 Generated new metagrid on record  1800.2 with target accuracy 1.0D-06 and 23794 points in CPU time    0.5
 Computed new grid on record 1800.1 in CPU time    0.5
   15985 words reserved for DFT integration

 PROGRAM * UKS-SCF (Unrestricted Kohn-Sham)     Authors: W. Meyer, H.-J. Werner, P.J. Knowles, 1993

 NUMBER OF ELECTRONS:       9+    8-    SPACE SYMMETRY=1    SPIN SYMMETRY: Doublet 
 CONVERGENCE THRESHOLDS:    1.00E-05 (Density)    1.00E-06 (Energy)
 MAX. NUMBER OF ITERATIONS:       60
 INTERPOLATION TYPE:            DIIS
 INTERPOLATION STEPS:              2 (START)      1 (STEP)
 LEVEL SHIFTS:                 -0.20 (ALPHA)  -0.20 (BETA) 



 Use fine grid record 1800.2 for energy threshold  1.0D-06
 Orbital guess generated from atomic densities. Full valence occupancy:    9

 Molecular orbital dump at record        2200.2

 Initial alpha occupation   9
 Initial beta  occupation   8

 ITERATION    DDIFF          GRAD             ENERGY        2-EL.EN.            DIPOLE MOMENTS         DIIS
    1      0.000D+00      0.000D+00       -78.10417667    154.223297   -0.12858   -0.24112    0.00000    0
    2      0.730D-01      0.244D-01       -78.19414170    149.302825   -0.03912   -0.11178    0.00000    1
    3      0.115D-01      0.497D-02       -78.19766073    149.998241   -0.04126   -0.09785    0.00000    2
    4      0.155D-02      0.105D-02       -78.19795603    149.986682   -0.03981   -0.08998    0.00000    3
    5      0.976D-03      0.584D-03       -78.19807088    149.988436   -0.03815   -0.08232    0.00000    4
    6      0.286D-03      0.116D-03       -78.19807742    149.987087   -0.03809   -0.08121    0.00000    5
    7      0.414D-04      0.149D-04       -78.19807751    149.986948   -0.03805   -0.08110    0.00000    6
    8      0.485D-05      0.250D-05       -78.19807751    149.986970   -0.03807   -0.08111    0.00000    5
    9      0.126D-05      0.566D-06       -78.19807751    149.986934   -0.03806   -0.08111    0.00000    5

 Final alpha occupancy:   9
 Final beta  occupancy:   8

 !UKS STATE 1.1 Energy                -78.198077511506
 Nuclear energy                        36.86300145
 One-electron energy                 -177.32191232
 Two-electron energy                   74.99346699
 Density functional                   -12.73263363     XC-SOGGA11=-12.73263363
 Virial quotient                       -1.01403687
 !UKS STATE 1.1 Dipole moment          -0.03806419    -0.08110648     0.00000000
 Dipole moment /Debye                  -0.09674318    -0.20613860     0.00000000

 Orbital energies for positive spin:

         1.1          2.1          3.1          4.1          5.1          6.1          7.1          8.1          9.1         10.1
     -9.739532    -9.706516    -0.639204    -0.506330    -0.362351    -0.326090    -0.301418    -0.272406    -0.089288     0.355171

        11.1
      0.366233

 Orbital energies for negative spin:

         1.1          2.1          3.1          4.1          5.1          6.1          7.1          8.1          9.1         10.1
     -9.741061    -9.687105    -0.623822    -0.483160    -0.353059    -0.316330    -0.287788    -0.265387     0.031092     0.361621

        11.1
      0.398297

 HOMO      9.1    -0.089288 =      -2.4297eV
 LUMO     -9.1     0.031092 =       0.8460eV
 LUMO-HOMO         0.120380 =       3.2757eV

 EXPECTATION VALUE OF S**2:             0.75482533

 Occupation number threshold for canonical orbitals:  1.999000 (occupied),  0.001000 (virtual)

 Number of pseudo-canonical orbitals per symmetry:    8
 Number of active natural orbitals per symmetry:      1

 Natural orbitals saved to record    2200.2 (Orbital set 3)

 Orbital spaces for UNO-CAS (Min. occupation: 0.020  Max. occupation: 1.980):

 Closed:        8
 Active:        1


 **********************************************************************************************************************************
 DATASETS  * FILE   NREC   LENGTH (MB)   RECORD NAMES
              1      20       30.85       500      610      700      900      950      970     1000      129      960     1100   
                                          VAR    BASINP    GEOM    SYMINP    ZMAT    AOBASIS   BASIS     P2S    ABASIS      S 
                                         1400     1410     1200     1210     1080     1600     1650     1300     1700     1800   
                                           T        V       H0       H01     AOSYM     SMH    MOLCAS    ERIS     OPER     GRID   

              2       5        2.86       700     1000      520     1800     2200   
                                         GEOM     BASIS   MCVARS    GRID      UKS  

 PROGRAMS   *        TOTAL       UKS       INT
 CPU TIMES  *         2.27      1.92      0.20
 REAL TIME  *         2.90 SEC
 DISK USED  *        34.91 MB      
 **********************************************************************************************************************************


 PROGRAM * Intrinsic Basis Bonding Analysis (IBBA)          Author: G. Knizia

 Molecular orbitals read from record     2200.2  Type=UKS/ALPHA (state 1.1)
 Fock matrix read from record            2200.2  Type=UKS/TOTAL (state 1.1)
 Orbital energies read from record       2200.2  Type=UKS/ALPHA (state 1.1)
 Density matrix read from record         2200.2  Type=UKS/CHARGE (state 1.1)

 Number of core orbitals:           2 (   2 )
 Number of closed-shell orbitals:   6 (   6 )
 Number of active  orbitals:        1 (   1 )

 Basis set MINAO-AUTO-PP generated.      Number of basis functions:   15 

 Polarized AO type:                A = (O Ot + (1-O)(1-Ot)) P12
 Orthogonalization method:         Symmetric (Loewdin)
 Localization functional:          L = sum[A,i] <i|n_A|i>^4 -> max

 Localization group 1:   8 orbitals, occupancy  2.000
 Iterative localization: IB/PM,    6 iter; Final gradient 0.42E-08

 Bond order analysis:       [THRPRINT= 0.020]

   CEN ATOM   CEN ATOM     WIBERG.BO      RENORM.BO
     1   C  -   2   C       1.193190       2.017706
     1   C  -   5   H       0.960198       0.985123
     1   C  -   4   H       0.960198       0.985123
     1   C  -   3   H       0.077096       0.627260

     2   C  -   1   C       1.193190       2.017706
     2   C  -   7   H       0.939651       0.989842
     2   C  -   6   H       0.939651       0.989842
     2   C  -   3   H       0.867274       0.998953

     3   H  -   2   C       0.867274       0.998953
     3   H  -   1   C       0.077096       0.627260

     4   H  -   1   C       0.960198       0.985123

     5   H  -   1   C       0.960198       0.985123

     6   H  -   2   C       0.939651       0.989842

     7   H  -   2   C       0.939651       0.989842


 Valency analysis:

   CEN ATOM   TOT.VALENCE
     1   C       3.227093
     2   C       3.941819
     3   H       0.957017
     4   H       0.973812
     5   H       0.973812
     6   H       0.975629
     7   H       0.975629
 Localization group 2:   1 orbitals, occupancy  1.000
 Iterative localization: IB/PM,    1 iter; Final gradient 0.00E+00

 Bond order analysis:       [THRPRINT= 0.020]

   CEN ATOM   CEN ATOM     WIBERG.BO      RENORM.BO
     1   C  -   3   H       0.113634       0.500000
     1   C  -   2   C       0.030112       0.500000
     1   C  -   6   H       0.025401       0.500000
     1   C  -   7   H       0.025401       0.500000

     2   C  -   1   C       0.030112       0.500000

     3   H  -   1   C       0.113634       0.500000



     6   H  -   1   C       0.025401       0.500000

     7   H  -   1   C       0.025401       0.500000


 Valency analysis:

   CEN ATOM   TOT.VALENCE
     1   C       0.195334
     2   C       0.033250
     3   H       0.119490
     4   H       0.000442
     5   H       0.000442
     6   H       0.028124
     7   H       0.028124

 Total charge composition:

   CEN ATOM         s          p       ELECTRONS ->P.CHARGE
     1   C       3.07945    3.31102      6.39047   -0.39047
     2   C       2.98330    3.37663      6.35994   -0.35994
     3   H       0.85649                 0.85649    0.14351
     4   H       0.83839                 0.83839    0.16161
     5   H       0.83839                 0.83839    0.16161
     6   H       0.85815                 0.85815    0.14185
     7   H       0.85815                 0.85815    0.14185

 Total charge composition, AO contributions:

   CEN ATOM SHL      SPHERICAL COMPONENTS
     1   C  1s       1.99317
     1   C  2s       1.08629
     1   C  2p       1.04239    1.08188    1.18675

     2   C  1s       1.99188
     2   C  2s       0.99142
     2   C  2p       1.14743    1.05449    1.17472

     3   H  1s       0.85649

     4   H  1s       0.83839

     5   H  1s       0.83839

     6   H  1s       0.85815

     7   H  1s       0.85815

 Active orbital charges:

   CEN ATOM         s          p       ELECTRONS ->SPIN.DEN
     1   C       0.00254    0.88776      0.89030    0.89030
     2   C       0.00005    0.01686      0.01691    0.01691
     3   H       0.06382                 0.06382    0.06382
     4   H       0.00022                 0.00022    0.00022
     5   H       0.00022                 0.00022    0.00022
     6   H       0.01427                 0.01427    0.01427
     7   H       0.01427                 0.01427    0.01427

 Active orbital charges, AO contributions:

   CEN ATOM SHL      SPHERICAL COMPONENTS
     1   C  1s       0.00000
     1   C  2s       0.00253
     1   C  2p       0.88409    0.00367    0.00000

     2   C  1s       0.00000
     2   C  2s       0.00005
     2   C  2p       0.01666    0.00020    0.00000

     3   H  1s       0.06382

     4   H  1s       0.00022

     5   H  1s       0.00022

     6   H  1s       0.01427

     7   H  1s       0.01427

 Summary of localized orbital composition:   [THRPRINT= 0.020]

   ORB  GRP  ORB.ENERGY      CENTERS/CHARGES
     1   1    -9.629671      C  2   2.000
     2   1    -9.593411      C  1   2.000
     3   1    -0.491934      C  1   1.018   C  2   0.978
     4   1    -0.426983      C  1   1.162   H  4   0.833
     5   1    -0.426983      C  1   1.162   H  5   0.833
     6   1    -0.413427      C  2   1.102   H  3   0.788   C  1   0.106
     7   1    -0.410022      C  2   1.129   H  7   0.838   C  1   0.026
     8   1    -0.410022      C  2   1.129   H  6   0.838   C  1   0.026
     9   2    -0.029912      C  1   0.890   H  3   0.064   (other: 0.046)

 Localized orbitals saved to record      2200.2  (orbital set 4)


 **********************************************************************************************************************************
 DATASETS  * FILE   NREC   LENGTH (MB)   RECORD NAMES
              1      20       30.85       500      610      700      900      950      970     1000      129      960     1100   
                                          VAR    BASINP    GEOM    SYMINP    ZMAT    AOBASIS   BASIS     P2S    ABASIS      S 
                                         1400     1410     1200     1210     1080     1600     1650     1300     1700     1800   
                                           T        V       H0       H01     AOSYM     SMH    MOLCAS    ERIS     OPER     GRID   

              2       5        2.87       700     1000      520     1800     2200   
                                         GEOM     BASIS   MCVARS    GRID      UKS  

 PROGRAMS   *        TOTAL      IBBA       UKS       INT
 CPU TIMES  *         2.29      0.02      1.92      0.20
 REAL TIME  *         3.03 SEC
 DISK USED  *        34.91 MB      
 **********************************************************************************************************************************
 Molecular orbitals read from record     2200.2  Type=UKS/LOCAL(IBO)  
 Occupation numbers read from record     2200.2  Type=UKS/LOCAL(IBO)  
 Orbital energies read from record       2200.2  Type=UKS/LOCAL(IBO)  
 Redundancy group numbers read from rec  2200.2  Type=UKS/BETA (state 1.1)

 IBBA/STO-3G energy=      0.000000000000

        UKS-SCF 
    -78.19807751
 **********************************************************************************************************************************
 Molpro calculation terminated
