
 Primary working directories    : /tmp/sb13343
 Secondary working directories  : /tmp/sb13343
 Wavefunction directory         : /panfs/panasas01/chem/sb13343/wfu/
 Main file repository           : /tmp/sb13343/

 SHA1      : b4a5b34a9e711420743f49e6833241d17c61fb3c
 NAME      : 2099.9.b4a5b34
 ARCHNAME  : linux/x86_64_openmp
 FC        : /cm/shared/languages/GCC-6.1/bin/gfortran
 BLASLIB   : -lblas
 id        : simonbennie

 Nodes     nprocs
 node35-048    1

 Using customized tuning parameters: mindgm=1; mindgv=20; mindgc=4; mindgr=1; noblas=0; minvec=7
 default implementation of scratch files=df  

 memory,500,m
 geomtyp=xyz
 nosym
 noorient
 geometry={
 C         -0.00146        0.79548        0.00000
 C          0.02225       -0.69390        0.00000
 H         -0.99481       -1.12636        0.00000
 H         -0.09300        1.35197        0.92746
 H         -0.09300        1.35197       -0.92746
 H          0.52802       -1.09351        0.88764
 H          0.52802       -1.09351       -0.88764
 }
 basis={ default,svp }
 {uks,B-VWN,direct;wf,17,1,1}
 {ibba,bonds=1}

 Variables initialized (895), CPU time= 0.00 sec
 Commands  initialized (725), CPU time= 0.01 sec, 591 directives.
 Default parameters read. Elapsed time= 0.10 sec

 Checking input...
 Passed
1


                                         ***  PROGRAM SYSTEM MOLPRO  ***
                                       Copyright, TTI GmbH Stuttgart, 2015
                                    Version 2099.9 linked May 26 2017 16:03:21


 **********************************************************************************************************************************
 LABEL *                                                                                 
  64 bit serial version                                                                  DATE: 08-Jun-17          TIME: 04:53:33  
 **********************************************************************************************************************************

 SHA1:             b4a5b34a9e711420743f49e6833241d17c61fb3c
 **********************************************************************************************************************************
 SETTING GEOMTYP        =    XYZ

 Variable memory set to  500000000 words,  buffer space 

 ZSYMEL=NOSYM

 SETTING BASIS          =    SVP


 Recomputing integrals since basis changed


 Using spherical harmonics

 Library entry C      S def2-SVP             selected for orbital group  1
 Library entry C      P def2-SVP             selected for orbital group  1
 Library entry C      D def2-SVP             selected for orbital group  1
 Library entry H      S def2-SVP             selected for orbital group  2
 Library entry H      P def2-SVP             selected for orbital group  2


 PROGRAM * SEWARD (Integral evaluation for generally contracted gaussian basis sets)     Author: Roland Lindh, 1990

 Geometry written to block  1 of record 700


 Point group  C1  



 ATOMIC COORDINATES

 NR  ATOM    CHARGE       X              Y              Z

   1  C       6.00   -0.002759000    1.503239338    0.000000000
   2  C       6.00    0.042046406   -1.311280958    0.000000000
   3  H       1.00   -1.879918446   -2.128511918    0.000000000
   4  H       1.00   -0.175744530    2.554853029    1.752645391
   5  H       1.00   -0.175744530    2.554853029   -1.752645391
   6  H       1.00    0.997813188   -2.066434414    1.677396497
   7  H       1.00    0.997813188   -2.066434414   -1.677396497

 Bond lengths in Bohr (Angstrom)

 1-2  2.814876910  1-4  2.051238947  1-5  2.051238947  2-3  2.088495950  2-6  2.073018546
     ( 1.489568712)     ( 1.085468905)     ( 1.085468905)     ( 1.105184462)     ( 1.096994173)

 2-7  2.073018546
     ( 1.096994173)

 Bond angles

  1-2-3  112.12345176   1-2-6  111.81246303   1-2-7  111.81246303   2-1-4  120.92728687

  2-1-5  120.92728687   3-2-6  106.36442052   3-2-7  106.36442052   4-1-5  117.39421083

  6-2-7  108.02720793

 NUCLEAR CHARGE:                   17
 NUMBER OF PRIMITIVE AOS:          85
 NUMBER OF SYMMETRY AOS:           83
 NUMBER OF CONTRACTIONS:           53   (  53A   )
 NUMBER OF CORE ORBITALS:           2   (   2A   )
 NUMBER OF VALENCE ORBITALS:       13   (  13A   )


 NUCLEAR REPULSION ENERGY   36.86300145


 Eigenvalues of metric

         1 0.525E-02 0.232E-01 0.271E-01 0.397E-01 0.503E-01 0.635E-01 0.102E+00 0.110E+00


 Contracted 2-electron integrals neglected if value below      1.0D-11
 AO integral compression algorithm  1   Integral accuracy      1.0D-11

     5.243 MB (compressed) written to integral file ( 52.3%)


 NUMBER OF SORTED TWO-ELECTRON INTEGRALS:    1024596.     BUFFER LENGTH:  32768
 NUMBER OF SEGMENTS:   1  SEGMENT LENGTH:    1024596      RECORD LENGTH: 524288

 Memory used in sort:       1.58 MW

 SORT1 READ     1206537. AND WROTE      940164. INTEGRALS IN      3 RECORDS. CPU TIME:     0.02 SEC, REAL TIME:     0.09 SEC
 SORT2 READ      940164. AND WROTE     1024596. INTEGRALS IN     20 RECORDS. CPU TIME:     0.06 SEC, REAL TIME:     0.15 SEC

 FILE SIZES:   FILE 1:    35.4 MBYTE,  FILE 4:    12.6 MBYTE,   TOTAL:     48.0 MBYTE

 OPERATOR DM      FOR CENTER  0  COORDINATES:    0.000000    0.000000    0.000000


 **********************************************************************************************************************************
 DATASETS  * FILE   NREC   LENGTH (MB)   RECORD NAMES
              1      19       34.42       500      610      700      900      950      970     1000      129      960     1100   
                                          VAR    BASINP    GEOM    SYMINP    ZMAT    AOBASIS   BASIS     P2S    ABASIS      S 
                                         1400     1410     1200     1210     1080     1600     1650     1300     1700   
                                           T        V       H0       H01     AOSYM     SMH    MOLCAS    ERIS     OPER   

 PROGRAMS   *        TOTAL       INT
 CPU TIMES  *         0.53      0.39
 REAL TIME  *         1.12 SEC
 DISK USED  *        48.39 MB      
 **********************************************************************************************************************************

 Density functional group B-VWN=B88+VWN5
 Functional: B88(Automatically generated (new) B88)                            Gradient terms: 1
 Functional: VWN5(Automatically generated (new) VWN5)                          Gradient terms: 0
 Use grid at  1800.2

 Functional: B88                       Factor:  1.0000
 Functional: VWN5                      Factor:  1.0000

 Generated new metagrid on record  1800.2 with target accuracy 1.0D-06 and 23794 points in CPU time    0.5
 Computed new grid on record 1800.1 in CPU time    0.5
   46013 words reserved for DFT integration

 PROGRAM * UKS-SCF (Unrestricted Kohn-Sham)     Authors: W. Meyer, H.-J. Werner, P.J. Knowles, 1993

 NUMBER OF ELECTRONS:       9+    8-    SPACE SYMMETRY=1    SPIN SYMMETRY: Doublet 
 CONVERGENCE THRESHOLDS:    1.00E-05 (Density)    1.00E-06 (Energy)
 MAX. NUMBER OF ITERATIONS:       60
 INTERPOLATION TYPE:            DIIS
 INTERPOLATION STEPS:              2 (START)      1 (STEP)
 LEVEL SHIFTS:                 -0.20 (ALPHA)  -0.20 (BETA) 



 Use fine grid record 1800.2 for energy threshold  1.0D-06
 Orbital guess generated from atomic densities. Full valence occupancy:    9

 Molecular orbital dump at record        2200.2

 Initial alpha occupation   9
 Initial beta  occupation   8

 ITERATION    DDIFF          GRAD             ENERGY        2-EL.EN.            DIPOLE MOMENTS         DIIS
    1      0.000D+00      0.000D+00       -79.42268551    155.768866   -0.10603   -0.22439    0.00000    0
    2      0.193D-01      0.897D-02       -79.53306507    147.041570   -0.04755   -0.12814    0.00000    1
    3      0.605D-02      0.404D-02       -79.55414928    149.237449   -0.05873   -0.13145    0.00000    2
    4      0.147D-02      0.408D-03       -79.55462438    149.172457   -0.05594   -0.12442    0.00000    3
    5      0.787D-03      0.178D-03       -79.55472935    149.144422   -0.05335   -0.11562    0.00000    4
    6      0.347D-03      0.669D-04       -79.55475277    149.141609   -0.05179   -0.11060    0.00000    5
    7      0.743D-04      0.265D-04       -79.55475501    149.140424   -0.05129   -0.10876    0.00000    6
    8      0.199D-04      0.642D-05       -79.55475517    149.140397   -0.05112   -0.10853    0.00000    6
    9      0.472D-05      0.102D-05       -79.55475517    149.140702   -0.05112   -0.10848    0.00000    6
   10      0.127D-05      0.289D-06       -79.55475517    149.140490   -0.05111   -0.10849    0.00000    7

 Final alpha occupancy:   9
 Final beta  occupancy:   8

 !UKS STATE 1.1 Energy                -79.554755173733
 Nuclear energy                        36.86300145
 One-electron energy                 -177.84740997
 Two-electron energy                   74.57024477
 Density functional                   -13.14059142     B88=-12.10811322 VWN5= -1.03247820
 Virial quotient                       -1.01763395
 !UKS STATE 1.1 Dipole moment          -0.05110724    -0.10848807     0.00000000
 Dipole moment /Debye                  -0.12989315    -0.27573111     0.00000000

 Orbital energies for positive spin:

         1.1          2.1          3.1          4.1          5.1          6.1          7.1          8.1          9.1         10.1
     -9.963670    -9.961306    -0.685149    -0.549839    -0.411464    -0.376889    -0.358670    -0.326625    -0.173538     0.045680

        11.1
      0.072681

 Orbital energies for negative spin:

         1.1          2.1          3.1          4.1          5.1          6.1          7.1          8.1          9.1         10.1
     -9.962002    -9.950762    -0.671815    -0.530960    -0.405496    -0.367044    -0.351154    -0.322609    -0.088463     0.048314

        11.1
      0.082452

 HOMO      9.1    -0.173538 =      -4.7222eV
 LUMO     -9.1    -0.088463 =      -2.4072eV
 LUMO-HOMO         0.085075 =       2.3150eV

 EXPECTATION VALUE OF S**2:             0.75325577

 Occupation number threshold for canonical orbitals:  1.999000 (occupied),  0.001000 (virtual)

 Number of pseudo-canonical orbitals per symmetry:    7
 Number of active natural orbitals per symmetry:      3

 Natural orbitals saved to record    2200.2 (Orbital set 3)

 Orbital spaces for UNO-CAS (Min. occupation: 0.020  Max. occupation: 1.980):

 Closed:        8
 Active:        1


 **********************************************************************************************************************************
 DATASETS  * FILE   NREC   LENGTH (MB)   RECORD NAMES
              1      20       35.18       500      610      700      900      950      970     1000      129      960     1100   
                                          VAR    BASINP    GEOM    SYMINP    ZMAT    AOBASIS   BASIS     P2S    ABASIS      S 
                                         1400     1410     1200     1210     1080     1600     1650     1300     1700     1800   
                                           T        V       H0       H01     AOSYM     SMH    MOLCAS    ERIS     OPER     GRID   

              2       5        2.98       700     1000      520     1800     2200   
                                         GEOM     BASIS   MCVARS    GRID      UKS  

 PROGRAMS   *        TOTAL       UKS       INT
 CPU TIMES  *         4.04      3.51      0.39
 REAL TIME  *         5.96 SEC
 DISK USED  *        48.39 MB      
 **********************************************************************************************************************************


 PROGRAM * Intrinsic Basis Bonding Analysis (IBBA)          Author: G. Knizia

 Molecular orbitals read from record     2200.2  Type=UKS/ALPHA (state 1.1)
 Fock matrix read from record            2200.2  Type=UKS/TOTAL (state 1.1)
 Orbital energies read from record       2200.2  Type=UKS/ALPHA (state 1.1)
 Density matrix read from record         2200.2  Type=UKS/CHARGE (state 1.1)

 Number of core orbitals:           2 (   2 )
 Number of closed-shell orbitals:   6 (   6 )
 Number of active  orbitals:        1 (   1 )

 Basis set MINAO-AUTO-PP generated.      Number of basis functions:   15 

 Polarized AO type:                A = (O Ot + (1-O)(1-Ot)) P12
 Orthogonalization method:         Symmetric (Loewdin)
 Localization functional:          L = sum[A,i] <i|n_A|i>^4 -> max

 Localization group 1:   8 orbitals, occupancy  2.000
 Iterative localization: IB/PM,    6 iter; Final gradient 0.25E-08

 Bond order analysis:       [THRPRINT= 0.020]

   CEN ATOM   CEN ATOM     WIBERG.BO      RENORM.BO
     1   C  -   2   C       1.224624       2.020541
     1   C  -   5   H       0.961506       0.983200
     1   C  -   4   H       0.961506       0.983200
     1   C  -   3   H       0.090271       0.628076
     1   C  -   6   H       0.020981       0.131564
     1   C  -   7   H       0.020981       0.131564

     2   C  -   1   C       1.224624       2.020541
     2   C  -   7   H       0.938716       0.988594
     2   C  -   6   H       0.938716       0.988594
     2   C  -   3   H       0.853461       0.998638

     3   H  -   2   C       0.853461       0.998638
     3   H  -   1   C       0.090271       0.628076

     4   H  -   1   C       0.961506       0.983200

     5   H  -   1   C       0.961506       0.983200

     6   H  -   2   C       0.938716       0.988594
     6   H  -   1   C       0.020981       0.131564

     7   H  -   2   C       0.938716       0.988594
     7   H  -   1   C       0.020981       0.131564


 Valency analysis:

   CEN ATOM   TOT.VALENCE
     1   C       3.279869
     2   C       3.957306
     3   H       0.955203
     4   H       0.976231
     5   H       0.976231
     6   H       0.977822
     7   H       0.977822
 Localization group 2:   1 orbitals, occupancy  1.000
 Iterative localization: IB/PM,    1 iter; Final gradient 0.00E+00

 Bond order analysis:       [THRPRINT= 0.020]

   CEN ATOM   CEN ATOM     WIBERG.BO      RENORM.BO
     1   C  -   3   H       0.123625       0.500000
     1   C  -   6   H       0.026751       0.500000
     1   C  -   7   H       0.026751       0.500000
     1   C  -   2   C       0.026622       0.500000

     2   C  -   1   C       0.026622       0.500000

     3   H  -   1   C       0.123625       0.500000



     6   H  -   1   C       0.026751       0.500000

     7   H  -   1   C       0.026751       0.500000


 Valency analysis:

   CEN ATOM   TOT.VALENCE
     1   C       0.204884
     2   C       0.029658
     3   H       0.130051
     4   H       0.000641
     5   H       0.000641
     6   H       0.029799
     7   H       0.029799

 Total charge composition:

   CEN ATOM         s          p       ELECTRONS ->P.CHARGE
     1   C       3.08939    3.30832      6.39771   -0.39771
     2   C       3.00413    3.31519      6.31932   -0.31932
     3   H       0.85826                 0.85826    0.14174
     4   H       0.84615                 0.84615    0.15385
     5   H       0.84615                 0.84615    0.15385
     6   H       0.86621                 0.86621    0.13379
     7   H       0.86621                 0.86621    0.13379

 Total charge composition, AO contributions:

   CEN ATOM SHL      SPHERICAL COMPONENTS
     1   C  1s       1.99231
     1   C  2s       1.09707
     1   C  2p       1.06375    1.07371    1.17086

     2   C  1s       1.99090
     2   C  2s       1.01323
     2   C  2p       1.11663    1.04620    1.15237

     3   H  1s       0.85826

     4   H  1s       0.84615

     5   H  1s       0.84615

     6   H  1s       0.86621

     7   H  1s       0.86621

 Active orbital charges:

   CEN ATOM         s          p       ELECTRONS ->SPIN.DEN
     1   C       0.00244    0.88170      0.88413    0.88413
     2   C       0.00005    0.01500      0.01506    0.01506
     3   H       0.06991                 0.06991    0.06991
     4   H       0.00032                 0.00032    0.00032
     5   H       0.00032                 0.00032    0.00032
     6   H       0.01513                 0.01513    0.01513
     7   H       0.01513                 0.01513    0.01513

 Active orbital charges, AO contributions:

   CEN ATOM SHL      SPHERICAL COMPONENTS
     1   C  1s       0.00000
     1   C  2s       0.00243
     1   C  2p       0.87780    0.00390    0.00000

     2   C  1s       0.00000
     2   C  2s       0.00005
     2   C  2p       0.01484    0.00017    0.00000

     3   H  1s       0.06991

     4   H  1s       0.00032

     5   H  1s       0.00032

     6   H  1s       0.01513

     7   H  1s       0.01513

 Summary of localized orbital composition:   [THRPRINT= 0.020]

   ORB  GRP  ORB.ENERGY      CENTERS/CHARGES
     1   1    -9.852474      C  1   2.000
     2   1    -9.848959      C  2   2.000
     3   1    -0.554647      C  1   1.019   C  2   0.979
     4   1    -0.480511      C  1   1.154   H  4   0.840
     5   1    -0.480511      C  1   1.154   H  5   0.840
     6   1    -0.461502      C  2   1.087   H  3   0.784   C  1   0.126
     7   1    -0.458221      C  2   1.116   H  6   0.846   C  1   0.031
     8   1    -0.458221      C  2   1.116   H  7   0.846   C  1   0.031
     9   2    -0.130257      C  1   0.884   H  3   0.070   (other: 0.046)

 Localized orbitals saved to record      2200.2  (orbital set 4)


 **********************************************************************************************************************************
 DATASETS  * FILE   NREC   LENGTH (MB)   RECORD NAMES
              1      20       35.18       500      610      700      900      950      970     1000      129      960     1100   
                                          VAR    BASINP    GEOM    SYMINP    ZMAT    AOBASIS   BASIS     P2S    ABASIS      S 
                                         1400     1410     1200     1210     1080     1600     1650     1300     1700     1800   
                                           T        V       H0       H01     AOSYM     SMH    MOLCAS    ERIS     OPER     GRID   

              2       5        3.00       700     1000      520     1800     2200   
                                         GEOM     BASIS   MCVARS    GRID      UKS  

 PROGRAMS   *        TOTAL      IBBA       UKS       INT
 CPU TIMES  *         4.06      0.01      3.51      0.39
 REAL TIME  *         6.06 SEC
 DISK USED  *        48.39 MB      
 **********************************************************************************************************************************
 Molecular orbitals read from record     2200.2  Type=UKS/LOCAL(IBO)  
 Occupation numbers read from record     2200.2  Type=UKS/LOCAL(IBO)  
 Orbital energies read from record       2200.2  Type=UKS/LOCAL(IBO)  
 Redundancy group numbers read from rec  2200.2  Type=UKS/BETA (state 1.1)

 IBBA/SVP energy=      0.000000000000

        UKS-SCF 
    -79.55475517
 **********************************************************************************************************************************
 Molpro calculation terminated
