
 Primary working directories    : /tmp/sb13343
 Secondary working directories  : /tmp/sb13343
 Wavefunction directory         : /panfs/panasas01/chem/sb13343/wfu/
 Main file repository           : /tmp/sb13343/

 SHA1      : b4a5b34a9e711420743f49e6833241d17c61fb3c
 NAME      : 2099.9.b4a5b34
 ARCHNAME  : linux/x86_64_openmp
 FC        : /cm/shared/languages/GCC-6.1/bin/gfortran
 BLASLIB   : -lblas
 id        : simonbennie

 Nodes     nprocs
 node35-048    1

 Using customized tuning parameters: mindgm=1; mindgv=20; mindgc=4; mindgr=1; noblas=0; minvec=7
 default implementation of scratch files=df  

 memory,500,m
 geomtyp=xyz
 nosym
 noorient
 geometry={
 C         -0.00146        0.79548        0.00000
 C          0.02225       -0.69390        0.00000
 H         -0.99481       -1.12636        0.00000
 H         -0.09300        1.35197        0.92746
 H         -0.09300        1.35197       -0.92746
 H          0.52802       -1.09351        0.88764
 H          0.52802       -1.09351       -0.88764
 }
 basis={ default,sto-3g }
 {uks,SOGGA11-X,direct;wf,17,1,1}
 {ibba,bonds=1}

 Variables initialized (895), CPU time= 0.00 sec
 Commands  initialized (725), CPU time= 0.01 sec, 591 directives.
 Default parameters read. Elapsed time= 0.14 sec

 Checking input...
 Passed
1


                                         ***  PROGRAM SYSTEM MOLPRO  ***
                                       Copyright, TTI GmbH Stuttgart, 2015
                                    Version 2099.9 linked May 26 2017 16:03:21


 **********************************************************************************************************************************
 LABEL *                                                                                 
  64 bit serial version                                                                  DATE: 08-Jun-17          TIME: 04:51:25  
 **********************************************************************************************************************************

 SHA1:             b4a5b34a9e711420743f49e6833241d17c61fb3c
 **********************************************************************************************************************************
 SETTING GEOMTYP        =    XYZ

 Variable memory set to  500000000 words,  buffer space 

 ZSYMEL=NOSYM

 SETTING BASIS          =    STO-3G


 Recomputing integrals since basis changed


 Using spherical harmonics

 Library entry C      S STO-3G               selected for orbital group  1
 Library entry C      P STO-3G               selected for orbital group  1
 Library entry H      S STO-3G               selected for orbital group  2


 PROGRAM * SEWARD (Integral evaluation for generally contracted gaussian basis sets)     Author: Roland Lindh, 1990

 Geometry written to block  1 of record 700


 Point group  C1  



 ATOMIC COORDINATES

 NR  ATOM    CHARGE       X              Y              Z

   1  C       6.00   -0.002759000    1.503239338    0.000000000
   2  C       6.00    0.042046406   -1.311280958    0.000000000
   3  H       1.00   -1.879918446   -2.128511918    0.000000000
   4  H       1.00   -0.175744530    2.554853029    1.752645391
   5  H       1.00   -0.175744530    2.554853029   -1.752645391
   6  H       1.00    0.997813188   -2.066434414    1.677396497
   7  H       1.00    0.997813188   -2.066434414   -1.677396497

 Bond lengths in Bohr (Angstrom)

 1-2  2.814876910  1-4  2.051238947  1-5  2.051238947  2-3  2.088495950  2-6  2.073018546
     ( 1.489568712)     ( 1.085468905)     ( 1.085468905)     ( 1.105184462)     ( 1.096994173)

 2-7  2.073018546
     ( 1.096994173)

 Bond angles

  1-2-3  112.12345176   1-2-6  111.81246303   1-2-7  111.81246303   2-1-4  120.92728687

  2-1-5  120.92728687   3-2-6  106.36442052   3-2-7  106.36442052   4-1-5  117.39421083

  6-2-7  108.02720793

 NUCLEAR CHARGE:                   17
 NUMBER OF PRIMITIVE AOS:          45
 NUMBER OF SYMMETRY AOS:           45
 NUMBER OF CONTRACTIONS:           15   (  15A   )
 NUMBER OF CORE ORBITALS:           2   (   2A   )
 NUMBER OF VALENCE ORBITALS:       13   (  13A   )


 NUCLEAR REPULSION ENERGY   36.86300145


 Eigenvalues of metric

         1 0.218E+00 0.272E+00 0.329E+00 0.377E+00 0.382E+00 0.392E+00 0.935E+00 0.955E+00


 Contracted 2-electron integrals neglected if value below      1.0D-11
 AO integral compression algorithm  1   Integral accuracy      1.0D-11

     0.262 MB (compressed) written to integral file (100.0%)


 NUMBER OF SORTED TWO-ELECTRON INTEGRALS:       7260.     BUFFER LENGTH:  32768
 NUMBER OF SEGMENTS:   1  SEGMENT LENGTH:       7260      RECORD LENGTH: 524288

 Memory used in sort:       0.56 MW

 SORT1 READ        9024. AND WROTE        6273. INTEGRALS IN      1 RECORDS. CPU TIME:     0.00 SEC, REAL TIME:     0.02 SEC
 SORT2 READ        6273. AND WROTE        7260. INTEGRALS IN      1 RECORDS. CPU TIME:     0.00 SEC, REAL TIME:     0.01 SEC

 FILE SIZES:   FILE 1:    30.3 MBYTE,  FILE 4:     4.2 MBYTE,   TOTAL:     34.5 MBYTE

 OPERATOR DM      FOR CENTER  0  COORDINATES:    0.000000    0.000000    0.000000


 **********************************************************************************************************************************
 DATASETS  * FILE   NREC   LENGTH (MB)   RECORD NAMES
              1      19       30.09       500      610      700      900      950      970     1000      129      960     1100   
                                          VAR    BASINP    GEOM    SYMINP    ZMAT    AOBASIS   BASIS     P2S    ABASIS      S 
                                         1400     1410     1200     1210     1080     1600     1650     1300     1700   
                                           T        V       H0       H01     AOSYM     SMH    MOLCAS    ERIS     OPER   

 PROGRAMS   *        TOTAL       INT
 CPU TIMES  *         0.34      0.19
 REAL TIME  *         1.01 SEC
 DISK USED  *        34.91 MB      
 **********************************************************************************************************************************

 Density functional group SOGGA11-X=XC-SOGGA11-X
 Functional: XC-SOGGA11-X(via MFM 1.6)                                         Gradient terms: 1
 Use grid at  1800.2


 Exact exchange will be calculated, factor:  0.4015

 Functional: XC-SOGGA11-X              Factor:  1.0000

 Generated new metagrid on record  1800.2 with target accuracy 1.0D-06 and 23794 points in CPU time    0.5
 Computed new grid on record 1800.1 in CPU time    0.5
   15985 words reserved for DFT integration

 PROGRAM * UKS-SCF (Unrestricted Kohn-Sham)     Authors: W. Meyer, H.-J. Werner, P.J. Knowles, 1993

 NUMBER OF ELECTRONS:       9+    8-    SPACE SYMMETRY=1    SPIN SYMMETRY: Doublet 
 CONVERGENCE THRESHOLDS:    1.00E-05 (Density)    1.00E-06 (Energy)
 MAX. NUMBER OF ITERATIONS:       60
 INTERPOLATION TYPE:            DIIS
 INTERPOLATION STEPS:              2 (START)      1 (STEP)
 LEVEL SHIFTS:                 -0.20 (ALPHA)  -0.20 (BETA) 



 Use fine grid record 1800.2 for energy threshold  1.0D-06
 Orbital guess generated from atomic densities. Full valence occupancy:    9

 Molecular orbital dump at record        2200.2

 Initial alpha occupation   9
 Initial beta  occupation   8

 ITERATION    DDIFF          GRAD             ENERGY        2-EL.EN.            DIPOLE MOMENTS         DIIS
    1      0.000D+00      0.000D+00       -78.13756657    143.141903   -0.11035   -0.21757    0.00000    0
    2      0.476D-01      0.190D-01       -78.19376281    139.986005   -0.04810   -0.11176    0.00000    1
    3      0.325D-02      0.273D-02       -78.19498823    140.023505   -0.04065   -0.08359    0.00000    2
    4      0.194D-02      0.122D-02       -78.19544804    140.008877   -0.03736   -0.06963    0.00000    3
    5      0.110D-02      0.555D-03       -78.19554886    140.009771   -0.03564   -0.06223    0.00000    4
    6      0.260D-03      0.101D-03       -78.19555289    140.008822   -0.03546   -0.06160    0.00000    5
    7      0.356D-04      0.193D-04       -78.19555303    140.009123   -0.03544   -0.06153    0.00000    6
    8      0.803D-05      0.580D-05       -78.19555304    140.009062   -0.03544   -0.06151    0.00000    6
    9      0.209D-05      0.116D-05       -78.19555304    140.009135   -0.03544   -0.06151    0.00000    6

 Final alpha occupancy:   9
 Final beta  occupancy:   8

 !UKS STATE 1.1 Energy                -78.195553040433
 Nuclear energy                        36.86300145
 One-electron energy                 -177.22735303
 Two-electron energy                   70.00456753
 Density functional                    -7.83576899     XC-SOGGA11-X=-7.83576899
 Virial quotient                       -1.01320138
 !UKS STATE 1.1 Dipole moment          -0.03543947    -0.06151362     0.00000000
 Dipole moment /Debye                  -0.09007225    -0.15634179     0.00000000

 Orbital energies for positive spin:

         1.1          2.1          3.1          4.1          5.1          6.1          7.1          8.1          9.1         10.1
    -10.262496   -10.223684    -0.796412    -0.640743    -0.464728    -0.427676    -0.394284    -0.364220    -0.179525     0.456274

        11.1
      0.461015

 Orbital energies for negative spin:

         1.1          2.1          3.1          4.1          5.1          6.1          7.1          8.1          9.1         10.1
    -10.264056   -10.201951    -0.774091    -0.607143    -0.456732    -0.410142    -0.383241    -0.358533     0.108495     0.460297

        11.1
      0.497190

 HOMO      9.1    -0.179525 =      -4.8851eV
 LUMO     -9.1     0.108495 =       2.9523eV
 LUMO-HOMO         0.288020 =       7.8374eV

 EXPECTATION VALUE OF S**2:             0.75394646

 Occupation number threshold for canonical orbitals:  1.999000 (occupied),  0.001000 (virtual)

 Number of pseudo-canonical orbitals per symmetry:    7
 Number of active natural orbitals per symmetry:      3

 Natural orbitals saved to record    2200.2 (Orbital set 3)

 Orbital spaces for UNO-CAS (Min. occupation: 0.020  Max. occupation: 1.980):

 Closed:        8
 Active:        1


 **********************************************************************************************************************************
 DATASETS  * FILE   NREC   LENGTH (MB)   RECORD NAMES
              1      20       30.85       500      610      700      900      950      970     1000      129      960     1100   
                                          VAR    BASINP    GEOM    SYMINP    ZMAT    AOBASIS   BASIS     P2S    ABASIS      S 
                                         1400     1410     1200     1210     1080     1600     1650     1300     1700     1800   
                                           T        V       H0       H01     AOSYM     SMH    MOLCAS    ERIS     OPER     GRID   

              2       5        2.86       700     1000      520     1800     2200   
                                         GEOM     BASIS   MCVARS    GRID      UKS  

 PROGRAMS   *        TOTAL       UKS       INT
 CPU TIMES  *         2.20      1.86      0.19
 REAL TIME  *         3.02 SEC
 DISK USED  *        34.91 MB      
 **********************************************************************************************************************************


 PROGRAM * Intrinsic Basis Bonding Analysis (IBBA)          Author: G. Knizia

 Molecular orbitals read from record     2200.2  Type=UKS/ALPHA (state 1.1)
 Fock matrix read from record            2200.2  Type=UKS/TOTAL (state 1.1)
 Orbital energies read from record       2200.2  Type=UKS/ALPHA (state 1.1)
 Density matrix read from record         2200.2  Type=UKS/CHARGE (state 1.1)

 Number of core orbitals:           2 (   2 )
 Number of closed-shell orbitals:   6 (   6 )
 Number of active  orbitals:        1 (   1 )

 Basis set MINAO-AUTO-PP generated.      Number of basis functions:   15 

 Polarized AO type:                A = (O Ot + (1-O)(1-Ot)) P12
 Orthogonalization method:         Symmetric (Loewdin)
 Localization functional:          L = sum[A,i] <i|n_A|i>^4 -> max

 Localization group 1:   8 orbitals, occupancy  2.000
 Iterative localization: IB/PM,    6 iter; Final gradient 0.34E-08

 Bond order analysis:       [THRPRINT= 0.020]

   CEN ATOM   CEN ATOM     WIBERG.BO      RENORM.BO
     1   C  -   2   C       1.222489       2.017092
     1   C  -   5   H       0.965102       0.985939
     1   C  -   4   H       0.965102       0.985939
     1   C  -   3   H       0.091960       0.627070
     1   C  -   6   H       0.021145       0.128642
     1   C  -   7   H       0.021145       0.128642

     2   C  -   1   C       1.222489       2.017092
     2   C  -   7   H       0.939551       0.990636
     2   C  -   6   H       0.939551       0.990636
     2   C  -   3   H       0.850597       0.998880

     3   H  -   2   C       0.850597       0.998880
     3   H  -   1   C       0.091960       0.627070

     4   H  -   1   C       0.965102       0.985939

     5   H  -   1   C       0.965102       0.985939

     6   H  -   2   C       0.939551       0.990636
     6   H  -   1   C       0.021145       0.128642

     7   H  -   2   C       0.939551       0.990636
     7   H  -   1   C       0.021145       0.128642


 Valency analysis:

   CEN ATOM   TOT.VALENCE
     1   C       3.286943
     2   C       3.953707
     3   H       0.956320
     4   H       0.977388
     5   H       0.977388
     6   H       0.977809
     7   H       0.977809
 Localization group 2:   1 orbitals, occupancy  1.000
 Iterative localization: IB/PM,    1 iter; Final gradient 0.00E+00

 Bond order analysis:       [THRPRINT= 0.020]

   CEN ATOM   CEN ATOM     WIBERG.BO      RENORM.BO
     1   C  -   3   H       0.120597       0.500000
     1   C  -   2   C       0.041554       0.500000
     1   C  -   6   H       0.026718       0.500000
     1   C  -   7   H       0.026718       0.500000

     2   C  -   1   C       0.041554       0.500000

     3   H  -   1   C       0.120597       0.500000



     6   H  -   1   C       0.026718       0.500000

     7   H  -   1   C       0.026718       0.500000


 Valency analysis:

   CEN ATOM   TOT.VALENCE
     1   C       0.216801
     2   C       0.046295
     3   H       0.128151
     4   H       0.000693
     5   H       0.000693
     6   H       0.030025
     7   H       0.030025

 Total charge composition:

   CEN ATOM         s          p       ELECTRONS ->P.CHARGE
     1   C       3.08826    3.29480      6.38306   -0.38306
     2   C       2.98438    3.34024      6.32462   -0.32462
     3   H       0.85981                 0.85981    0.14019
     4   H       0.84997                 0.84997    0.15003
     5   H       0.84997                 0.84997    0.15003
     6   H       0.86628                 0.86628    0.13372
     7   H       0.86628                 0.86628    0.13372

 Total charge composition, AO contributions:

   CEN ATOM SHL      SPHERICAL COMPONENTS
     1   C  1s       1.99244
     1   C  2s       1.09582
     1   C  2p       1.05868    1.06934    1.16678

     2   C  1s       1.99117
     2   C  2s       0.99321
     2   C  2p       1.12770    1.05000    1.16254

     3   H  1s       0.85981

     4   H  1s       0.84997

     5   H  1s       0.84997

     6   H  1s       0.86628

     7   H  1s       0.86628

 Active orbital charges:

   CEN ATOM         s          p       ELECTRONS ->SPIN.DEN
     1   C       0.00239    0.87391      0.87630    0.87630
     2   C       0.00006    0.02365      0.02371    0.02371
     3   H       0.06881                 0.06881    0.06881
     4   H       0.00035                 0.00035    0.00035
     5   H       0.00035                 0.00035    0.00035
     6   H       0.01525                 0.01525    0.01525
     7   H       0.01525                 0.01525    0.01525

 Active orbital charges, AO contributions:

   CEN ATOM SHL      SPHERICAL COMPONENTS
     1   C  1s       0.00000
     1   C  2s       0.00239
     1   C  2p       0.87037    0.00354    0.00000

     2   C  1s       0.00000
     2   C  2s       0.00006
     2   C  2p       0.02333    0.00032    0.00000

     3   H  1s       0.06881

     4   H  1s       0.00035

     5   H  1s       0.00035

     6   H  1s       0.01525

     7   H  1s       0.01525

 Summary of localized orbital composition:   [THRPRINT= 0.020]

   ORB  GRP  ORB.ENERGY      CENTERS/CHARGES
     1   1   -10.146577      C  2   2.000
     2   1   -10.101460      C  1   2.000
     3   1    -0.613557      C  1   1.017   C  2   0.980
     4   1    -0.542264      C  1   1.150   H  4   0.845
     5   1    -0.542264      C  1   1.150   H  5   0.845
     6   1    -0.521444      C  2   1.082   H  3   0.786   C  1   0.128
     7   1    -0.520314      C  2   1.117   H  7   0.846   C  1   0.030
     8   1    -0.520314      C  2   1.117   H  6   0.846   C  1   0.030
     9   2    -0.039310      C  1   0.876   H  3   0.069   C  2   0.024   (other: 0.031)

 Localized orbitals saved to record      2200.2  (orbital set 4)


 **********************************************************************************************************************************
 DATASETS  * FILE   NREC   LENGTH (MB)   RECORD NAMES
              1      20       30.85       500      610      700      900      950      970     1000      129      960     1100   
                                          VAR    BASINP    GEOM    SYMINP    ZMAT    AOBASIS   BASIS     P2S    ABASIS      S 
                                         1400     1410     1200     1210     1080     1600     1650     1300     1700     1800   
                                           T        V       H0       H01     AOSYM     SMH    MOLCAS    ERIS     OPER     GRID   

              2       5        2.87       700     1000      520     1800     2200   
                                         GEOM     BASIS   MCVARS    GRID      UKS  

 PROGRAMS   *        TOTAL      IBBA       UKS       INT
 CPU TIMES  *         2.22      0.02      1.86      0.19
 REAL TIME  *         3.09 SEC
 DISK USED  *        34.91 MB      
 **********************************************************************************************************************************
 Molecular orbitals read from record     2200.2  Type=UKS/LOCAL(IBO)  
 Occupation numbers read from record     2200.2  Type=UKS/LOCAL(IBO)  
 Orbital energies read from record       2200.2  Type=UKS/LOCAL(IBO)  
 Redundancy group numbers read from rec  2200.2  Type=UKS/BETA (state 1.1)

 IBBA/STO-3G energy=      0.000000000000

        UKS-SCF 
    -78.19555304
 **********************************************************************************************************************************
 Molpro calculation terminated
