
 Primary working directories    : /tmp/sb13343
 Secondary working directories  : /tmp/sb13343
 Wavefunction directory         : /panfs/panasas01/chem/sb13343/wfu/
 Main file repository           : /tmp/sb13343/

 SHA1      : b4a5b34a9e711420743f49e6833241d17c61fb3c
 NAME      : 2099.9.b4a5b34
 ARCHNAME  : linux/x86_64_openmp
 FC        : /cm/shared/languages/GCC-6.1/bin/gfortran
 BLASLIB   : -lblas
 id        : simonbennie

 Nodes     nprocs
 node35-048    1

 Using customized tuning parameters: mindgm=1; mindgv=20; mindgc=4; mindgr=1; noblas=0; minvec=7
 default implementation of scratch files=df  

 memory,500,m
 geomtyp=xyz
 nosym
 noorient
 geometry={
 C         -0.00146        0.79548        0.00000
 C          0.02225       -0.69390        0.00000
 H         -0.99481       -1.12636        0.00000
 H         -0.09300        1.35197        0.92746
 H         -0.09300        1.35197       -0.92746
 H          0.52802       -1.09351        0.88764
 H          0.52802       -1.09351       -0.88764
 }
 basis={ default,svp }
 {uks,CS,direct;wf,17,1,1}
 {ibba,bonds=1}

 Variables initialized (895), CPU time= 0.00 sec
 Commands  initialized (725), CPU time= 0.01 sec, 591 directives.
 Default parameters read. Elapsed time= 0.16 sec

 Checking input...
 Passed
1


                                         ***  PROGRAM SYSTEM MOLPRO  ***
                                       Copyright, TTI GmbH Stuttgart, 2015
                                    Version 2099.9 linked May 26 2017 16:03:21


 **********************************************************************************************************************************
 LABEL *                                                                                 
  64 bit serial version                                                                  DATE: 08-Jun-17          TIME: 04:55:42  
 **********************************************************************************************************************************

 SHA1:             b4a5b34a9e711420743f49e6833241d17c61fb3c
 **********************************************************************************************************************************
 SETTING GEOMTYP        =    XYZ

 Variable memory set to  500000000 words,  buffer space 

 ZSYMEL=NOSYM

 SETTING BASIS          =    SVP


 Recomputing integrals since basis changed


 Using spherical harmonics

 Library entry C      S def2-SVP             selected for orbital group  1
 Library entry C      P def2-SVP             selected for orbital group  1
 Library entry C      D def2-SVP             selected for orbital group  1
 Library entry H      S def2-SVP             selected for orbital group  2
 Library entry H      P def2-SVP             selected for orbital group  2


 PROGRAM * SEWARD (Integral evaluation for generally contracted gaussian basis sets)     Author: Roland Lindh, 1990

 Geometry written to block  1 of record 700


 Point group  C1  



 ATOMIC COORDINATES

 NR  ATOM    CHARGE       X              Y              Z

   1  C       6.00   -0.002759000    1.503239338    0.000000000
   2  C       6.00    0.042046406   -1.311280958    0.000000000
   3  H       1.00   -1.879918446   -2.128511918    0.000000000
   4  H       1.00   -0.175744530    2.554853029    1.752645391
   5  H       1.00   -0.175744530    2.554853029   -1.752645391
   6  H       1.00    0.997813188   -2.066434414    1.677396497
   7  H       1.00    0.997813188   -2.066434414   -1.677396497

 Bond lengths in Bohr (Angstrom)

 1-2  2.814876910  1-4  2.051238947  1-5  2.051238947  2-3  2.088495950  2-6  2.073018546
     ( 1.489568712)     ( 1.085468905)     ( 1.085468905)     ( 1.105184462)     ( 1.096994173)

 2-7  2.073018546
     ( 1.096994173)

 Bond angles

  1-2-3  112.12345176   1-2-6  111.81246303   1-2-7  111.81246303   2-1-4  120.92728687

  2-1-5  120.92728687   3-2-6  106.36442052   3-2-7  106.36442052   4-1-5  117.39421083

  6-2-7  108.02720793

 NUCLEAR CHARGE:                   17
 NUMBER OF PRIMITIVE AOS:          85
 NUMBER OF SYMMETRY AOS:           83
 NUMBER OF CONTRACTIONS:           53   (  53A   )
 NUMBER OF CORE ORBITALS:           2   (   2A   )
 NUMBER OF VALENCE ORBITALS:       13   (  13A   )


 NUCLEAR REPULSION ENERGY   36.86300145


 Eigenvalues of metric

         1 0.525E-02 0.232E-01 0.271E-01 0.397E-01 0.503E-01 0.635E-01 0.102E+00 0.110E+00


 Contracted 2-electron integrals neglected if value below      1.0D-11
 AO integral compression algorithm  1   Integral accuracy      1.0D-11

     5.243 MB (compressed) written to integral file ( 52.3%)


 NUMBER OF SORTED TWO-ELECTRON INTEGRALS:    1024596.     BUFFER LENGTH:  32768
 NUMBER OF SEGMENTS:   1  SEGMENT LENGTH:    1024596      RECORD LENGTH: 524288

 Memory used in sort:       1.58 MW

 SORT1 READ     1206537. AND WROTE      940164. INTEGRALS IN      3 RECORDS. CPU TIME:     0.02 SEC, REAL TIME:     0.03 SEC
 SORT2 READ      940164. AND WROTE     1024596. INTEGRALS IN     20 RECORDS. CPU TIME:     0.05 SEC, REAL TIME:     0.07 SEC

 FILE SIZES:   FILE 1:    35.4 MBYTE,  FILE 4:    12.6 MBYTE,   TOTAL:     48.0 MBYTE

 OPERATOR DM      FOR CENTER  0  COORDINATES:    0.000000    0.000000    0.000000


 **********************************************************************************************************************************
 DATASETS  * FILE   NREC   LENGTH (MB)   RECORD NAMES
              1      19       34.42       500      610      700      900      950      970     1000      129      960     1100   
                                          VAR    BASINP    GEOM    SYMINP    ZMAT    AOBASIS   BASIS     P2S    ABASIS      S 
                                         1400     1410     1200     1210     1080     1600     1650     1300     1700   
                                           T        V       H0       H01     AOSYM     SMH    MOLCAS    ERIS     OPER   

 PROGRAMS   *        TOTAL       INT
 CPU TIMES  *         0.52      0.38
 REAL TIME  *         1.26 SEC
 DISK USED  *        48.39 MB      
 **********************************************************************************************************************************

 Density functional group CS=CS1
 Functional: CS1(Colle-Salvetti (Gradient form))                               Gradient terms: 1
 Use grid at  1800.2

 Functional: CS1                       Factor:  1.0000

 Generated new metagrid on record  1800.2 with target accuracy 1.0D-06 and 23794 points in CPU time    0.5
 Computed new grid on record 1800.1 in CPU time    0.5
   46013 words reserved for DFT integration

 PROGRAM * UKS-SCF (Unrestricted Kohn-Sham)     Authors: W. Meyer, H.-J. Werner, P.J. Knowles, 1993

 NUMBER OF ELECTRONS:       9+    8-    SPACE SYMMETRY=1    SPIN SYMMETRY: Doublet 
 CONVERGENCE THRESHOLDS:    1.00E-05 (Density)    1.00E-06 (Energy)
 MAX. NUMBER OF ITERATIONS:       60
 INTERPOLATION TYPE:            DIIS
 INTERPOLATION STEPS:              2 (START)      1 (STEP)
 LEVEL SHIFTS:                 -0.20 (ALPHA)  -0.20 (BETA) 



 Use fine grid record 1800.2 for energy threshold  1.0D-06
 Orbital guess generated from atomic densities. Full valence occupancy:    9

 Molecular orbital dump at record        2200.2

 Initial alpha occupation   9
 Initial beta  occupation   8

 ITERATION    DDIFF          GRAD             ENERGY        2-EL.EN.            DIPOLE MOMENTS         DIIS
    1      0.000D+00      0.000D+00       -67.23700149    135.672630   -0.04848   -0.20798    0.00000    0
    2      0.170D-01      0.689D-02       -67.27208514    142.399320   -0.06084   -0.26810    0.00000    1
    3      0.570D-02      0.454D-02       -67.29726868    139.737603   -0.04682   -0.22107    0.00000    2
    4      0.960D-03      0.187D-03       -67.29737337    139.797324   -0.04890   -0.21936    0.00000    3
    5      0.374D-03      0.909D-04       -67.29739717    139.798563   -0.04985   -0.22159    0.00000    4
    6      0.399D-03      0.434D-04       -67.29740931    139.800339   -0.05084   -0.22239    0.00000    5
    7      0.190D-03      0.132D-04       -67.29741114    139.799236   -0.05198   -0.22278    0.00000    6
    8      0.891D-04      0.643D-05       -67.29741141    139.800420   -0.05187   -0.22250    0.00000    7
    9      0.425D-04      0.254D-05       -67.29741146    139.799907   -0.05211   -0.22237    0.00000    6
   10      0.270D-04      0.123D-05       -67.29741147    139.800229   -0.05214   -0.22232    0.00000    7
   11      0.136D-04      0.509D-06       -67.29741148    139.800164   -0.05220   -0.22229    0.00000    8
   12      0.748D-05      0.245D-06       -67.29741148    139.800135   -0.05222   -0.22231    0.00000    8
   13      0.291D-05      0.106D-06       -67.29741148    139.800190   -0.05223   -0.22231    0.00000    8

 Final alpha occupancy:   9
 Final beta  occupancy:   8

 !UKS STATE 1.1 Energy                -67.297411478628
 Nuclear energy                        36.86300145
 One-electron energy                 -173.56348251
 Two-electron energy                   69.90009483
 Density functional                    -0.49702525     CS1=-0.49702525
 Virial quotient                       -0.91956894
 !UKS STATE 1.1 Dipole moment          -0.05223029    -0.22230724     0.00000000
 Dipole moment /Debye                  -0.13274747    -0.56501163     0.00000000

 Orbital energies for positive spin:

         1.1          2.1          3.1          4.1          5.1          6.1          7.1          8.1          9.1         10.1
     -8.209289    -8.193857    -0.343504    -0.202144    -0.113744    -0.085113    -0.055756    -0.009691     0.131627     0.199050

        11.1
      0.247861

 Orbital energies for negative spin:

         1.1          2.1          3.1          4.1          5.1          6.1          7.1          8.1          9.1         10.1
     -8.209486    -8.196085    -0.348924    -0.209199    -0.116746    -0.091023    -0.059613    -0.012519     0.108973     0.196100

        11.1
      0.243244

 HOMO      9.1     0.131627 =       3.5818eV
 LUMO     -9.1     0.108973 =       2.9653eV
 LUMO-HOMO        -0.022655 =      -0.6165eV

 EXPECTATION VALUE OF S**2:             0.75026847

 Occupation number threshold for canonical orbitals:  1.999000 (occupied),  0.001000 (virtual)

 Number of pseudo-canonical orbitals per symmetry:    8
 Number of active natural orbitals per symmetry:      1

 Natural orbitals saved to record    2200.2 (Orbital set 3)

 Orbital spaces for UNO-CAS (Min. occupation: 0.020  Max. occupation: 1.980):

 Closed:        8
 Active:        1


 **********************************************************************************************************************************
 DATASETS  * FILE   NREC   LENGTH (MB)   RECORD NAMES
              1      20       35.18       500      610      700      900      950      970     1000      129      960     1100   
                                          VAR    BASINP    GEOM    SYMINP    ZMAT    AOBASIS   BASIS     P2S    ABASIS      S 
                                         1400     1410     1200     1210     1080     1600     1650     1300     1700     1800   
                                           T        V       H0       H01     AOSYM     SMH    MOLCAS    ERIS     OPER     GRID   

              2       5        2.98       700     1000      520     1800     2200   
                                         GEOM     BASIS   MCVARS    GRID      UKS  

 PROGRAMS   *        TOTAL       UKS       INT
 CPU TIMES  *         7.99      7.47      0.38
 REAL TIME  *        10.25 SEC
 DISK USED  *        48.39 MB      
 **********************************************************************************************************************************


 PROGRAM * Intrinsic Basis Bonding Analysis (IBBA)          Author: G. Knizia

 Molecular orbitals read from record     2200.2  Type=UKS/ALPHA (state 1.1)
 Fock matrix read from record            2200.2  Type=UKS/TOTAL (state 1.1)
 Orbital energies read from record       2200.2  Type=UKS/ALPHA (state 1.1)
 Density matrix read from record         2200.2  Type=UKS/CHARGE (state 1.1)

 Number of core orbitals:           2 (   2 )
 Number of closed-shell orbitals:   6 (   6 )
 Number of active  orbitals:        1 (   1 )

 Basis set MINAO-AUTO-PP generated.      Number of basis functions:   15 

 Polarized AO type:                A = (O Ot + (1-O)(1-Ot)) P12
 Orthogonalization method:         Symmetric (Loewdin)
 Localization functional:          L = sum[A,i] <i|n_A|i>^4 -> max

 Localization group 1:   8 orbitals, occupancy  2.000
 Iterative localization: IB/PM,    7 iter; Final gradient 0.74E-08

 Bond order analysis:       [THRPRINT= 0.020]

   CEN ATOM   CEN ATOM     WIBERG.BO      RENORM.BO
     1   C  -   2   C       1.256056       2.040196
     1   C  -   5   H       0.971890       0.975305
     1   C  -   4   H       0.971890       0.975305
     1   C  -   3   H       0.105291       0.586997
     1   C  -   6   H       0.027646       0.130680
     1   C  -   7   H       0.027646       0.130680

     2   C  -   1   C       1.256056       2.040196
     2   C  -   7   H       0.929306       0.980065
     2   C  -   6   H       0.929306       0.980065
     2   C  -   3   H       0.840172       0.997505

     3   H  -   2   C       0.840172       0.997505
     3   H  -   1   C       0.105291       0.586997

     4   H  -   1   C       0.971890       0.975305

     5   H  -   1   C       0.971890       0.975305

     6   H  -   2   C       0.929306       0.980065
     6   H  -   1   C       0.027646       0.130680

     7   H  -   2   C       0.929306       0.980065
     7   H  -   1   C       0.027646       0.130680


 Valency analysis:

   CEN ATOM   TOT.VALENCE
     1   C       3.360421
     2   C       3.958917
     3   H       0.973727
     4   H       0.999373
     5   H       0.999373
     6   H       0.993720
     7   H       0.993720
 Localization group 2:   1 orbitals, occupancy  1.000
 Iterative localization: IB/PM,    1 iter; Final gradient 0.00E+00

 Bond order analysis:       [THRPRINT= 0.020]

   CEN ATOM   CEN ATOM     WIBERG.BO      RENORM.BO
     1   C  -   3   H       0.165891       0.500000
     1   C  -   7   H       0.036962       0.500000
     1   C  -   6   H       0.036962       0.500000


     3   H  -   1   C       0.165891       0.500000



     6   H  -   1   C       0.036962       0.500000

     7   H  -   1   C       0.036962       0.500000


 Valency analysis:

   CEN ATOM   TOT.VALENCE
     1   C       0.257705
     2   C       0.019852
     3   H       0.176480
     4   H       0.000521
     5   H       0.000521
     6   H       0.042634
     7   H       0.042634

 Total charge composition:

   CEN ATOM         s          p       ELECTRONS ->P.CHARGE
     1   C       2.91567    3.16423      6.07990   -0.07990
     2   C       2.87194    3.27690      6.14884   -0.14884
     3   H       0.93572                 0.93572    0.06428
     4   H       0.97523                 0.97523    0.02477
     5   H       0.97523                 0.97523    0.02477
     6   H       0.94254                 0.94254    0.05746
     7   H       0.94254                 0.94254    0.05746

 Total charge composition, AO contributions:

   CEN ATOM SHL      SPHERICAL COMPONENTS
     1   C  1s       1.99822
     1   C  2s       0.91745
     1   C  2p       1.05504    1.03165    1.07755

     2   C  1s       1.99772
     2   C  2s       0.87422
     2   C  2p       1.07677    1.09258    1.10755

     3   H  1s       0.93572

     4   H  1s       0.97523

     5   H  1s       0.97523

     6   H  1s       0.94254

     7   H  1s       0.94254

 Active orbital charges:

   CEN ATOM         s          p       ELECTRONS ->SPIN.DEN
     1   C       0.00296    0.84510      0.84806    0.84806
     2   C       0.00005    0.00998      0.01003    0.01003
     3   H       0.09781                 0.09781    0.09781
     4   H       0.00026                 0.00026    0.00026
     5   H       0.00026                 0.00026    0.00026
     6   H       0.02179                 0.02179    0.02179
     7   H       0.02179                 0.02179    0.02179

 Active orbital charges, AO contributions:

   CEN ATOM SHL      SPHERICAL COMPONENTS
     1   C  1s       0.00000
     1   C  2s       0.00296
     1   C  2p       0.84064    0.00447    0.00000

     2   C  1s       0.00000
     2   C  2s       0.00005
     2   C  2p       0.00997    0.00001    0.00000

     3   H  1s       0.09781

     4   H  1s       0.00026

     5   H  1s       0.00026

     6   H  1s       0.02179

     7   H  1s       0.02179

 Summary of localized orbital composition:   [THRPRINT= 0.020]

   ORB  GRP  ORB.ENERGY      CENTERS/CHARGES
     1   1    -8.128776      C  2   2.000
     2   1    -8.122764      C  1   2.000
     3   1    -0.234138      C  2   1.031   C  1   0.964
     4   1    -0.157428      C  2   1.023   H  3   0.827   C  1   0.145
     5   1    -0.147873      C  2   1.038   H  6   0.911   C  1   0.040
     6   1    -0.147873      C  2   1.038   H  7   0.911   C  1   0.040
     7   1    -0.144637      C  1   1.021   H  5   0.967
     8   1    -0.144637      C  1   1.021   H  4   0.967
     9   2     0.120253      C  1   0.848   H  3   0.098   H  7   0.022   H  6   0.022

 Localized orbitals saved to record      2200.2  (orbital set 4)


 **********************************************************************************************************************************
 DATASETS  * FILE   NREC   LENGTH (MB)   RECORD NAMES
              1      20       35.18       500      610      700      900      950      970     1000      129      960     1100   
                                          VAR    BASINP    GEOM    SYMINP    ZMAT    AOBASIS   BASIS     P2S    ABASIS      S 
                                         1400     1410     1200     1210     1080     1600     1650     1300     1700     1800   
                                           T        V       H0       H01     AOSYM     SMH    MOLCAS    ERIS     OPER     GRID   

              2       5        3.00       700     1000      520     1800     2200   
                                         GEOM     BASIS   MCVARS    GRID      UKS  

 PROGRAMS   *        TOTAL      IBBA       UKS       INT
 CPU TIMES  *         8.01      0.01      7.47      0.38
 REAL TIME  *        10.33 SEC
 DISK USED  *        48.39 MB      
 **********************************************************************************************************************************
 Molecular orbitals read from record     2200.2  Type=UKS/LOCAL(IBO)  
 Occupation numbers read from record     2200.2  Type=UKS/LOCAL(IBO)  
 Orbital energies read from record       2200.2  Type=UKS/LOCAL(IBO)  
 Redundancy group numbers read from rec  2200.2  Type=UKS/BETA (state 1.1)

 IBBA/SVP energy=      0.000000000000

        UKS-SCF 
    -67.29741148
 **********************************************************************************************************************************
 Molpro calculation terminated
