
 Primary working directories    : /tmp/sb13343
 Secondary working directories  : /tmp/sb13343
 Wavefunction directory         : /panfs/panasas01/chem/sb13343/wfu/
 Main file repository           : /tmp/sb13343/

 SHA1      : b4a5b34a9e711420743f49e6833241d17c61fb3c
 NAME      : 2099.9.b4a5b34
 ARCHNAME  : linux/x86_64_openmp
 FC        : /cm/shared/languages/GCC-6.1/bin/gfortran
 BLASLIB   : -lblas
 id        : simonbennie

 Nodes     nprocs
 node35-048    1

 Using customized tuning parameters: mindgm=1; mindgv=20; mindgc=4; mindgr=1; noblas=0; minvec=7
 default implementation of scratch files=df  

 memory,500,m
 geomtyp=xyz
 nosym
 noorient
 geometry={
 C         -0.00146        0.79548        0.00000
 C          0.02225       -0.69390        0.00000
 H         -0.99481       -1.12636        0.00000
 H         -0.09300        1.35197        0.92746
 H         -0.09300        1.35197       -0.92746
 H          0.52802       -1.09351        0.88764
 H          0.52802       -1.09351       -0.88764
 }
 basis={ default,sto-3g }
 {uks,B3LYP5,direct;wf,17,1,1}
 {ibba,bonds=1}

 Variables initialized (895), CPU time= 0.00 sec
 Commands  initialized (725), CPU time= 0.02 sec, 591 directives.
 Default parameters read. Elapsed time= 0.10 sec

 Checking input...
 Passed
1


                                         ***  PROGRAM SYSTEM MOLPRO  ***
                                       Copyright, TTI GmbH Stuttgart, 2015
                                    Version 2099.9 linked May 26 2017 16:03:21


 **********************************************************************************************************************************
 LABEL *                                                                                 
  64 bit serial version                                                                  DATE: 08-Jun-17          TIME: 04:35:57  
 **********************************************************************************************************************************

 SHA1:             b4a5b34a9e711420743f49e6833241d17c61fb3c
 **********************************************************************************************************************************
 SETTING GEOMTYP        =    XYZ

 Variable memory set to  500000000 words,  buffer space 

 ZSYMEL=NOSYM

 SETTING BASIS          =    STO-3G


 Recomputing integrals since basis changed


 Using spherical harmonics

 Library entry C      S STO-3G               selected for orbital group  1
 Library entry C      P STO-3G               selected for orbital group  1
 Library entry H      S STO-3G               selected for orbital group  2


 PROGRAM * SEWARD (Integral evaluation for generally contracted gaussian basis sets)     Author: Roland Lindh, 1990

 Geometry written to block  1 of record 700


 Point group  C1  



 ATOMIC COORDINATES

 NR  ATOM    CHARGE       X              Y              Z

   1  C       6.00   -0.002759000    1.503239338    0.000000000
   2  C       6.00    0.042046406   -1.311280958    0.000000000
   3  H       1.00   -1.879918446   -2.128511918    0.000000000
   4  H       1.00   -0.175744530    2.554853029    1.752645391
   5  H       1.00   -0.175744530    2.554853029   -1.752645391
   6  H       1.00    0.997813188   -2.066434414    1.677396497
   7  H       1.00    0.997813188   -2.066434414   -1.677396497

 Bond lengths in Bohr (Angstrom)

 1-2  2.814876910  1-4  2.051238947  1-5  2.051238947  2-3  2.088495950  2-6  2.073018546
     ( 1.489568712)     ( 1.085468905)     ( 1.085468905)     ( 1.105184462)     ( 1.096994173)

 2-7  2.073018546
     ( 1.096994173)

 Bond angles

  1-2-3  112.12345176   1-2-6  111.81246303   1-2-7  111.81246303   2-1-4  120.92728687

  2-1-5  120.92728687   3-2-6  106.36442052   3-2-7  106.36442052   4-1-5  117.39421083

  6-2-7  108.02720793

 NUCLEAR CHARGE:                   17
 NUMBER OF PRIMITIVE AOS:          45
 NUMBER OF SYMMETRY AOS:           45
 NUMBER OF CONTRACTIONS:           15   (  15A   )
 NUMBER OF CORE ORBITALS:           2   (   2A   )
 NUMBER OF VALENCE ORBITALS:       13   (  13A   )


 NUCLEAR REPULSION ENERGY   36.86300145


 Eigenvalues of metric

         1 0.218E+00 0.272E+00 0.329E+00 0.377E+00 0.382E+00 0.392E+00 0.935E+00 0.955E+00


 Contracted 2-electron integrals neglected if value below      1.0D-11
 AO integral compression algorithm  1   Integral accuracy      1.0D-11

     0.262 MB (compressed) written to integral file (100.0%)


 NUMBER OF SORTED TWO-ELECTRON INTEGRALS:       7260.     BUFFER LENGTH:  32768
 NUMBER OF SEGMENTS:   1  SEGMENT LENGTH:       7260      RECORD LENGTH: 524288

 Memory used in sort:       0.56 MW

 SORT1 READ        9024. AND WROTE        6273. INTEGRALS IN      1 RECORDS. CPU TIME:     0.00 SEC, REAL TIME:     0.01 SEC
 SORT2 READ        6273. AND WROTE        7260. INTEGRALS IN      1 RECORDS. CPU TIME:     0.00 SEC, REAL TIME:     0.00 SEC

 FILE SIZES:   FILE 1:    30.3 MBYTE,  FILE 4:     4.2 MBYTE,   TOTAL:     34.5 MBYTE

 OPERATOR DM      FOR CENTER  0  COORDINATES:    0.000000    0.000000    0.000000


 **********************************************************************************************************************************
 DATASETS  * FILE   NREC   LENGTH (MB)   RECORD NAMES
              1      19       30.09       500      610      700      900      950      970     1000      129      960     1100   
                                          VAR    BASINP    GEOM    SYMINP    ZMAT    AOBASIS   BASIS     P2S    ABASIS      S 
                                         1400     1410     1200     1210     1080     1600     1650     1300     1700   
                                           T        V       H0       H01     AOSYM     SMH    MOLCAS    ERIS     OPER   

 PROGRAMS   *        TOTAL       INT
 CPU TIMES  *         0.35      0.21
 REAL TIME  *         0.97 SEC
 DISK USED  *        34.91 MB      
 **********************************************************************************************************************************

 Density functional group B3LYP5=B88+DIRAC+LYP+VWN5
 Functional: B88(Automatically generated (new) B88)                            Gradient terms: 1
 Functional: DIRAC(Automatically generated (new) DIRAC)                        Gradient terms: 0
 Functional: LYP(Automatically generated (new) LYP)                            Gradient terms: 1
 Functional: VWN5(Automatically generated (new) VWN5)                          Gradient terms: 0
 Use grid at  1800.2


 Exact exchange will be calculated, factor:  0.2000

 Functional: B88                       Factor:  0.7200
 Functional: DIRAC                     Factor:  0.0800
 Functional: LYP                       Factor:  0.8100
 Functional: VWN5                      Factor:  0.1900

 Generated new metagrid on record  1800.2 with target accuracy 1.0D-06 and 23794 points in CPU time    0.5
 Computed new grid on record 1800.1 in CPU time    0.5
   15985 words reserved for DFT integration

 PROGRAM * UKS-SCF (Unrestricted Kohn-Sham)     Authors: W. Meyer, H.-J. Werner, P.J. Knowles, 1993

 NUMBER OF ELECTRONS:       9+    8-    SPACE SYMMETRY=1    SPIN SYMMETRY: Doublet 
 CONVERGENCE THRESHOLDS:    1.00E-05 (Density)    1.00E-06 (Energy)
 MAX. NUMBER OF ITERATIONS:       60
 INTERPOLATION TYPE:            DIIS
 INTERPOLATION STEPS:              2 (START)      1 (STEP)
 LEVEL SHIFTS:                 -0.20 (ALPHA)  -0.20 (BETA) 



 Use fine grid record 1800.2 for energy threshold  1.0D-06
 Orbital guess generated from atomic densities. Full valence occupancy:    9

 Molecular orbital dump at record        2200.2

 Initial alpha occupation   9
 Initial beta  occupation   8

 ITERATION    DDIFF          GRAD             ENERGY        2-EL.EN.            DIPOLE MOMENTS         DIIS
    1      0.000D+00      0.000D+00       -78.06680735    148.503242   -0.11604   -0.22195    0.00000    0
    2      0.578D-01      0.210D-01       -78.13554681    144.646968   -0.04284   -0.10768    0.00000    1
    3      0.588D-02      0.315D-02       -78.13703118    144.943567   -0.03900   -0.08570    0.00000    2
    4      0.160D-02      0.105D-02       -78.13739267    144.929803   -0.03654   -0.07538    0.00000    3
    5      0.117D-02      0.617D-03       -78.13751904    144.930150   -0.03440   -0.06666    0.00000    4
    6      0.266D-03      0.108D-03       -78.13752381    144.929088   -0.03421   -0.06578    0.00000    5
    7      0.468D-04      0.200D-04       -78.13752397    144.929225   -0.03419   -0.06568    0.00000    6
    8      0.748D-05      0.477D-05       -78.13752398    144.929278   -0.03419   -0.06567    0.00000    6
    9      0.137D-05      0.778D-06       -78.13752398    144.929227   -0.03419   -0.06567    0.00000    6

 Final alpha occupancy:   9
 Final beta  occupancy:   8

 !UKS STATE 1.1 Energy                -78.137523977020
 Nuclear energy                        36.86300145
 One-electron energy                 -177.23349935
 Two-electron energy                   72.46461352
 Density functional                   -10.23163959     B88=-12.14645818 DIRAC=-10.90221529 LYP= -0.51507136 VWN5= -1.03581409
 Virial quotient                       -1.01330760
 !UKS STATE 1.1 Dipole moment          -0.03418922    -0.06567261     0.00000000
 Dipole moment /Debye                  -0.08689464    -0.16691220     0.00000000

 Orbital energies for positive spin:

         1.1          2.1          3.1          4.1          5.1          6.1          7.1          8.1          9.1         10.1
    -10.005825    -9.966697    -0.711319    -0.568545    -0.409567    -0.373725    -0.343775    -0.315891    -0.133787     0.403193

        11.1
      0.411627

 Orbital energies for negative spin:

         1.1          2.1          3.1          4.1          5.1          6.1          7.1          8.1          9.1         10.1
    -10.007046    -9.951069    -0.693319    -0.540640    -0.402843    -0.360335    -0.334094    -0.311247     0.076200     0.407149

        11.1
      0.446809

 HOMO      9.1    -0.133787 =      -3.6405eV
 LUMO     -9.1     0.076200 =       2.0735eV
 LUMO-HOMO         0.209987 =       5.7140eV

 EXPECTATION VALUE OF S**2:             0.75425588

 Occupation number threshold for canonical orbitals:  1.999000 (occupied),  0.001000 (virtual)

 Number of pseudo-canonical orbitals per symmetry:    7
 Number of active natural orbitals per symmetry:      3

 Natural orbitals saved to record    2200.2 (Orbital set 3)

 Orbital spaces for UNO-CAS (Min. occupation: 0.020  Max. occupation: 1.980):

 Closed:        8
 Active:        1


 **********************************************************************************************************************************
 DATASETS  * FILE   NREC   LENGTH (MB)   RECORD NAMES
              1      20       30.85       500      610      700      900      950      970     1000      129      960     1100   
                                          VAR    BASINP    GEOM    SYMINP    ZMAT    AOBASIS   BASIS     P2S    ABASIS      S 
                                         1400     1410     1200     1210     1080     1600     1650     1300     1700     1800   
                                           T        V       H0       H01     AOSYM     SMH    MOLCAS    ERIS     OPER     GRID   

              2       5        2.86       700     1000      520     1800     2200   
                                         GEOM     BASIS   MCVARS    GRID      UKS  

 PROGRAMS   *        TOTAL       UKS       INT
 CPU TIMES  *         1.92      1.57      0.21
 REAL TIME  *         3.09 SEC
 DISK USED  *        34.91 MB      
 **********************************************************************************************************************************


 PROGRAM * Intrinsic Basis Bonding Analysis (IBBA)          Author: G. Knizia

 Molecular orbitals read from record     2200.2  Type=UKS/ALPHA (state 1.1)
 Fock matrix read from record            2200.2  Type=UKS/TOTAL (state 1.1)
 Orbital energies read from record       2200.2  Type=UKS/ALPHA (state 1.1)
 Density matrix read from record         2200.2  Type=UKS/CHARGE (state 1.1)

 Number of core orbitals:           2 (   2 )
 Number of closed-shell orbitals:   6 (   6 )
 Number of active  orbitals:        1 (   1 )

 Basis set MINAO-AUTO-PP generated.      Number of basis functions:   15 

 Polarized AO type:                A = (O Ot + (1-O)(1-Ot)) P12
 Orthogonalization method:         Symmetric (Loewdin)
 Localization functional:          L = sum[A,i] <i|n_A|i>^4 -> max

 Localization group 1:   8 orbitals, occupancy  2.000
 Iterative localization: IB/PM,    6 iter; Final gradient 0.38E-08

 Bond order analysis:       [THRPRINT= 0.020]

   CEN ATOM   CEN ATOM     WIBERG.BO      RENORM.BO
     1   C  -   2   C       1.205253       2.017214
     1   C  -   5   H       0.964263       0.985817
     1   C  -   4   H       0.964263       0.985817
     1   C  -   3   H       0.084370       0.628272

     2   C  -   1   C       1.205253       2.017214
     2   C  -   7   H       0.941036       0.990458
     2   C  -   6   H       0.941036       0.990458
     2   C  -   3   H       0.861120       0.998922

     3   H  -   2   C       0.861120       0.998922
     3   H  -   1   C       0.084370       0.628272

     4   H  -   1   C       0.964263       0.985817

     5   H  -   1   C       0.964263       0.985817

     6   H  -   2   C       0.941036       0.990458

     7   H  -   2   C       0.941036       0.990458


 Valency analysis:

   CEN ATOM   TOT.VALENCE
     1   C       3.257382
     2   C       3.950091
     3   H       0.958606
     4   H       0.976886
     5   H       0.976886
     6   H       0.977842
     7   H       0.977842
 Localization group 2:   1 orbitals, occupancy  1.000
 Iterative localization: IB/PM,    1 iter; Final gradient 0.00E+00

 Bond order analysis:       [THRPRINT= 0.020]

   CEN ATOM   CEN ATOM     WIBERG.BO      RENORM.BO
     1   C  -   3   H       0.116159       0.500000
     1   C  -   2   C       0.035403       0.500000
     1   C  -   6   H       0.025817       0.500000
     1   C  -   7   H       0.025817       0.500000

     2   C  -   1   C       0.035403       0.500000

     3   H  -   1   C       0.116159       0.500000



     6   H  -   1   C       0.025817       0.500000

     7   H  -   1   C       0.025817       0.500000


 Valency analysis:

   CEN ATOM   TOT.VALENCE
     1   C       0.204195
     2   C       0.039221
     3   H       0.122693
     4   H       0.000565
     5   H       0.000565
     6   H       0.028759
     7   H       0.028759

 Total charge composition:

   CEN ATOM         s          p       ELECTRONS ->P.CHARGE
     1   C       3.08205    3.29481      6.37686   -0.37686
     2   C       2.98064    3.35232      6.33297   -0.33297
     3   H       0.86220                 0.86220    0.13780
     4   H       0.84825                 0.84825    0.15175
     5   H       0.84825                 0.84825    0.15175
     6   H       0.86574                 0.86574    0.13426
     7   H       0.86574                 0.86574    0.13426

 Total charge composition, AO contributions:

   CEN ATOM SHL      SPHERICAL COMPONENTS
     1   C  1s       1.99289
     1   C  2s       1.08917
     1   C  2p       1.05011    1.07267    1.17203

     2   C  1s       1.99167
     2   C  2s       0.98898
     2   C  2p       1.13407    1.05280    1.16546

     3   H  1s       0.86220

     4   H  1s       0.84825

     5   H  1s       0.84825

     6   H  1s       0.86574

     7   H  1s       0.86574

 Active orbital charges:

   CEN ATOM         s          p       ELECTRONS ->SPIN.DEN
     1   C       0.00246    0.88212      0.88458    0.88458
     2   C       0.00005    0.01996      0.02001    0.02001
     3   H       0.06566                 0.06566    0.06566
     4   H       0.00028                 0.00028    0.00028
     5   H       0.00028                 0.00028    0.00028
     6   H       0.01459                 0.01459    0.01459
     7   H       0.01459                 0.01459    0.01459

 Active orbital charges, AO contributions:

   CEN ATOM SHL      SPHERICAL COMPONENTS
     1   C  1s       0.00000
     1   C  2s       0.00246
     1   C  2p       0.87850    0.00362    0.00000

     2   C  1s       0.00000
     2   C  2s       0.00005
     2   C  2p       0.01970    0.00026    0.00000

     3   H  1s       0.06566

     4   H  1s       0.00028

     5   H  1s       0.00028

     6   H  1s       0.01459

     7   H  1s       0.01459

 Summary of localized orbital composition:   [THRPRINT= 0.020]

   ORB  GRP  ORB.ENERGY      CENTERS/CHARGES
     1   1    -9.893163      C  2   2.000
     2   1    -9.851452      C  1   2.000
     3   1    -0.547819      C  1   1.017   C  2   0.980
     4   1    -0.481595      C  1   1.152   H  4   0.843
     5   1    -0.481595      C  1   1.152   H  5   0.843
     6   1    -0.463867      C  2   1.088   H  3   0.792   C  1   0.116
     7   1    -0.461799      C  2   1.120   H  7   0.846   C  1   0.028
     8   1    -0.461799      C  2   1.120   H  6   0.846   C  1   0.028
     9   2    -0.030871      C  1   0.885   H  3   0.066   C  2   0.020   (other: 0.030)

 Localized orbitals saved to record      2200.2  (orbital set 4)


 **********************************************************************************************************************************
 DATASETS  * FILE   NREC   LENGTH (MB)   RECORD NAMES
              1      20       30.85       500      610      700      900      950      970     1000      129      960     1100   
                                          VAR    BASINP    GEOM    SYMINP    ZMAT    AOBASIS   BASIS     P2S    ABASIS      S 
                                         1400     1410     1200     1210     1080     1600     1650     1300     1700     1800   
                                           T        V       H0       H01     AOSYM     SMH    MOLCAS    ERIS     OPER     GRID   

              2       5        2.87       700     1000      520     1800     2200   
                                         GEOM     BASIS   MCVARS    GRID      UKS  

 PROGRAMS   *        TOTAL      IBBA       UKS       INT
 CPU TIMES  *         1.94      0.02      1.57      0.21
 REAL TIME  *         3.18 SEC
 DISK USED  *        34.91 MB      
 **********************************************************************************************************************************
 Molecular orbitals read from record     2200.2  Type=UKS/LOCAL(IBO)  
 Occupation numbers read from record     2200.2  Type=UKS/LOCAL(IBO)  
 Orbital energies read from record       2200.2  Type=UKS/LOCAL(IBO)  
 Redundancy group numbers read from rec  2200.2  Type=UKS/BETA (state 1.1)

 IBBA/STO-3G energy=      0.000000000000

        UKS-SCF 
    -78.13752398
 **********************************************************************************************************************************
 Molpro calculation terminated
