
 Primary working directories    : /tmp/sb13343
 Secondary working directories  : /tmp/sb13343
 Wavefunction directory         : /panfs/panasas01/chem/sb13343/wfu/
 Main file repository           : /tmp/sb13343/

 SHA1      : b4a5b34a9e711420743f49e6833241d17c61fb3c
 NAME      : 2099.9.b4a5b34
 ARCHNAME  : linux/x86_64_openmp
 FC        : /cm/shared/languages/GCC-6.1/bin/gfortran
 BLASLIB   : -lblas
 id        : simonbennie

 Nodes     nprocs
 node35-048    1

 Using customized tuning parameters: mindgm=1; mindgv=20; mindgc=4; mindgr=1; noblas=0; minvec=7
 default implementation of scratch files=df  

 memory,500,m
 geomtyp=xyz
 nosym
 noorient
 geometry={
 C         -0.00146        0.79548        0.00000
 C          0.02225       -0.69390        0.00000
 H         -0.99481       -1.12636        0.00000
 H         -0.09300        1.35197        0.92746
 H         -0.09300        1.35197       -0.92746
 H          0.52802       -1.09351        0.88764
 H          0.52802       -1.09351       -0.88764
 }
 basis={ default,svp }
 {uks,MM06-HF,direct;wf,17,1,1}
 {ibba,bonds=1}

 Variables initialized (895), CPU time= 0.00 sec
 Commands  initialized (725), CPU time= 0.02 sec, 591 directives.
 Default parameters read. Elapsed time= 0.09 sec

 Checking input...
 Passed
1


                                         ***  PROGRAM SYSTEM MOLPRO  ***
                                       Copyright, TTI GmbH Stuttgart, 2015
                                    Version 2099.9 linked May 26 2017 16:03:21


 **********************************************************************************************************************************
 LABEL *                                                                                 
  64 bit serial version                                                                  DATE: 08-Jun-17          TIME: 05:01:01  
 **********************************************************************************************************************************

 SHA1:             b4a5b34a9e711420743f49e6833241d17c61fb3c
 **********************************************************************************************************************************
 SETTING GEOMTYP        =    XYZ

 Variable memory set to  500000000 words,  buffer space 

 ZSYMEL=NOSYM

 SETTING BASIS          =    SVP


 Recomputing integrals since basis changed


 Using spherical harmonics

 Library entry C      S def2-SVP             selected for orbital group  1
 Library entry C      P def2-SVP             selected for orbital group  1
 Library entry C      D def2-SVP             selected for orbital group  1
 Library entry H      S def2-SVP             selected for orbital group  2
 Library entry H      P def2-SVP             selected for orbital group  2


 PROGRAM * SEWARD (Integral evaluation for generally contracted gaussian basis sets)     Author: Roland Lindh, 1990

 Geometry written to block  1 of record 700


 Point group  C1  



 ATOMIC COORDINATES

 NR  ATOM    CHARGE       X              Y              Z

   1  C       6.00   -0.002759000    1.503239338    0.000000000
   2  C       6.00    0.042046406   -1.311280958    0.000000000
   3  H       1.00   -1.879918446   -2.128511918    0.000000000
   4  H       1.00   -0.175744530    2.554853029    1.752645391
   5  H       1.00   -0.175744530    2.554853029   -1.752645391
   6  H       1.00    0.997813188   -2.066434414    1.677396497
   7  H       1.00    0.997813188   -2.066434414   -1.677396497

 Bond lengths in Bohr (Angstrom)

 1-2  2.814876910  1-4  2.051238947  1-5  2.051238947  2-3  2.088495950  2-6  2.073018546
     ( 1.489568712)     ( 1.085468905)     ( 1.085468905)     ( 1.105184462)     ( 1.096994173)

 2-7  2.073018546
     ( 1.096994173)

 Bond angles

  1-2-3  112.12345176   1-2-6  111.81246303   1-2-7  111.81246303   2-1-4  120.92728687

  2-1-5  120.92728687   3-2-6  106.36442052   3-2-7  106.36442052   4-1-5  117.39421083

  6-2-7  108.02720793

 NUCLEAR CHARGE:                   17
 NUMBER OF PRIMITIVE AOS:          85
 NUMBER OF SYMMETRY AOS:           83
 NUMBER OF CONTRACTIONS:           53   (  53A   )
 NUMBER OF CORE ORBITALS:           2   (   2A   )
 NUMBER OF VALENCE ORBITALS:       13   (  13A   )


 NUCLEAR REPULSION ENERGY   36.86300145


 Eigenvalues of metric

         1 0.525E-02 0.232E-01 0.271E-01 0.397E-01 0.503E-01 0.635E-01 0.102E+00 0.110E+00


 Contracted 2-electron integrals neglected if value below      1.0D-11
 AO integral compression algorithm  1   Integral accuracy      1.0D-11

     5.243 MB (compressed) written to integral file ( 52.3%)


 NUMBER OF SORTED TWO-ELECTRON INTEGRALS:    1024596.     BUFFER LENGTH:  32768
 NUMBER OF SEGMENTS:   1  SEGMENT LENGTH:    1024596      RECORD LENGTH: 524288

 Memory used in sort:       1.58 MW

 SORT1 READ     1206537. AND WROTE      940164. INTEGRALS IN      3 RECORDS. CPU TIME:     0.01 SEC, REAL TIME:     0.07 SEC
 SORT2 READ      940164. AND WROTE     1024596. INTEGRALS IN     20 RECORDS. CPU TIME:     0.05 SEC, REAL TIME:     0.22 SEC

 FILE SIZES:   FILE 1:    35.4 MBYTE,  FILE 4:    12.6 MBYTE,   TOTAL:     48.0 MBYTE

 OPERATOR DM      FOR CENTER  0  COORDINATES:    0.000000    0.000000    0.000000


 **********************************************************************************************************************************
 DATASETS  * FILE   NREC   LENGTH (MB)   RECORD NAMES
              1      19       34.42       500      610      700      900      950      970     1000      129      960     1100   
                                          VAR    BASINP    GEOM    SYMINP    ZMAT    AOBASIS   BASIS     P2S    ABASIS      S 
                                         1400     1410     1200     1210     1080     1600     1650     1300     1700   
                                           T        V       H0       H01     AOSYM     SMH    MOLCAS    ERIS     OPER   

 PROGRAMS   *        TOTAL       INT
 CPU TIMES  *         0.55      0.40
 REAL TIME  *         1.46 SEC
 DISK USED  *        48.39 MB      
 **********************************************************************************************************************************

 Density functional group MM06-HF=M06HFX+M06HFC
 Functional: M06HFX(Automatically generated (new) M06HFX)                      Gradient terms: 2
 Functional: M06HFC(Automatically generated (new) M06HFC)                      Gradient terms: 2
 Use grid at  1800.2


 Exact exchange will be calculated, factor:  1.0000

 Functional: M06HFX                    Factor:  1.0000
 Functional: M06HFC                    Factor:  1.0000

 Generated new metagrid on record  1800.2 with target accuracy 1.0D-06 and 23794 points in CPU time    0.5
 Computed new grid on record 1800.1 in CPU time    0.5
   86399 words reserved for DFT integration

 PROGRAM * UKS-SCF (Unrestricted Kohn-Sham)     Authors: W. Meyer, H.-J. Werner, P.J. Knowles, 1993

 NUMBER OF ELECTRONS:       9+    8-    SPACE SYMMETRY=1    SPIN SYMMETRY: Doublet 
 CONVERGENCE THRESHOLDS:    1.00E-05 (Density)    1.00E-06 (Energy)
 MAX. NUMBER OF ITERATIONS:       60
 INTERPOLATION TYPE:            DIIS
 INTERPOLATION STEPS:              2 (START)      1 (STEP)
 LEVEL SHIFTS:                 -0.20 (ALPHA)  -0.20 (BETA) 



 Use fine grid record 1800.2 for energy threshold  1.0D-06
 Orbital guess generated from atomic densities. Full valence occupancy:    9

 Molecular orbital dump at record        2200.2

 Initial alpha occupation   9
 Initial beta  occupation   8

 ITERATION    DDIFF          GRAD             ENERGY        2-EL.EN.            DIPOLE MOMENTS         DIIS
    1      0.000D+00      0.000D+00       -79.01714136    125.965174   -0.11559   -0.35939   -0.00000    0
    2      0.476D-02      0.378D-02       -79.04154679    124.521181   -0.08386   -0.22763    0.00000    1
    3      0.170D-02      0.151D-02       -79.04689327    124.668656   -0.07612   -0.16743    0.00000    2
    4      0.161D-02      0.849D-03       -79.04941762    124.639907   -0.06933   -0.11876    0.00000    3
    5      0.812D-03      0.372D-03       -79.04993601    124.620560   -0.06511   -0.10034    0.00000    4
    6      0.336D-03      0.147D-03       -79.05003059    124.617399   -0.06290   -0.09331    0.00000    5
    7      0.983D-04      0.442D-04       -79.05003848    124.614945   -0.06212   -0.09147    0.00000    6
    8      0.428D-04      0.142D-04       -79.05003937    124.614859   -0.06184   -0.09139    0.00000    7
    9      0.170D-04      0.484D-05       -79.05003951    124.615086   -0.06180   -0.09147    0.00000    7
   10      0.965D-05      0.193D-05       -79.05003954    124.615078   -0.06176   -0.09150    0.00000    7
   11      0.405D-05      0.668D-06       -79.05003954    124.615093   -0.06175   -0.09150    0.00000    7

 Final alpha occupancy:   9
 Final beta  occupancy:   8

 !UKS STATE 1.1 Energy                -79.050039540613
 Nuclear energy                        36.86300145
 One-electron energy                 -177.70570160
 Two-electron energy                   62.30754671
 Density functional                    -0.51488610     M06HFX= 0.04484656 M06HFC=-0.55973266
 Virial quotient                       -1.01298339
 !UKS STATE 1.1 Dipole moment          -0.06174747    -0.09149604     0.00000000
 Dipole moment /Debye                  -0.15693614    -0.23254451     0.00000000

 Orbital energies for positive spin:

         1.1          2.1          3.1          4.1          5.1          6.1          7.1          8.1          9.1         10.1
    -10.978306   -10.974699    -0.949634    -0.780745    -0.613082    -0.566649    -0.537930    -0.502763    -0.318323     0.143687

        11.1
      0.185664

 Orbital energies for negative spin:

         1.1          2.1          3.1          4.1          5.1          6.1          7.1          8.1          9.1         10.1
    -10.978015   -10.975199    -0.931648    -0.759079    -0.601260    -0.543228    -0.522526    -0.499459     0.070403     0.135509

        11.1
      0.177138

 HOMO      9.1    -0.318323 =      -8.6620eV
 LUMO     -9.1     0.070403 =       1.9158eV
 LUMO-HOMO         0.388726 =      10.5778eV

 EXPECTATION VALUE OF S**2:             0.75618143

 Occupation number threshold for canonical orbitals:  1.999000 (occupied),  0.001000 (virtual)

 Number of pseudo-canonical orbitals per symmetry:    6
 Number of active natural orbitals per symmetry:      5

 Natural orbitals saved to record    2200.2 (Orbital set 3)

 Orbital spaces for UNO-CAS (Min. occupation: 0.020  Max. occupation: 1.980):

 Closed:        8
 Active:        1


 **********************************************************************************************************************************
 DATASETS  * FILE   NREC   LENGTH (MB)   RECORD NAMES
              1      20       35.18       500      610      700      900      950      970     1000      129      960     1100   
                                          VAR    BASINP    GEOM    SYMINP    ZMAT    AOBASIS   BASIS     P2S    ABASIS      S 
                                         1400     1410     1200     1210     1080     1600     1650     1300     1700     1800   
                                           T        V       H0       H01     AOSYM     SMH    MOLCAS    ERIS     OPER     GRID   

              2       5        2.98       700     1000      520     1800     2200   
                                         GEOM     BASIS   MCVARS    GRID      UKS  

 PROGRAMS   *        TOTAL       UKS       INT
 CPU TIMES  *        14.51     13.96      0.40
 REAL TIME  *        17.76 SEC
 DISK USED  *        48.39 MB      
 **********************************************************************************************************************************


 PROGRAM * Intrinsic Basis Bonding Analysis (IBBA)          Author: G. Knizia

 Molecular orbitals read from record     2200.2  Type=UKS/ALPHA (state 1.1)
 Fock matrix read from record            2200.2  Type=UKS/TOTAL (state 1.1)
 Orbital energies read from record       2200.2  Type=UKS/ALPHA (state 1.1)
 Density matrix read from record         2200.2  Type=UKS/CHARGE (state 1.1)

 Number of core orbitals:           2 (   2 )
 Number of closed-shell orbitals:   6 (   6 )
 Number of active  orbitals:        1 (   1 )

 Basis set MINAO-AUTO-PP generated.      Number of basis functions:   15 

 Polarized AO type:                A = (O Ot + (1-O)(1-Ot)) P12
 Orthogonalization method:         Symmetric (Loewdin)
 Localization functional:          L = sum[A,i] <i|n_A|i>^4 -> max

 Localization group 1:   8 orbitals, occupancy  2.000
 Iterative localization: IB/PM,    6 iter; Final gradient 0.80E-08

 Bond order analysis:       [THRPRINT= 0.020]

   CEN ATOM   CEN ATOM     WIBERG.BO      RENORM.BO
     1   C  -   2   C       1.231410       2.015604
     1   C  -   5   H       0.956480       0.986726
     1   C  -   4   H       0.956480       0.986726
     1   C  -   3   H       0.095522       0.621843
     1   C  -   6   H       0.022083       0.127176
     1   C  -   7   H       0.022083       0.127176

     2   C  -   1   C       1.231410       2.015604
     2   C  -   7   H       0.936484       0.990981
     2   C  -   6   H       0.936484       0.990981
     2   C  -   3   H       0.840943       0.998830

     3   H  -   2   C       0.840943       0.998830
     3   H  -   1   C       0.095522       0.621843

     4   H  -   1   C       0.956480       0.986726

     5   H  -   1   C       0.956480       0.986726

     6   H  -   2   C       0.936484       0.990981
     6   H  -   1   C       0.022083       0.127176

     7   H  -   2   C       0.936484       0.990981
     7   H  -   1   C       0.022083       0.127176


 Valency analysis:

   CEN ATOM   TOT.VALENCE
     1   C       3.284059
     2   C       3.949026
     3   H       0.951868
     4   H       0.970986
     5   H       0.970986
     6   H       0.976327
     7   H       0.976327
 Localization group 2:   1 orbitals, occupancy  1.000
 Iterative localization: IB/PM,    1 iter; Final gradient 0.00E+00

 Bond order analysis:       [THRPRINT= 0.020]

   CEN ATOM   CEN ATOM     WIBERG.BO      RENORM.BO
     1   C  -   3   H       0.117146       0.500000
     1   C  -   2   C       0.037419       0.500000
     1   C  -   6   H       0.025356       0.500000
     1   C  -   7   H       0.025356       0.500000

     2   C  -   1   C       0.037419       0.500000

     3   H  -   1   C       0.117146       0.500000



     6   H  -   1   C       0.025356       0.500000

     7   H  -   1   C       0.025356       0.500000


 Valency analysis:

   CEN ATOM   TOT.VALENCE
     1   C       0.206797
     2   C       0.041484
     3   H       0.123883
     4   H       0.000861
     5   H       0.000861
     6   H       0.028307
     7   H       0.028307

 Total charge composition:

   CEN ATOM         s          p       ELECTRONS ->P.CHARGE
     1   C       3.05395    3.40555      6.45950   -0.45950
     2   C       2.97589    3.33647      6.31237   -0.31237
     3   H       0.84695                 0.84695    0.15305
     4   H       0.83009                 0.83009    0.16991
     5   H       0.83009                 0.83009    0.16991
     6   H       0.86050                 0.86050    0.13950
     7   H       0.86050                 0.86050    0.13950

 Total charge composition, AO contributions:

   CEN ATOM SHL      SPHERICAL COMPONENTS
     1   C  1s       1.99170
     1   C  2s       1.06225
     1   C  2p       1.07667    1.11375    1.21513

     2   C  1s       1.99019
     2   C  2s       0.98570
     2   C  2p       1.12787    1.03753    1.17108

     3   H  1s       0.84695

     4   H  1s       0.83009

     5   H  1s       0.83009

     6   H  1s       0.86050

     7   H  1s       0.86050

 Active orbital charges:

   CEN ATOM         s          p       ELECTRONS ->SPIN.DEN
     1   C       0.00239    0.88049      0.88289    0.88289
     2   C       0.00006    0.02113      0.02119    0.02119
     3   H       0.06634                 0.06634    0.06634
     4   H       0.00043                 0.00043    0.00043
     5   H       0.00043                 0.00043    0.00043
     6   H       0.01436                 0.01436    0.01436
     7   H       0.01436                 0.01436    0.01436

 Active orbital charges, AO contributions:

   CEN ATOM SHL      SPHERICAL COMPONENTS
     1   C  1s       0.00001
     1   C  2s       0.00239
     1   C  2p       0.87667    0.00382    0.00000

     2   C  1s       0.00000
     2   C  2s       0.00006
     2   C  2p       0.02079    0.00034    0.00000

     3   H  1s       0.06634

     4   H  1s       0.00043

     5   H  1s       0.00043

     6   H  1s       0.01436

     7   H  1s       0.01436

 Summary of localized orbital composition:   [THRPRINT= 0.020]

   ORB  GRP  ORB.ENERGY      CENTERS/CHARGES
     1   1   -10.866610      C  1   2.000
     2   1   -10.854108      C  2   2.000
     3   1    -0.773431      C  1   1.034   C  2   0.961
     4   1    -0.687051      C  1   1.171   H  4   0.823
     5   1    -0.687051      C  1   1.171   H  5   0.823
     6   1    -0.659576      C  2   1.121   H  7   0.841   C  1   0.032
     7   1    -0.659576      C  2   1.121   H  6   0.841   C  1   0.032
     8   1    -0.659039      C  2   1.084   H  3   0.775   C  1   0.137
     9   2    -0.117033      C  1   0.883   H  3   0.066   C  2   0.021   (other: 0.030)

 Localized orbitals saved to record      2200.2  (orbital set 4)


 **********************************************************************************************************************************
 DATASETS  * FILE   NREC   LENGTH (MB)   RECORD NAMES
              1      20       35.18       500      610      700      900      950      970     1000      129      960     1100   
                                          VAR    BASINP    GEOM    SYMINP    ZMAT    AOBASIS   BASIS     P2S    ABASIS      S 
                                         1400     1410     1200     1210     1080     1600     1650     1300     1700     1800   
                                           T        V       H0       H01     AOSYM     SMH    MOLCAS    ERIS     OPER     GRID   

              2       5        3.00       700     1000      520     1800     2200   
                                         GEOM     BASIS   MCVARS    GRID      UKS  

 PROGRAMS   *        TOTAL      IBBA       UKS       INT
 CPU TIMES  *        14.53      0.01     13.96      0.40
 REAL TIME  *        17.84 SEC
 DISK USED  *        48.39 MB      
 **********************************************************************************************************************************
 Molecular orbitals read from record     2200.2  Type=UKS/LOCAL(IBO)  
 Occupation numbers read from record     2200.2  Type=UKS/LOCAL(IBO)  
 Orbital energies read from record       2200.2  Type=UKS/LOCAL(IBO)  
 Redundancy group numbers read from rec  2200.2  Type=UKS/BETA (state 1.1)

 IBBA/SVP energy=      0.000000000000

        UKS-SCF 
    -79.05003954
 **********************************************************************************************************************************
 Molpro calculation terminated
