
 Primary working directories    : /tmp/sb13343
 Secondary working directories  : /tmp/sb13343
 Wavefunction directory         : /panfs/panasas01/chem/sb13343/wfu/
 Main file repository           : /tmp/sb13343/

 SHA1      : b4a5b34a9e711420743f49e6833241d17c61fb3c
 NAME      : 2099.9.b4a5b34
 ARCHNAME  : linux/x86_64_openmp
 FC        : /cm/shared/languages/GCC-6.1/bin/gfortran
 BLASLIB   : -lblas
 id        : simonbennie

 Nodes     nprocs
 node35-048    1

 Using customized tuning parameters: mindgm=1; mindgv=20; mindgc=4; mindgr=1; noblas=0; minvec=7
 default implementation of scratch files=df  

 memory,500,m
 geomtyp=xyz
 nosym
 noorient
 geometry={
 C         -0.00146        0.79548        0.00000
 C          0.02225       -0.69390        0.00000
 H         -0.99481       -1.12636        0.00000
 H         -0.09300        1.35197        0.92746
 H         -0.09300        1.35197       -0.92746
 H          0.52802       -1.09351        0.88764
 H          0.52802       -1.09351       -0.88764
 }
 basis={ default,svp }
 {ks,MM06-L,direct;wf,17,1,1}
 {ibba,bonds=1}

 Variables initialized (895), CPU time= 0.01 sec
 Commands  initialized (725), CPU time= 0.01 sec, 591 directives.
 Default parameters read. Elapsed time= 0.16 sec

 Checking input...
 Passed
1


                                         ***  PROGRAM SYSTEM MOLPRO  ***
                                       Copyright, TTI GmbH Stuttgart, 2015
                                    Version 2099.9 linked May 26 2017 16:03:21


 **********************************************************************************************************************************
 LABEL *                                                                                 
  64 bit serial version                                                                  DATE: 08-Jun-17          TIME: 05:00:29  
 **********************************************************************************************************************************

 SHA1:             b4a5b34a9e711420743f49e6833241d17c61fb3c
 **********************************************************************************************************************************
 SETTING GEOMTYP        =    XYZ

 Variable memory set to  500000000 words,  buffer space 

 ZSYMEL=NOSYM

 SETTING BASIS          =    SVP


 Recomputing integrals since basis changed


 Using spherical harmonics

 Library entry C      S def2-SVP             selected for orbital group  1
 Library entry C      P def2-SVP             selected for orbital group  1
 Library entry C      D def2-SVP             selected for orbital group  1
 Library entry H      S def2-SVP             selected for orbital group  2
 Library entry H      P def2-SVP             selected for orbital group  2


 PROGRAM * SEWARD (Integral evaluation for generally contracted gaussian basis sets)     Author: Roland Lindh, 1990

 Geometry written to block  1 of record 700


 Point group  C1  



 ATOMIC COORDINATES

 NR  ATOM    CHARGE       X              Y              Z

   1  C       6.00   -0.002759000    1.503239338    0.000000000
   2  C       6.00    0.042046406   -1.311280958    0.000000000
   3  H       1.00   -1.879918446   -2.128511918    0.000000000
   4  H       1.00   -0.175744530    2.554853029    1.752645391
   5  H       1.00   -0.175744530    2.554853029   -1.752645391
   6  H       1.00    0.997813188   -2.066434414    1.677396497
   7  H       1.00    0.997813188   -2.066434414   -1.677396497

 Bond lengths in Bohr (Angstrom)

 1-2  2.814876910  1-4  2.051238947  1-5  2.051238947  2-3  2.088495950  2-6  2.073018546
     ( 1.489568712)     ( 1.085468905)     ( 1.085468905)     ( 1.105184462)     ( 1.096994173)

 2-7  2.073018546
     ( 1.096994173)

 Bond angles

  1-2-3  112.12345176   1-2-6  111.81246303   1-2-7  111.81246303   2-1-4  120.92728687

  2-1-5  120.92728687   3-2-6  106.36442052   3-2-7  106.36442052   4-1-5  117.39421083

  6-2-7  108.02720793

 NUCLEAR CHARGE:                   17
 NUMBER OF PRIMITIVE AOS:          85
 NUMBER OF SYMMETRY AOS:           83
 NUMBER OF CONTRACTIONS:           53   (  53A   )
 NUMBER OF CORE ORBITALS:           2   (   2A   )
 NUMBER OF VALENCE ORBITALS:       13   (  13A   )


 NUCLEAR REPULSION ENERGY   36.86300145


 Eigenvalues of metric

         1 0.525E-02 0.232E-01 0.271E-01 0.397E-01 0.503E-01 0.635E-01 0.102E+00 0.110E+00


 Contracted 2-electron integrals neglected if value below      1.0D-11
 AO integral compression algorithm  1   Integral accuracy      1.0D-11

     5.243 MB (compressed) written to integral file ( 52.3%)


 NUMBER OF SORTED TWO-ELECTRON INTEGRALS:    1024596.     BUFFER LENGTH:  32768
 NUMBER OF SEGMENTS:   1  SEGMENT LENGTH:    1024596      RECORD LENGTH: 524288

 Memory used in sort:       1.58 MW

 SORT1 READ     1206537. AND WROTE      940164. INTEGRALS IN      3 RECORDS. CPU TIME:     0.01 SEC, REAL TIME:     0.02 SEC
 SORT2 READ      940164. AND WROTE     1024596. INTEGRALS IN     20 RECORDS. CPU TIME:     0.05 SEC, REAL TIME:     0.06 SEC

 FILE SIZES:   FILE 1:    35.4 MBYTE,  FILE 4:    12.6 MBYTE,   TOTAL:     48.0 MBYTE

 OPERATOR DM      FOR CENTER  0  COORDINATES:    0.000000    0.000000    0.000000


 **********************************************************************************************************************************
 DATASETS  * FILE   NREC   LENGTH (MB)   RECORD NAMES
              1      19       34.42       500      610      700      900      950      970     1000      129      960     1100   
                                          VAR    BASINP    GEOM    SYMINP    ZMAT    AOBASIS   BASIS     P2S    ABASIS      S 
                                         1400     1410     1200     1210     1080     1600     1650     1300     1700   
                                           T        V       H0       H01     AOSYM     SMH    MOLCAS    ERIS     OPER   

 PROGRAMS   *        TOTAL       INT
 CPU TIMES  *         0.52      0.38
 REAL TIME  *         1.04 SEC
 DISK USED  *        48.39 MB      
 **********************************************************************************************************************************

 Density functional group MM06-L=M06LX+M06LC
 Functional: M06LX(Automatically generated (new) M06LX)                        Gradient terms: 2
 Functional: M06LC(Automatically generated (new) M06LC)                        Gradient terms: 2
 Use grid at  1800.2

 Functional: M06LX                     Factor:  1.0000
 Functional: M06LC                     Factor:  1.0000

 Generated new metagrid on record  1800.2 with target accuracy 1.0D-06 and 23794 points in CPU time    0.5
 Computed new grid on record 1800.1 in CPU time    0.6
   86399 words reserved for DFT integration

 PROGRAM * RKS-SCF (Restricted open shell Kohn-Sham)     Authors: W. Meyer, H.-J. Werner, P.J. Knowles, 1993

 NUMBER OF ELECTRONS:       9+    8-    SPACE SYMMETRY=1    SPIN SYMMETRY: Doublet 
 CONVERGENCE THRESHOLDS:    1.00E-05 (Density)    1.00E-06 (Energy)
 MAX. NUMBER OF ITERATIONS:       60
 INTERPOLATION TYPE:            DIIS
 INTERPOLATION STEPS:              2 (START)      1 (STEP)
 LEVEL SHIFTS:                 -0.60 (CLOSED) -0.30 (OPEN) 



 Use fine grid record 1800.2 for energy threshold  1.0D-06
 Orbital guess generated from atomic densities. Full valence occupancy:    9

 Molecular orbital dump at record        2100.2

 Initial alpha occupancy:   9
 Initial beta  occupancy:   8
 Wave function symmetry:    1

 ITERATION    DDIFF          GRAD             ENERGY        2-EL.EN.            DIPOLE MOMENTS         DIIS   ORB.
    1      0.000D+00      0.000D+00       -78.98752215    154.424362   -0.10634   -0.22974    0.00000    0    start
    2      0.000D+00      0.137D-01       -79.07290903    147.835421   -0.04211   -0.10061    0.00000    1    diag,B
    3      0.148D-01      0.440D-02       -79.08067662    149.080088   -0.05633   -0.12235    0.00000    2    diag,B
    4      0.375D-02      0.584D-03       -79.08106307    148.988692   -0.05198   -0.11568    0.00000    3    diag,B
    5      0.112D-02      0.206D-03       -79.08112718    148.964224   -0.04956   -0.11141    0.00000    4    diag,B
    6      0.592D-03      0.573D-04       -79.08113294    148.957871   -0.04840   -0.10992    0.00000    5    diag,B
    7      0.218D-03      0.112D-04       -79.08113316    148.957606   -0.04816   -0.10954    0.00000    6    fixocc
    8      0.361D-04      0.427D-05       -79.08113319    148.957894   -0.04808   -0.10952    0.00000    7    diag,B
    9      0.134D-04      0.114D-05       -79.08113320    148.957910   -0.04805   -0.10950    0.00000    8    diag,B
   10      0.478D-05      0.402D-06       -79.08113320    148.957916   -0.04804   -0.10950    0.00000    0    orth

 Final alpha occupancy:   9
 Final beta  occupancy:   8

 !RKS STATE 1.1 Energy                -79.081133198557
 Nuclear energy                        36.86300145
 One-electron energy                 -177.76642395
 Two-electron energy                   74.47895808
 Density functional                   -12.65666878     M06LX=-12.11196944 M06LC= -0.54469934
 Virial quotient                       -1.01223240
 !RKS STATE 1.1 Dipole moment          -0.04803986    -0.10949952     0.00000000
 Dipole moment /Debye                  -0.12209714    -0.27830178     0.00000000

 Orbital energies:

         1.1          2.1          3.1          4.1          5.1          6.1          7.1          8.1          9.1         10.1
    -10.059675   -10.056528    -0.700845    -0.550711    -0.406596    -0.368205    -0.354753    -0.317573    -0.174142     0.092342

        11.1
      0.114535

 HOMO      9.1    -0.174142 =      -4.7386eV
 LUMO     10.1     0.092342 =       2.5128eV
 LUMO-HOMO         0.266484 =       7.2514eV


 **********************************************************************************************************************************
 DATASETS  * FILE   NREC   LENGTH (MB)   RECORD NAMES
              1      20       35.18       500      610      700      900      950      970     1000      129      960     1100   
                                          VAR    BASINP    GEOM    SYMINP    ZMAT    AOBASIS   BASIS     P2S    ABASIS      S 
                                         1400     1410     1200     1210     1080     1600     1650     1300     1700     1800   
                                           T        V       H0       H01     AOSYM     SMH    MOLCAS    ERIS     OPER     GRID   

              2       5        2.94       700     1000      520     1800     2100   
                                         GEOM     BASIS   MCVARS    GRID      RKS  

 PROGRAMS   *        TOTAL        KS       INT
 CPU TIMES  *        12.84     12.32      0.38
 REAL TIME  *        14.07 SEC
 DISK USED  *        48.39 MB      
 **********************************************************************************************************************************


 PROGRAM * Intrinsic Basis Bonding Analysis (IBBA)          Author: G. Knizia

 Molecular orbitals read from record     2100.2  Type=RKS/CANONICAL (state 1.1)
 Fock matrix read from record            2100.2  Type=RKS/TOTAL (state 1.1)
 Orbital energies read from record       2100.2  Type=RKS/CANONICAL (state 1.1)
 Density matrix read from record         2100.2  Type=RKS/CHARGE (state 1.1)

 Number of core orbitals:           2 (   2 )
 Number of closed-shell orbitals:   6 (   6 )
 Number of active  orbitals:        1 (   1 )

 Basis set MINAO-AUTO-PP generated.      Number of basis functions:   15 

 Polarized AO type:                A = (O Ot + (1-O)(1-Ot)) P12
 Orthogonalization method:         Symmetric (Loewdin)
 Localization functional:          L = sum[A,i] <i|n_A|i>^4 -> max

 Localization group 1:   8 orbitals, occupancy  2.000
 Iterative localization: IB/PM,    6 iter; Final gradient 0.23E-08

 Bond order analysis:       [THRPRINT= 0.020]

   CEN ATOM   CEN ATOM     WIBERG.BO      RENORM.BO
     1   C  -   2   C       1.131098       2.022606
     1   C  -   5   H       0.965645       0.981559
     1   C  -   4   H       0.965645       0.981559
     1   C  -   3   H       0.048260       0.652842

     2   C  -   1   C       1.131098       2.022606
     2   C  -   7   H       0.948676       0.987576
     2   C  -   6   H       0.948676       0.987576
     2   C  -   3   H       0.910219       0.999098

     3   H  -   2   C       0.910219       0.999098
     3   H  -   1   C       0.048260       0.652842

     4   H  -   1   C       0.965645       0.981559

     5   H  -   1   C       0.965645       0.981559

     6   H  -   2   C       0.948676       0.987576

     7   H  -   2   C       0.948676       0.987576


 Valency analysis:

   CEN ATOM   TOT.VALENCE
     1   C       3.133136
     2   C       3.940916
     3   H       0.964015
     4   H       0.981878
     5   H       0.981878
     6   H       0.977067
     7   H       0.977067
 Localization group 2:   1 orbitals, occupancy  1.000
 Iterative localization: IB/PM,    1 iter; Final gradient 0.00E+00

 Bond order analysis:       [THRPRINT= 0.020]

   CEN ATOM   CEN ATOM     WIBERG.BO      RENORM.BO
     1   C  -   3   H       0.089286       0.500000


     3   H  -   1   C       0.089286       0.500000






 Valency analysis:

   CEN ATOM   TOT.VALENCE
     1   C       0.133765
     2   C       0.006007
     3   H       0.091592
     4   H       0.000230
     5   H       0.000230
     6   H       0.020509
     7   H       0.020509

 Total charge composition:

   CEN ATOM         s          p       ELECTRONS ->P.CHARGE
     1   C       3.06133    3.22810      6.28943   -0.28943
     2   C       3.02559    3.37773      6.40331   -0.40331
     3   H       0.85841                 0.85841    0.14159
     4   H       0.86550                 0.86550    0.13450
     5   H       0.86550                 0.86550    0.13450
     6   H       0.85892                 0.85892    0.14108
     7   H       0.85892                 0.85892    0.14108

 Total charge composition, AO contributions:

   CEN ATOM SHL      SPHERICAL COMPONENTS
     1   C  1s       1.99211
     1   C  2s       1.06923
     1   C  2p       1.01713    1.05946    1.15151

     2   C  1s       1.99051
     2   C  2s       1.03508
     2   C  2p       1.15020    1.06774    1.15979

     3   H  1s       0.85841

     4   H  1s       0.86550

     5   H  1s       0.86550

     6   H  1s       0.85892

     7   H  1s       0.85892

 Active orbital charges:

   CEN ATOM         s          p       ELECTRONS ->SPIN.DEN
     1   C       0.00391    0.92401      0.92792    0.92792
     2   C       0.00003    0.00299      0.00301    0.00301
     3   H       0.04811                 0.04811    0.04811
     4   H       0.00012                 0.00012    0.00012
     5   H       0.00012                 0.00012    0.00012
     6   H       0.01036                 0.01036    0.01036
     7   H       0.01036                 0.01036    0.01036

 Active orbital charges, AO contributions:

   CEN ATOM SHL      SPHERICAL COMPONENTS
     1   C  1s       0.00000
     1   C  2s       0.00390
     1   C  2p       0.91952    0.00450    0.00000

     2   C  1s       0.00000
     2   C  2s       0.00003
     2   C  2p       0.00290    0.00008    0.00000

     3   H  1s       0.04811

     4   H  1s       0.00012

     5   H  1s       0.00012

     6   H  1s       0.01036

     7   H  1s       0.01036

 Summary of localized orbital composition:   [THRPRINT= 0.020]

   ORB  GRP  ORB.ENERGY      CENTERS/CHARGES
     1   1    -9.952684      C  1   2.000
     2   1    -9.942964      C  2   2.000
     3   1    -0.571115      C  2   1.002   C  1   0.996
     4   1    -0.481794      C  1   1.134   H  4   0.860
     5   1    -0.481794      C  1   1.134   H  5   0.860
     6   1    -0.464315      C  2   1.128   H  3   0.808   C  1   0.063
     7   1    -0.460110      C  2   1.132   H  7   0.844   (other: 0.024)
     8   1    -0.460110      C  2   1.132   H  6   0.844   (other: 0.024)
     9   2    -0.116635      C  1   0.928   H  3   0.048   (other: 0.024)

 Localized orbitals saved to record      2100.2  (orbital set 2)


 **********************************************************************************************************************************
 DATASETS  * FILE   NREC   LENGTH (MB)   RECORD NAMES
              1      20       35.18       500      610      700      900      950      970     1000      129      960     1100   
                                          VAR    BASINP    GEOM    SYMINP    ZMAT    AOBASIS   BASIS     P2S    ABASIS      S 
                                         1400     1410     1200     1210     1080     1600     1650     1300     1700     1800   
                                           T        V       H0       H01     AOSYM     SMH    MOLCAS    ERIS     OPER     GRID   

              2       5        2.96       700     1000      520     1800     2100   
                                         GEOM     BASIS   MCVARS    GRID      RKS  

 PROGRAMS   *        TOTAL      IBBA        KS       INT
 CPU TIMES  *        12.86      0.02     12.32      0.38
 REAL TIME  *        14.16 SEC
 DISK USED  *        48.39 MB      
 **********************************************************************************************************************************
 Molecular orbitals read from record     2100.2  Type=RKS/LOCAL(IBO)  
 Occupation numbers read from record     2100.2  Type=RKS/LOCAL(IBO)  
 Orbital energies read from record       2100.2  Type=RKS/LOCAL(IBO)  
 Redundancy group numbers read from rec  2100.2  Type=RKS/LOCAL(IBO)  

 IBBA/SVP energy=      0.000000000000

        KS-SCF  
    -79.08113320
 **********************************************************************************************************************************
 Molpro calculation terminated
