
 Primary working directories    : /tmp/sb13343
 Secondary working directories  : /tmp/sb13343
 Wavefunction directory         : /panfs/panasas01/chem/sb13343/wfu/
 Main file repository           : /tmp/sb13343/

 SHA1      : b4a5b34a9e711420743f49e6833241d17c61fb3c
 NAME      : 2099.9.b4a5b34
 ARCHNAME  : linux/x86_64_openmp
 FC        : /cm/shared/languages/GCC-6.1/bin/gfortran
 BLASLIB   : -lblas
 id        : simonbennie

 Nodes     nprocs
 node32-007    1

 Using customized tuning parameters: mindgm=1; mindgv=20; mindgc=4; mindgr=1; noblas=0; minvec=7
 default implementation of scratch files=df  

 memory,500,m
 geomtyp=xyz
 nosym
 noorient
 geometry={
 C         -0.00146        0.79548        0.00000
 C          0.02225       -0.69390        0.00000
 H         -0.99481       -1.12636        0.00000
 H         -0.09300        1.35197        0.92746
 H         -0.09300        1.35197       -0.92746
 H          0.52802       -1.09351        0.88764
 H          0.52802       -1.09351       -0.88764
 }
 basis={ default,svp }
 {uks,VWN,direct;wf,17,1,1}
 {ibba,bonds=1}

 Variables initialized (895), CPU time= 0.00 sec
 Commands  initialized (725), CPU time= 0.02 sec, 591 directives.
 Default parameters read. Elapsed time= 0.08 sec

 Checking input...
 Passed
1


                                         ***  PROGRAM SYSTEM MOLPRO  ***
                                       Copyright, TTI GmbH Stuttgart, 2015
                                    Version 2099.9 linked May 26 2017 16:03:21


 **********************************************************************************************************************************
 LABEL *                                                                                 
  64 bit serial version                                                                  DATE: 08-Jun-17          TIME: 05:03:09  
 **********************************************************************************************************************************

 SHA1:             b4a5b34a9e711420743f49e6833241d17c61fb3c
 **********************************************************************************************************************************
 SETTING GEOMTYP        =    XYZ

 Variable memory set to  500000000 words,  buffer space 

 ZSYMEL=NOSYM

 SETTING BASIS          =    SVP


 Recomputing integrals since basis changed


 Using spherical harmonics

 Library entry C      S def2-SVP             selected for orbital group  1
 Library entry C      P def2-SVP             selected for orbital group  1
 Library entry C      D def2-SVP             selected for orbital group  1
 Library entry H      S def2-SVP             selected for orbital group  2
 Library entry H      P def2-SVP             selected for orbital group  2


 PROGRAM * SEWARD (Integral evaluation for generally contracted gaussian basis sets)     Author: Roland Lindh, 1990

 Geometry written to block  1 of record 700


 Point group  C1  



 ATOMIC COORDINATES

 NR  ATOM    CHARGE       X              Y              Z

   1  C       6.00   -0.002759000    1.503239338    0.000000000
   2  C       6.00    0.042046406   -1.311280958    0.000000000
   3  H       1.00   -1.879918446   -2.128511918    0.000000000
   4  H       1.00   -0.175744530    2.554853029    1.752645391
   5  H       1.00   -0.175744530    2.554853029   -1.752645391
   6  H       1.00    0.997813188   -2.066434414    1.677396497
   7  H       1.00    0.997813188   -2.066434414   -1.677396497

 Bond lengths in Bohr (Angstrom)

 1-2  2.814876910  1-4  2.051238947  1-5  2.051238947  2-3  2.088495950  2-6  2.073018546
     ( 1.489568712)     ( 1.085468905)     ( 1.085468905)     ( 1.105184462)     ( 1.096994173)

 2-7  2.073018546
     ( 1.096994173)

 Bond angles

  1-2-3  112.12345176   1-2-6  111.81246303   1-2-7  111.81246303   2-1-4  120.92728687

  2-1-5  120.92728687   3-2-6  106.36442052   3-2-7  106.36442052   4-1-5  117.39421083

  6-2-7  108.02720793

 NUCLEAR CHARGE:                   17
 NUMBER OF PRIMITIVE AOS:          85
 NUMBER OF SYMMETRY AOS:           83
 NUMBER OF CONTRACTIONS:           53   (  53A   )
 NUMBER OF CORE ORBITALS:           2   (   2A   )
 NUMBER OF VALENCE ORBITALS:       13   (  13A   )


 NUCLEAR REPULSION ENERGY   36.86300145


 Eigenvalues of metric

         1 0.525E-02 0.232E-01 0.271E-01 0.397E-01 0.503E-01 0.635E-01 0.102E+00 0.110E+00


 Contracted 2-electron integrals neglected if value below      1.0D-11
 AO integral compression algorithm  1   Integral accuracy      1.0D-11

     5.243 MB (compressed) written to integral file ( 52.3%)


 NUMBER OF SORTED TWO-ELECTRON INTEGRALS:    1024596.     BUFFER LENGTH:  32768
 NUMBER OF SEGMENTS:   1  SEGMENT LENGTH:    1024596      RECORD LENGTH: 524288

 Memory used in sort:       1.58 MW

 SORT1 READ     1206537. AND WROTE      940164. INTEGRALS IN      3 RECORDS. CPU TIME:     0.01 SEC, REAL TIME:     0.03 SEC
 SORT2 READ      940164. AND WROTE     1024596. INTEGRALS IN     20 RECORDS. CPU TIME:     0.05 SEC, REAL TIME:     0.06 SEC

 FILE SIZES:   FILE 1:    35.4 MBYTE,  FILE 4:    12.6 MBYTE,   TOTAL:     48.0 MBYTE

 OPERATOR DM      FOR CENTER  0  COORDINATES:    0.000000    0.000000    0.000000


 **********************************************************************************************************************************
 DATASETS  * FILE   NREC   LENGTH (MB)   RECORD NAMES
              1      19       34.42       500      610      700      900      950      970     1000      129      960     1100   
                                          VAR    BASINP    GEOM    SYMINP    ZMAT    AOBASIS   BASIS     P2S    ABASIS      S 
                                         1400     1410     1200     1210     1080     1600     1650     1300     1700   
                                           T        V       H0       H01     AOSYM     SMH    MOLCAS    ERIS     OPER   

 PROGRAMS   *        TOTAL       INT
 CPU TIMES  *         0.61      0.46
 REAL TIME  *         0.99 SEC
 DISK USED  *        48.39 MB      
 **********************************************************************************************************************************

 Density functional group VWN=VWN5
 Functional: VWN5(Automatically generated (new) VWN5)                          Gradient terms: 0
 Use grid at  1800.2

 Functional: VWN5                      Factor:  1.0000

 Generated new metagrid on record  1800.2 with target accuracy 1.0D-06 and 23794 points in CPU time    0.5
 Computed new grid on record 1800.1 in CPU time    0.6
   25820 words reserved for DFT integration

 PROGRAM * UKS-SCF (Unrestricted Kohn-Sham)     Authors: W. Meyer, H.-J. Werner, P.J. Knowles, 1993

 NUMBER OF ELECTRONS:       9+    8-    SPACE SYMMETRY=1    SPIN SYMMETRY: Doublet 
 CONVERGENCE THRESHOLDS:    1.00E-05 (Density)    1.00E-06 (Energy)
 MAX. NUMBER OF ITERATIONS:       60
 INTERPOLATION TYPE:            DIIS
 INTERPOLATION STEPS:              2 (START)      1 (STEP)
 LEVEL SHIFTS:                 -0.20 (ALPHA)  -0.20 (BETA) 



 Use fine grid record 1800.2 for energy threshold  1.0D-06
 Orbital guess generated from atomic densities. Full valence occupancy:    9

 Molecular orbital dump at record        2200.2

 Initial alpha occupation   9
 Initial beta  occupation   8

 ITERATION    DDIFF          GRAD             ENERGY        2-EL.EN.            DIPOLE MOMENTS         DIIS
    1      0.000D+00      0.000D+00       -67.74976721    136.309069   -0.05235   -0.20333    0.00000    0
    2      0.144D-01      0.636D-02       -67.78059652    142.240537   -0.06164   -0.25753    0.00000    1
    3      0.497D-02      0.393D-02       -67.79961459    139.915167   -0.04871   -0.21464    0.00000    2
    4      0.697D-03      0.167D-03       -67.79968994    139.977316   -0.05014   -0.21257    0.00000    3
    5      0.288D-03      0.768D-04       -67.79970740    139.977344   -0.05081   -0.21416    0.00000    4
    6      0.306D-03      0.368D-04       -67.79971613    139.977740   -0.05159   -0.21469    0.00000    5
    7      0.149D-03      0.107D-04       -67.79971737    139.977246   -0.05256   -0.21502    0.00000    6
    8      0.595D-04      0.470D-05       -67.79971751    139.977976   -0.05241   -0.21482    0.00000    6
    9      0.288D-04      0.193D-05       -67.79971753    139.977699   -0.05260   -0.21474    0.00000    6
   10      0.187D-04      0.846D-06       -67.79971754    139.977866   -0.05262   -0.21469    0.00000    7
   11      0.763D-05      0.313D-06       -67.79971754    139.977848   -0.05266   -0.21468    0.00000    8
   12      0.342D-05      0.150D-06       -67.79971754    139.977810   -0.05266   -0.21469    0.00000    8

 Final alpha occupancy:   9
 Final beta  occupancy:   8

 !UKS STATE 1.1 Energy                -67.799717542268
 Nuclear energy                        36.86300145
 One-electron energy                 -173.65181362
 Two-electron energy                   69.98890491
 Density functional                    -0.99981028     VWN5=-0.99981028
 Virial quotient                       -0.92538594
 !UKS STATE 1.1 Dipole moment          -0.05266114    -0.21468713     0.00000000
 Dipole moment /Debye                  -0.13384251    -0.54564453     0.00000000

 Orbital energies for positive spin:

         1.1          2.1          3.1          4.1          5.1          6.1          7.1          8.1          9.1         10.1
     -8.260121    -8.245583    -0.367980    -0.225763    -0.134268    -0.105100    -0.075545    -0.030294     0.112118     0.190137

        11.1
      0.237617

 Orbital energies for negative spin:

         1.1          2.1          3.1          4.1          5.1          6.1          7.1          8.1          9.1         10.1
     -8.260253    -8.247067    -0.371957    -0.231081    -0.136869    -0.109894    -0.078834    -0.032903     0.095306     0.187090

        11.1
      0.233340

 HOMO      9.1     0.112118 =       3.0509eV
 LUMO     -9.1     0.095306 =       2.5934eV
 LUMO-HOMO        -0.016812 =      -0.4575eV

 EXPECTATION VALUE OF S**2:             0.75015411

 Occupation number threshold for canonical orbitals:  1.999000 (occupied),  0.001000 (virtual)

 Number of pseudo-canonical orbitals per symmetry:    8
 Number of active natural orbitals per symmetry:      1

 Natural orbitals saved to record    2200.2 (Orbital set 3)

 Orbital spaces for UNO-CAS (Min. occupation: 0.020  Max. occupation: 1.980):

 Closed:        8
 Active:        1


 **********************************************************************************************************************************
 DATASETS  * FILE   NREC   LENGTH (MB)   RECORD NAMES
              1      20       35.18       500      610      700      900      950      970     1000      129      960     1100   
                                          VAR    BASINP    GEOM    SYMINP    ZMAT    AOBASIS   BASIS     P2S    ABASIS      S 
                                         1400     1410     1200     1210     1080     1600     1650     1300     1700     1800   
                                           T        V       H0       H01     AOSYM     SMH    MOLCAS    ERIS     OPER     GRID   

              2       5        2.98       700     1000      520     1800     2200   
                                         GEOM     BASIS   MCVARS    GRID      UKS  

 PROGRAMS   *        TOTAL       UKS       INT
 CPU TIMES  *         3.55      2.94      0.46
 REAL TIME  *         4.04 SEC
 DISK USED  *        48.39 MB      
 **********************************************************************************************************************************


 PROGRAM * Intrinsic Basis Bonding Analysis (IBBA)          Author: G. Knizia

 Molecular orbitals read from record     2200.2  Type=UKS/ALPHA (state 1.1)
 Fock matrix read from record            2200.2  Type=UKS/TOTAL (state 1.1)
 Orbital energies read from record       2200.2  Type=UKS/ALPHA (state 1.1)
 Density matrix read from record         2200.2  Type=UKS/CHARGE (state 1.1)

 Number of core orbitals:           2 (   2 )
 Number of closed-shell orbitals:   6 (   6 )
 Number of active  orbitals:        1 (   1 )

 Basis set MINAO-AUTO-PP generated.      Number of basis functions:   15 

 Polarized AO type:                A = (O Ot + (1-O)(1-Ot)) P12
 Orthogonalization method:         Symmetric (Loewdin)
 Localization functional:          L = sum[A,i] <i|n_A|i>^4 -> max

 Localization group 1:   8 orbitals, occupancy  2.000
 Iterative localization: IB/PM,    7 iter; Final gradient 0.69E-08

 Bond order analysis:       [THRPRINT= 0.020]

   CEN ATOM   CEN ATOM     WIBERG.BO      RENORM.BO
     1   C  -   2   C       1.258282       2.039625
     1   C  -   5   H       0.972509       0.975495
     1   C  -   4   H       0.972509       0.975495
     1   C  -   3   H       0.106785       0.588436
     1   C  -   6   H       0.027814       0.130180
     1   C  -   7   H       0.027814       0.130180

     2   C  -   1   C       1.258282       2.039625
     2   C  -   7   H       0.929986       0.980505
     2   C  -   6   H       0.929986       0.980505
     2   C  -   3   H       0.839059       0.997610

     3   H  -   2   C       0.839059       0.997610
     3   H  -   1   C       0.106785       0.588436

     4   H  -   1   C       0.972509       0.975495

     5   H  -   1   C       0.972509       0.975495

     6   H  -   2   C       0.929986       0.980505
     6   H  -   1   C       0.027814       0.130180

     7   H  -   2   C       0.929986       0.980505
     7   H  -   1   C       0.027814       0.130180


 Valency analysis:

   CEN ATOM   TOT.VALENCE
     1   C       3.365714
     2   C       3.961146
     3   H       0.973682
     4   H       0.999304
     5   H       0.999304
     6   H       0.993896
     7   H       0.993896
 Localization group 2:   1 orbitals, occupancy  1.000
 Iterative localization: IB/PM,    1 iter; Final gradient 0.00E+00

 Bond order analysis:       [THRPRINT= 0.020]

   CEN ATOM   CEN ATOM     WIBERG.BO      RENORM.BO
     1   C  -   3   H       0.165177       0.500000
     1   C  -   6   H       0.036793       0.500000
     1   C  -   7   H       0.036793       0.500000


     3   H  -   1   C       0.165177       0.500000



     6   H  -   1   C       0.036793       0.500000

     7   H  -   1   C       0.036793       0.500000


 Valency analysis:

   CEN ATOM   TOT.VALENCE
     1   C       0.257917
     2   C       0.021294
     3   H       0.175830
     4   H       0.000532
     5   H       0.000532
     6   H       0.042451
     7   H       0.042451

 Total charge composition:

   CEN ATOM         s          p       ELECTRONS ->P.CHARGE
     1   C       2.92127    3.16704      6.08831   -0.08831
     2   C       2.87381    3.26780      6.14161   -0.14161
     3   H       0.93518                 0.93518    0.06482
     4   H       0.97388                 0.97388    0.02612
     5   H       0.97388                 0.97388    0.02612
     6   H       0.94357                 0.94357    0.05643
     7   H       0.94357                 0.94357    0.05643

 Total charge composition, AO contributions:

   CEN ATOM SHL      SPHERICAL COMPONENTS
     1   C  1s       1.99816
     1   C  2s       0.92311
     1   C  2p       1.05763    1.03245    1.07695

     2   C  1s       1.99766
     2   C  2s       0.87615
     2   C  2p       1.07392    1.08921    1.10467

     3   H  1s       0.93518

     4   H  1s       0.97388

     5   H  1s       0.97388

     6   H  1s       0.94357

     7   H  1s       0.94357

 Active orbital charges:

   CEN ATOM         s          p       ELECTRONS ->SPIN.DEN
     1   C       0.00289    0.84502      0.84791    0.84791
     2   C       0.00005    0.01071      0.01076    0.01076
     3   H       0.09740                 0.09740    0.09740
     4   H       0.00027                 0.00027    0.00027
     5   H       0.00027                 0.00027    0.00027
     6   H       0.02170                 0.02170    0.02170
     7   H       0.02170                 0.02170    0.02170

 Active orbital charges, AO contributions:

   CEN ATOM SHL      SPHERICAL COMPONENTS
     1   C  1s       0.00000
     1   C  2s       0.00289
     1   C  2p       0.84060    0.00442    0.00000

     2   C  1s       0.00000
     2   C  2s       0.00005
     2   C  2p       0.01070    0.00001    0.00000

     3   H  1s       0.09740

     4   H  1s       0.00027

     5   H  1s       0.00027

     6   H  1s       0.02170

     7   H  1s       0.02170

 Summary of localized orbital composition:   [THRPRINT= 0.020]

   ORB  GRP  ORB.ENERGY      CENTERS/CHARGES
     1   1    -8.178966      C  2   2.000
     2   1    -8.173455      C  1   2.000
     3   1    -0.255312      C  2   1.028   C  1   0.967
     4   1    -0.177900      C  2   1.021   H  3   0.827   C  1   0.147
     5   1    -0.168617      C  2   1.037   H  6   0.912   C  1   0.040
     6   1    -0.168617      C  2   1.037   H  7   0.912   C  1   0.040
     7   1    -0.166899      C  1   1.023   H  5   0.966
     8   1    -0.166899      C  1   1.023   H  4   0.966
     9   2     0.103689      C  1   0.848   H  3   0.097   H  6   0.022   H  7   0.022

 Localized orbitals saved to record      2200.2  (orbital set 4)


 **********************************************************************************************************************************
 DATASETS  * FILE   NREC   LENGTH (MB)   RECORD NAMES
              1      20       35.18       500      610      700      900      950      970     1000      129      960     1100   
                                          VAR    BASINP    GEOM    SYMINP    ZMAT    AOBASIS   BASIS     P2S    ABASIS      S 
                                         1400     1410     1200     1210     1080     1600     1650     1300     1700     1800   
                                           T        V       H0       H01     AOSYM     SMH    MOLCAS    ERIS     OPER     GRID   

              2       5        3.00       700     1000      520     1800     2200   
                                         GEOM     BASIS   MCVARS    GRID      UKS  

 PROGRAMS   *        TOTAL      IBBA       UKS       INT
 CPU TIMES  *         3.58      0.02      2.94      0.46
 REAL TIME  *         4.12 SEC
 DISK USED  *        48.39 MB      
 **********************************************************************************************************************************
 Molecular orbitals read from record     2200.2  Type=UKS/LOCAL(IBO)  
 Occupation numbers read from record     2200.2  Type=UKS/LOCAL(IBO)  
 Orbital energies read from record       2200.2  Type=UKS/LOCAL(IBO)  
 Redundancy group numbers read from rec  2200.2  Type=UKS/BETA (state 1.1)

 IBBA/SVP energy=      0.000000000000

        UKS-SCF 
    -67.79971754
 **********************************************************************************************************************************
 Molpro calculation terminated
