
 Primary working directories    : /tmp/sb13343
 Secondary working directories  : /tmp/sb13343
 Wavefunction directory         : /panfs/panasas01/chem/sb13343/wfu/
 Main file repository           : /tmp/sb13343/

 SHA1      : b4a5b34a9e711420743f49e6833241d17c61fb3c
 NAME      : 2099.9.b4a5b34
 ARCHNAME  : linux/x86_64_openmp
 FC        : /cm/shared/languages/GCC-6.1/bin/gfortran
 BLASLIB   : -lblas
 id        : simonbennie

 Nodes     nprocs
 node35-048    1

 Using customized tuning parameters: mindgm=1; mindgv=20; mindgc=4; mindgr=1; noblas=0; minvec=7
 default implementation of scratch files=df  

 memory,500,m
 geomtyp=xyz
 nosym
 noorient
 geometry={
 C         -0.00146        0.79548        0.00000
 C          0.02225       -0.69390        0.00000
 H         -0.99481       -1.12636        0.00000
 H         -0.09300        1.35197        0.92746
 H         -0.09300        1.35197       -0.92746
 H          0.52802       -1.09351        0.88764
 H          0.52802       -1.09351       -0.88764
 }
 basis={ default,svp }
 {uks,B-P,direct;wf,17,1,1}
 {ibba,bonds=1}

 Variables initialized (895), CPU time= 0.00 sec
 Commands  initialized (725), CPU time= 0.02 sec, 591 directives.
 Default parameters read. Elapsed time= 0.09 sec

 Checking input...
 Passed
1


                                         ***  PROGRAM SYSTEM MOLPRO  ***
                                       Copyright, TTI GmbH Stuttgart, 2015
                                    Version 2099.9 linked May 26 2017 16:03:21


 **********************************************************************************************************************************
 LABEL *                                                                                 
  64 bit serial version                                                                  DATE: 08-Jun-17          TIME: 04:53:01  
 **********************************************************************************************************************************

 SHA1:             b4a5b34a9e711420743f49e6833241d17c61fb3c
 **********************************************************************************************************************************
 SETTING GEOMTYP        =    XYZ

 Variable memory set to  500000000 words,  buffer space 

 ZSYMEL=NOSYM

 SETTING BASIS          =    SVP


 Recomputing integrals since basis changed


 Using spherical harmonics

 Library entry C      S def2-SVP             selected for orbital group  1
 Library entry C      P def2-SVP             selected for orbital group  1
 Library entry C      D def2-SVP             selected for orbital group  1
 Library entry H      S def2-SVP             selected for orbital group  2
 Library entry H      P def2-SVP             selected for orbital group  2


 PROGRAM * SEWARD (Integral evaluation for generally contracted gaussian basis sets)     Author: Roland Lindh, 1990

 Geometry written to block  1 of record 700


 Point group  C1  



 ATOMIC COORDINATES

 NR  ATOM    CHARGE       X              Y              Z

   1  C       6.00   -0.002759000    1.503239338    0.000000000
   2  C       6.00    0.042046406   -1.311280958    0.000000000
   3  H       1.00   -1.879918446   -2.128511918    0.000000000
   4  H       1.00   -0.175744530    2.554853029    1.752645391
   5  H       1.00   -0.175744530    2.554853029   -1.752645391
   6  H       1.00    0.997813188   -2.066434414    1.677396497
   7  H       1.00    0.997813188   -2.066434414   -1.677396497

 Bond lengths in Bohr (Angstrom)

 1-2  2.814876910  1-4  2.051238947  1-5  2.051238947  2-3  2.088495950  2-6  2.073018546
     ( 1.489568712)     ( 1.085468905)     ( 1.085468905)     ( 1.105184462)     ( 1.096994173)

 2-7  2.073018546
     ( 1.096994173)

 Bond angles

  1-2-3  112.12345176   1-2-6  111.81246303   1-2-7  111.81246303   2-1-4  120.92728687

  2-1-5  120.92728687   3-2-6  106.36442052   3-2-7  106.36442052   4-1-5  117.39421083

  6-2-7  108.02720793

 NUCLEAR CHARGE:                   17
 NUMBER OF PRIMITIVE AOS:          85
 NUMBER OF SYMMETRY AOS:           83
 NUMBER OF CONTRACTIONS:           53   (  53A   )
 NUMBER OF CORE ORBITALS:           2   (   2A   )
 NUMBER OF VALENCE ORBITALS:       13   (  13A   )


 NUCLEAR REPULSION ENERGY   36.86300145


 Eigenvalues of metric

         1 0.525E-02 0.232E-01 0.271E-01 0.397E-01 0.503E-01 0.635E-01 0.102E+00 0.110E+00


 Contracted 2-electron integrals neglected if value below      1.0D-11
 AO integral compression algorithm  1   Integral accuracy      1.0D-11

     5.243 MB (compressed) written to integral file ( 52.3%)


 NUMBER OF SORTED TWO-ELECTRON INTEGRALS:    1024596.     BUFFER LENGTH:  32768
 NUMBER OF SEGMENTS:   1  SEGMENT LENGTH:    1024596      RECORD LENGTH: 524288

 Memory used in sort:       1.58 MW

 SORT1 READ     1206537. AND WROTE      940164. INTEGRALS IN      3 RECORDS. CPU TIME:     0.01 SEC, REAL TIME:     0.03 SEC
 SORT2 READ      940164. AND WROTE     1024596. INTEGRALS IN     20 RECORDS. CPU TIME:     0.06 SEC, REAL TIME:     0.13 SEC

 FILE SIZES:   FILE 1:    35.4 MBYTE,  FILE 4:    12.6 MBYTE,   TOTAL:     48.0 MBYTE

 OPERATOR DM      FOR CENTER  0  COORDINATES:    0.000000    0.000000    0.000000


 **********************************************************************************************************************************
 DATASETS  * FILE   NREC   LENGTH (MB)   RECORD NAMES
              1      19       34.42       500      610      700      900      950      970     1000      129      960     1100   
                                          VAR    BASINP    GEOM    SYMINP    ZMAT    AOBASIS   BASIS     P2S    ABASIS      S 
                                         1400     1410     1200     1210     1080     1600     1650     1300     1700   
                                           T        V       H0       H01     AOSYM     SMH    MOLCAS    ERIS     OPER   

 PROGRAMS   *        TOTAL       INT
 CPU TIMES  *         0.53      0.39
 REAL TIME  *         1.01 SEC
 DISK USED  *        48.39 MB      
 **********************************************************************************************************************************

 Density functional group B-P=B88+P86
 Functional: B88(Automatically generated (new) B88)                            Gradient terms: 1
 Functional: P86(Automatically generated (new) P86)                            Gradient terms: 1
 Use grid at  1800.2

 Functional: B88                       Factor:  1.0000
 Functional: P86                       Factor:  1.0000

 Generated new metagrid on record  1800.2 with target accuracy 1.0D-06 and 23794 points in CPU time    0.5
 Computed new grid on record 1800.1 in CPU time    0.6
   46013 words reserved for DFT integration

 PROGRAM * UKS-SCF (Unrestricted Kohn-Sham)     Authors: W. Meyer, H.-J. Werner, P.J. Knowles, 1993

 NUMBER OF ELECTRONS:       9+    8-    SPACE SYMMETRY=1    SPIN SYMMETRY: Doublet 
 CONVERGENCE THRESHOLDS:    1.00E-05 (Density)    1.00E-06 (Energy)
 MAX. NUMBER OF ITERATIONS:       60
 INTERPOLATION TYPE:            DIIS
 INTERPOLATION STEPS:              2 (START)      1 (STEP)
 LEVEL SHIFTS:                 -0.20 (ALPHA)  -0.20 (BETA) 



 Use fine grid record 1800.2 for energy threshold  1.0D-06
 Orbital guess generated from atomic densities. Full valence occupancy:    9

 Molecular orbital dump at record        2200.2

 Initial alpha occupation   9
 Initial beta  occupation   8

 ITERATION    DDIFF          GRAD             ENERGY        2-EL.EN.            DIPOLE MOMENTS         DIIS
    1      0.000D+00      0.000D+00       -78.97177865    155.411111   -0.11172   -0.24191    0.00000    0
    2      0.185D-01      0.878D-02       -79.07626614    146.934719   -0.05299   -0.14351    0.00000    1
    3      0.585D-02      0.396D-02       -79.09628921    149.064046   -0.06371   -0.14498    0.00000    2
    4      0.145D-02      0.408D-03       -79.09677915    148.990374   -0.06053   -0.13616    0.00000    3
    5      0.749D-03      0.175D-03       -79.09688630    148.965954   -0.05778   -0.12633    0.00000    4
    6      0.326D-03      0.742D-04       -79.09690976    148.965202   -0.05633   -0.12164    0.00000    5
    7      0.697D-04      0.287D-04       -79.09691213    148.963539   -0.05576   -0.11961    0.00000    6
    8      0.209D-04      0.694D-05       -79.09691231    148.963531   -0.05560   -0.11936    0.00000    6
    9      0.487D-05      0.122D-05       -79.09691232    148.963947   -0.05558   -0.11931    0.00000    6
   10      0.129D-05      0.441D-06       -79.09691232    148.963627   -0.05557   -0.11932    0.00000    7

 Final alpha occupancy:   9
 Final beta  occupancy:   8

 !UKS STATE 1.1 Energy                -79.096912316020
 Nuclear energy                        36.86300145
 One-electron energy                 -177.78538821
 Two-electron energy                   74.48181374
 Density functional                   -12.65633930     B88=-12.08170369 P86= -0.57463561
 Virial quotient                       -1.01357429
 !UKS STATE 1.1 Dipole moment          -0.05557328    -0.11931640     0.00000000
 Dipole moment /Debye                  -0.14124393    -0.30325219     0.00000000

 Orbital energies for positive spin:

         1.1          2.1          3.1          4.1          5.1          6.1          7.1          8.1          9.1         10.1
     -9.917220    -9.910807    -0.678446    -0.540562    -0.401825    -0.367652    -0.349545    -0.313665    -0.167254     0.057829

        11.1
      0.085428

 Orbital energies for negative spin:

         1.1          2.1          3.1          4.1          5.1          6.1          7.1          8.1          9.1         10.1
     -9.911644    -9.903323    -0.664166    -0.520286    -0.395172    -0.356222    -0.341360    -0.309125    -0.077340     0.061838

        11.1
      0.095219

 HOMO      9.1    -0.167254 =      -4.5512eV
 LUMO     -9.1    -0.077340 =      -2.1045eV
 LUMO-HOMO         0.089914 =       2.4467eV

 EXPECTATION VALUE OF S**2:             0.75365026

 Occupation number threshold for canonical orbitals:  1.999000 (occupied),  0.001000 (virtual)

 Number of pseudo-canonical orbitals per symmetry:    7
 Number of active natural orbitals per symmetry:      3

 Natural orbitals saved to record    2200.2 (Orbital set 3)

 Orbital spaces for UNO-CAS (Min. occupation: 0.020  Max. occupation: 1.980):

 Closed:        8
 Active:        1


 **********************************************************************************************************************************
 DATASETS  * FILE   NREC   LENGTH (MB)   RECORD NAMES
              1      20       35.18       500      610      700      900      950      970     1000      129      960     1100   
                                          VAR    BASINP    GEOM    SYMINP    ZMAT    AOBASIS   BASIS     P2S    ABASIS      S 
                                         1400     1410     1200     1210     1080     1600     1650     1300     1700     1800   
                                           T        V       H0       H01     AOSYM     SMH    MOLCAS    ERIS     OPER     GRID   

              2       5        2.98       700     1000      520     1800     2200   
                                         GEOM     BASIS   MCVARS    GRID      UKS  

 PROGRAMS   *        TOTAL       UKS       INT
 CPU TIMES  *         4.08      3.55      0.39
 REAL TIME  *         5.81 SEC
 DISK USED  *        48.39 MB      
 **********************************************************************************************************************************


 PROGRAM * Intrinsic Basis Bonding Analysis (IBBA)          Author: G. Knizia

 Molecular orbitals read from record     2200.2  Type=UKS/ALPHA (state 1.1)
 Fock matrix read from record            2200.2  Type=UKS/TOTAL (state 1.1)
 Orbital energies read from record       2200.2  Type=UKS/ALPHA (state 1.1)
 Density matrix read from record         2200.2  Type=UKS/CHARGE (state 1.1)

 Number of core orbitals:           2 (   2 )
 Number of closed-shell orbitals:   6 (   6 )
 Number of active  orbitals:        1 (   1 )

 Basis set MINAO-AUTO-PP generated.      Number of basis functions:   15 

 Polarized AO type:                A = (O Ot + (1-O)(1-Ot)) P12
 Orthogonalization method:         Symmetric (Loewdin)
 Localization functional:          L = sum[A,i] <i|n_A|i>^4 -> max

 Localization group 1:   8 orbitals, occupancy  2.000
 Iterative localization: IB/PM,    6 iter; Final gradient 0.37E-08

 Bond order analysis:       [THRPRINT= 0.020]

   CEN ATOM   CEN ATOM     WIBERG.BO      RENORM.BO
     1   C  -   2   C       1.244636       2.021044
     1   C  -   5   H       0.957689       0.982407
     1   C  -   4   H       0.957689       0.982407
     1   C  -   3   H       0.095637       0.620119
     1   C  -   6   H       0.022498       0.130587
     1   C  -   7   H       0.022498       0.130587

     2   C  -   1   C       1.244636       2.021044
     2   C  -   7   H       0.932342       0.987953
     2   C  -   6   H       0.932342       0.987953
     2   C  -   3   H       0.840306       0.998598

     3   H  -   2   C       0.840306       0.998598
     3   H  -   1   C       0.095637       0.620119

     4   H  -   1   C       0.957689       0.982407

     5   H  -   1   C       0.957689       0.982407

     6   H  -   2   C       0.932342       0.987953
     6   H  -   1   C       0.022498       0.130587

     7   H  -   2   C       0.932342       0.987953
     7   H  -   1   C       0.022498       0.130587


 Valency analysis:

   CEN ATOM   TOT.VALENCE
     1   C       3.300646
     2   C       3.951678
     3   H       0.948956
     4   H       0.973179
     5   H       0.973179
     6   H       0.974330
     7   H       0.974330
 Localization group 2:   1 orbitals, occupancy  1.000
 Iterative localization: IB/PM,    1 iter; Final gradient 0.00E+00

 Bond order analysis:       [THRPRINT= 0.020]

   CEN ATOM   CEN ATOM     WIBERG.BO      RENORM.BO
     1   C  -   3   H       0.127868       0.500000
     1   C  -   2   C       0.032275       0.500000
     1   C  -   6   H       0.027829       0.500000
     1   C  -   7   H       0.027829       0.500000

     2   C  -   1   C       0.032275       0.500000

     3   H  -   1   C       0.127868       0.500000



     6   H  -   1   C       0.027829       0.500000

     7   H  -   1   C       0.027829       0.500000


 Valency analysis:

   CEN ATOM   TOT.VALENCE
     1   C       0.216894
     2   C       0.036155
     3   H       0.135282
     4   H       0.000623
     5   H       0.000623
     6   H       0.031256
     7   H       0.031256

 Total charge composition:

   CEN ATOM         s          p       ELECTRONS ->P.CHARGE
     1   C       3.09282    3.33268      6.42550   -0.42550
     2   C       3.00532    3.33775      6.34306   -0.34306
     3   H       0.84704                 0.84704    0.15296
     4   H       0.83654                 0.83654    0.16346
     5   H       0.83654                 0.83654    0.16346
     6   H       0.85566                 0.85566    0.14434
     7   H       0.85566                 0.85566    0.14434

 Total charge composition, AO contributions:

   CEN ATOM SHL      SPHERICAL COMPONENTS
     1   C  1s       1.99236
     1   C  2s       1.10046
     1   C  2p       1.07271    1.07823    1.18174

     2   C  1s       1.99097
     2   C  2s       1.01434
     2   C  2p       1.12329    1.05068    1.16377

     3   H  1s       0.84704

     4   H  1s       0.83654

     5   H  1s       0.83654

     6   H  1s       0.85566

     7   H  1s       0.85566

 Active orbital charges:

   CEN ATOM         s          p       ELECTRONS ->SPIN.DEN
     1   C       0.00233    0.87390      0.87624    0.87624
     2   C       0.00006    0.01836      0.01842    0.01842
     3   H       0.07296                 0.07296    0.07296
     4   H       0.00031                 0.00031    0.00031
     5   H       0.00031                 0.00031    0.00031
     6   H       0.01588                 0.01588    0.01588
     7   H       0.01588                 0.01588    0.01588

 Active orbital charges, AO contributions:

   CEN ATOM SHL      SPHERICAL COMPONENTS
     1   C  1s       0.00000
     1   C  2s       0.00233
     1   C  2p       0.87014    0.00376    0.00000

     2   C  1s       0.00000
     2   C  2s       0.00006
     2   C  2p       0.01822    0.00014    0.00000

     3   H  1s       0.07296

     4   H  1s       0.00031

     5   H  1s       0.00031

     6   H  1s       0.01588

     7   H  1s       0.01588

 Summary of localized orbital composition:   [THRPRINT= 0.020]

   ORB  GRP  ORB.ENERGY      CENTERS/CHARGES
     1   1    -9.805512      C  1   2.000
     2   1    -9.798851      C  2   2.000
     3   1    -0.548432      C  1   1.018   C  2   0.980
     4   1    -0.469248      C  1   1.163   H  4   0.830
     5   1    -0.469248      C  1   1.163   H  5   0.830
     6   1    -0.451112      C  2   1.091   H  3   0.769   C  1   0.137
     7   1    -0.447531      C  2   1.124   H  7   0.835   C  1   0.034
     8   1    -0.447531      C  2   1.124   H  6   0.835   C  1   0.034
     9   2    -0.121898      C  1   0.876   H  3   0.073   (other: 0.051)

 Localized orbitals saved to record      2200.2  (orbital set 4)


 **********************************************************************************************************************************
 DATASETS  * FILE   NREC   LENGTH (MB)   RECORD NAMES
              1      20       35.18       500      610      700      900      950      970     1000      129      960     1100   
                                          VAR    BASINP    GEOM    SYMINP    ZMAT    AOBASIS   BASIS     P2S    ABASIS      S 
                                         1400     1410     1200     1210     1080     1600     1650     1300     1700     1800   
                                           T        V       H0       H01     AOSYM     SMH    MOLCAS    ERIS     OPER     GRID   

              2       5        3.00       700     1000      520     1800     2200   
                                         GEOM     BASIS   MCVARS    GRID      UKS  

 PROGRAMS   *        TOTAL      IBBA       UKS       INT
 CPU TIMES  *         4.10      0.02      3.55      0.39
 REAL TIME  *         5.92 SEC
 DISK USED  *        48.39 MB      
 **********************************************************************************************************************************
 Molecular orbitals read from record     2200.2  Type=UKS/LOCAL(IBO)  
 Occupation numbers read from record     2200.2  Type=UKS/LOCAL(IBO)  
 Orbital energies read from record       2200.2  Type=UKS/LOCAL(IBO)  
 Redundancy group numbers read from rec  2200.2  Type=UKS/BETA (state 1.1)

 IBBA/SVP energy=      0.000000000000

        UKS-SCF 
    -79.09691232
 **********************************************************************************************************************************
 Molpro calculation terminated
