
 Primary working directories    : /tmp/sb13343
 Secondary working directories  : /tmp/sb13343
 Wavefunction directory         : /panfs/panasas01/chem/sb13343/wfu/
 Main file repository           : /tmp/sb13343/

 SHA1      : b4a5b34a9e711420743f49e6833241d17c61fb3c
 NAME      : 2099.9.b4a5b34
 ARCHNAME  : linux/x86_64_openmp
 FC        : /cm/shared/languages/GCC-6.1/bin/gfortran
 BLASLIB   : -lblas
 id        : simonbennie

 Nodes     nprocs
 node35-048    1

 Using customized tuning parameters: mindgm=1; mindgv=20; mindgc=4; mindgr=1; noblas=0; minvec=7
 default implementation of scratch files=df  

 memory,500,m
 geomtyp=xyz
 nosym
 noorient
 geometry={
 C         -0.00146        0.79548        0.00000
 C          0.02225       -0.69390        0.00000
 H         -0.99481       -1.12636        0.00000
 H         -0.09300        1.35197        0.92746
 H         -0.09300        1.35197       -0.92746
 H          0.52802       -1.09351        0.88764
 H          0.52802       -1.09351       -0.88764
 }
 basis={ default,sto-3g }
 {ks,M06-2X,direct;wf,17,1,1}
 {ibba,bonds=1}

 Variables initialized (895), CPU time= 0.00 sec
 Commands  initialized (725), CPU time= 0.01 sec, 591 directives.
 Default parameters read. Elapsed time= 0.11 sec

 Checking input...
 Passed
1


                                         ***  PROGRAM SYSTEM MOLPRO  ***
                                       Copyright, TTI GmbH Stuttgart, 2015
                                    Version 2099.9 linked May 26 2017 16:03:21


 **********************************************************************************************************************************
 LABEL *                                                                                 
  64 bit serial version                                                                  DATE: 08-Jun-17          TIME: 04:48:45  
 **********************************************************************************************************************************

 SHA1:             b4a5b34a9e711420743f49e6833241d17c61fb3c
 **********************************************************************************************************************************
 SETTING GEOMTYP        =    XYZ

 Variable memory set to  500000000 words,  buffer space 

 ZSYMEL=NOSYM

 SETTING BASIS          =    STO-3G


 Recomputing integrals since basis changed


 Using spherical harmonics

 Library entry C      S STO-3G               selected for orbital group  1
 Library entry C      P STO-3G               selected for orbital group  1
 Library entry H      S STO-3G               selected for orbital group  2


 PROGRAM * SEWARD (Integral evaluation for generally contracted gaussian basis sets)     Author: Roland Lindh, 1990

 Geometry written to block  1 of record 700


 Point group  C1  



 ATOMIC COORDINATES

 NR  ATOM    CHARGE       X              Y              Z

   1  C       6.00   -0.002759000    1.503239338    0.000000000
   2  C       6.00    0.042046406   -1.311280958    0.000000000
   3  H       1.00   -1.879918446   -2.128511918    0.000000000
   4  H       1.00   -0.175744530    2.554853029    1.752645391
   5  H       1.00   -0.175744530    2.554853029   -1.752645391
   6  H       1.00    0.997813188   -2.066434414    1.677396497
   7  H       1.00    0.997813188   -2.066434414   -1.677396497

 Bond lengths in Bohr (Angstrom)

 1-2  2.814876910  1-4  2.051238947  1-5  2.051238947  2-3  2.088495950  2-6  2.073018546
     ( 1.489568712)     ( 1.085468905)     ( 1.085468905)     ( 1.105184462)     ( 1.096994173)

 2-7  2.073018546
     ( 1.096994173)

 Bond angles

  1-2-3  112.12345176   1-2-6  111.81246303   1-2-7  111.81246303   2-1-4  120.92728687

  2-1-5  120.92728687   3-2-6  106.36442052   3-2-7  106.36442052   4-1-5  117.39421083

  6-2-7  108.02720793

 NUCLEAR CHARGE:                   17
 NUMBER OF PRIMITIVE AOS:          45
 NUMBER OF SYMMETRY AOS:           45
 NUMBER OF CONTRACTIONS:           15   (  15A   )
 NUMBER OF CORE ORBITALS:           2   (   2A   )
 NUMBER OF VALENCE ORBITALS:       13   (  13A   )


 NUCLEAR REPULSION ENERGY   36.86300145


 Eigenvalues of metric

         1 0.218E+00 0.272E+00 0.329E+00 0.377E+00 0.382E+00 0.392E+00 0.935E+00 0.955E+00


 Contracted 2-electron integrals neglected if value below      1.0D-11
 AO integral compression algorithm  1   Integral accuracy      1.0D-11

     0.262 MB (compressed) written to integral file (100.0%)


 NUMBER OF SORTED TWO-ELECTRON INTEGRALS:       7260.     BUFFER LENGTH:  32768
 NUMBER OF SEGMENTS:   1  SEGMENT LENGTH:       7260      RECORD LENGTH: 524288

 Memory used in sort:       0.56 MW

 SORT1 READ        9024. AND WROTE        6273. INTEGRALS IN      1 RECORDS. CPU TIME:     0.00 SEC, REAL TIME:     0.01 SEC
 SORT2 READ        6273. AND WROTE        7260. INTEGRALS IN      1 RECORDS. CPU TIME:     0.01 SEC, REAL TIME:     0.00 SEC

 FILE SIZES:   FILE 1:    30.3 MBYTE,  FILE 4:     4.2 MBYTE,   TOTAL:     34.5 MBYTE

 OPERATOR DM      FOR CENTER  0  COORDINATES:    0.000000    0.000000    0.000000


 **********************************************************************************************************************************
 DATASETS  * FILE   NREC   LENGTH (MB)   RECORD NAMES
              1      19       30.09       500      610      700      900      950      970     1000      129      960     1100   
                                          VAR    BASINP    GEOM    SYMINP    ZMAT    AOBASIS   BASIS     P2S    ABASIS      S 
                                         1400     1410     1200     1210     1080     1600     1650     1300     1700   
                                           T        V       H0       H01     AOSYM     SMH    MOLCAS    ERIS     OPER   

 PROGRAMS   *        TOTAL       INT
 CPU TIMES  *         0.34      0.19
 REAL TIME  *         0.71 SEC
 DISK USED  *        34.91 MB      
 **********************************************************************************************************************************

 Density functional group M06-2X=XC-M06-2X
 Functional: XC-M06-2X(via MFM 1.6)                                            Gradient terms: 1
 Use grid at  1800.2


 Exact exchange will be calculated, factor:  0.5400

 Functional: XC-M06-2X                 Factor:  1.0000

 Generated new metagrid on record  1800.2 with target accuracy 1.0D-06 and 23794 points in CPU time    0.5
 Computed new grid on record 1800.1 in CPU time    0.6
   15985 words reserved for DFT integration

 PROGRAM * RKS-SCF (Restricted open shell Kohn-Sham)     Authors: W. Meyer, H.-J. Werner, P.J. Knowles, 1993

 NUMBER OF ELECTRONS:       9+    8-    SPACE SYMMETRY=1    SPIN SYMMETRY: Doublet 
 CONVERGENCE THRESHOLDS:    1.00E-05 (Density)    1.00E-06 (Energy)
 MAX. NUMBER OF ITERATIONS:       60
 INTERPOLATION TYPE:            DIIS
 INTERPOLATION STEPS:              2 (START)      1 (STEP)
 LEVEL SHIFTS:                 -0.60 (CLOSED) -0.30 (OPEN) 



 Use fine grid record 1800.2 for energy threshold  1.0D-06
 Orbital guess generated from atomic densities. Full valence occupancy:    9

 Molecular orbital dump at record        2100.2

 Initial alpha occupancy:   9
 Initial beta  occupancy:   8
 Wave function symmetry:    1

 ITERATION    DDIFF          GRAD             ENERGY        2-EL.EN.            DIPOLE MOMENTS         DIIS   ORB.
    1      0.000D+00      0.000D+00       -78.11842833    139.775937   -0.11207   -0.23482    0.00000    0    start
    2      0.000D+00      0.251D-01       -78.17516612    136.864408   -0.04371   -0.09510    0.00000    1    diag,B
    3      0.439D-01      0.280D-02       -78.17660737    136.626886   -0.03393   -0.06761    0.00000    2    diag,B
    4      0.466D-02      0.902D-03       -78.17689507    136.614128   -0.03153   -0.06006    0.00000    3    diag,B
    5      0.196D-02      0.310D-03       -78.17693844    136.613104   -0.03000   -0.05707    0.00000    4    diag,B
    6      0.962D-03      0.503D-04       -78.17693936    136.612759   -0.02950   -0.05686    0.00000    5    diag,B
    7      0.130D-03      0.125D-04       -78.17693942    136.612828   -0.02938   -0.05687    0.00000    6    fixocc
    8      0.392D-04      0.339D-05       -78.17693943    136.612824   -0.02935   -0.05687    0.00000    7    diag,B
    9      0.120D-04      0.829D-06       -78.17693943    136.612824   -0.02934   -0.05687    0.00000    8    diag,B
   10      0.317D-05      0.258D-06       -78.17693943    136.612825   -0.02934   -0.05687    0.00000    0    orth

 Final alpha occupancy:   9
 Final beta  occupancy:   8

 !RKS STATE 1.1 Energy                -78.176939426061
 Nuclear energy                        36.86300145
 One-electron energy                 -177.21793619
 Two-electron energy                   68.30641244
 Density functional                    -6.12841712     XC-M06-2X=-6.12841712
 Virial quotient                       -1.01326039
 !RKS STATE 1.1 Dipole moment          -0.02933941    -0.05687142     0.00000000
 Dipole moment /Debye                  -0.07456845    -0.14454325     0.00000000

 Orbital energies:

         1.1          2.1          3.1          4.1          5.1          6.1          7.1          8.1          9.1         10.1
    -10.378719   -10.333288    -0.794693    -0.636885    -0.477276    -0.432305    -0.403129    -0.378017    -0.197000     0.468053

        11.1
      0.473215

 HOMO      9.1    -0.197000 =      -5.3607eV
 LUMO     10.1     0.468053 =      12.7364eV
 LUMO-HOMO         0.665053 =      18.0970eV


 **********************************************************************************************************************************
 DATASETS  * FILE   NREC   LENGTH (MB)   RECORD NAMES
              1      20       30.85       500      610      700      900      950      970     1000      129      960     1100   
                                          VAR    BASINP    GEOM    SYMINP    ZMAT    AOBASIS   BASIS     P2S    ABASIS      S 
                                         1400     1410     1200     1210     1080     1600     1650     1300     1700     1800   
                                           T        V       H0       H01     AOSYM     SMH    MOLCAS    ERIS     OPER     GRID   

              2       5        2.86       700     1000      520     1800     2100   
                                         GEOM     BASIS   MCVARS    GRID      RKS  

 PROGRAMS   *        TOTAL        KS       INT
 CPU TIMES  *         3.56      3.22      0.19
 REAL TIME  *         4.21 SEC
 DISK USED  *        34.91 MB      
 **********************************************************************************************************************************


 PROGRAM * Intrinsic Basis Bonding Analysis (IBBA)          Author: G. Knizia

 Molecular orbitals read from record     2100.2  Type=RKS/CANONICAL (state 1.1)
 Fock matrix read from record            2100.2  Type=RKS/TOTAL (state 1.1)
 Orbital energies read from record       2100.2  Type=RKS/CANONICAL (state 1.1)
 Density matrix read from record         2100.2  Type=RKS/CHARGE (state 1.1)

 Number of core orbitals:           2 (   2 )
 Number of closed-shell orbitals:   6 (   6 )
 Number of active  orbitals:        1 (   1 )

 Basis set MINAO-AUTO-PP generated.      Number of basis functions:   15 

 Polarized AO type:                A = (O Ot + (1-O)(1-Ot)) P12
 Orthogonalization method:         Symmetric (Loewdin)
 Localization functional:          L = sum[A,i] <i|n_A|i>^4 -> max

 Localization group 1:   8 orbitals, occupancy  2.000
 Iterative localization: IB/PM,    6 iter; Final gradient 0.49E-08

 Bond order analysis:       [THRPRINT= 0.020]

   CEN ATOM   CEN ATOM     WIBERG.BO      RENORM.BO
     1   C  -   2   C       1.080652       2.016383
     1   C  -   5   H       0.974061       0.986887
     1   C  -   4   H       0.974061       0.986887
     1   C  -   3   H       0.031268       0.651819

     2   C  -   1   C       1.080652       2.016383
     2   C  -   7   H       0.957873       0.991374
     2   C  -   6   H       0.957873       0.991374
     2   C  -   3   H       0.935116       0.999222

     3   H  -   2   C       0.935116       0.999222
     3   H  -   1   C       0.031268       0.651819

     4   H  -   1   C       0.974061       0.986887

     5   H  -   1   C       0.974061       0.986887

     6   H  -   2   C       0.957873       0.991374

     7   H  -   2   C       0.957873       0.991374


 Valency analysis:

   CEN ATOM   TOT.VALENCE
     1   C       3.075836
     2   C       3.933545
     3   H       0.973350
     4   H       0.986548
     5   H       0.986548
     6   H       0.980379
     7   H       0.980379
 Localization group 2:   1 orbitals, occupancy  1.000
 Iterative localization: IB/PM,    1 iter; Final gradient 0.00E+00

 Bond order analysis:       [THRPRINT= 0.020]

   CEN ATOM   CEN ATOM     WIBERG.BO      RENORM.BO
     1   C  -   3   H       0.067012       0.500000


     3   H  -   1   C       0.067012       0.500000






 Valency analysis:

   CEN ATOM   TOT.VALENCE
     1   C       0.102021
     2   C       0.005212
     3   H       0.068322
     4   H       0.000193
     5   H       0.000193
     6   H       0.015574
     7   H       0.015574

 Total charge composition:

   CEN ATOM         s          p       ELECTRONS ->P.CHARGE
     1   C       3.02819    3.19525      6.22344   -0.22344
     2   C       2.98370    3.41691      6.40061   -0.40061
     3   H       0.87217                 0.87217    0.12783
     4   H       0.88411                 0.88411    0.11589
     5   H       0.88411                 0.88411    0.11589
     6   H       0.86777                 0.86777    0.13223
     7   H       0.86777                 0.86777    0.13223

 Total charge composition, AO contributions:

   CEN ATOM SHL      SPHERICAL COMPONENTS
     1   C  1s       1.99261
     1   C  2s       1.03558
     1   C  2p       0.99990    1.04906    1.14629

     2   C  1s       1.99112
     2   C  2s       0.99258
     2   C  2p       1.16558    1.08053    1.17080

     3   H  1s       0.87217

     4   H  1s       0.88411

     5   H  1s       0.88411

     6   H  1s       0.86777

     7   H  1s       0.86777

 Active orbital charges:

   CEN ATOM         s          p       ELECTRONS ->SPIN.DEN
     1   C       0.00434    0.94174      0.94608    0.94608
     2   C       0.00003    0.00258      0.00261    0.00261
     3   H       0.03542                 0.03542    0.03542
     4   H       0.00010                 0.00010    0.00010
     5   H       0.00010                 0.00010    0.00010
     6   H       0.00785                 0.00785    0.00785
     7   H       0.00785                 0.00785    0.00785

 Active orbital charges, AO contributions:

   CEN ATOM SHL      SPHERICAL COMPONENTS
     1   C  1s       0.00000
     1   C  2s       0.00434
     1   C  2p       0.93773    0.00401    0.00000

     2   C  1s       0.00000
     2   C  2s       0.00003
     2   C  2p       0.00249    0.00010    0.00000

     3   H  1s       0.03542

     4   H  1s       0.00010

     5   H  1s       0.00010

     6   H  1s       0.00785

     7   H  1s       0.00785

 Summary of localized orbital composition:   [THRPRINT= 0.020]

   ORB  GRP  ORB.ENERGY      CENTERS/CHARGES
     1   1   -10.261318      C  2   2.000
     2   1   -10.227522      C  1   2.000
     3   1    -0.626936      C  2   1.011   C  1   0.985
     4   1    -0.554657      C  1   1.116   H  5   0.880
     5   1    -0.554657      C  1   1.116   H  4   0.880
     6   1    -0.536997      C  2   1.126   H  3   0.834   C  1   0.039
     7   1    -0.536111      C  2   1.129   H  7   0.855
     8   1    -0.536111      C  2   1.129   H  6   0.855
     9   2    -0.028640      C  1   0.946   H  3   0.035

 Localized orbitals saved to record      2100.2  (orbital set 2)


 **********************************************************************************************************************************
 DATASETS  * FILE   NREC   LENGTH (MB)   RECORD NAMES
              1      20       30.85       500      610      700      900      950      970     1000      129      960     1100   
                                          VAR    BASINP    GEOM    SYMINP    ZMAT    AOBASIS   BASIS     P2S    ABASIS      S 
                                         1400     1410     1200     1210     1080     1600     1650     1300     1700     1800   
                                           T        V       H0       H01     AOSYM     SMH    MOLCAS    ERIS     OPER     GRID   

              2       5        2.86       700     1000      520     1800     2100   
                                         GEOM     BASIS   MCVARS    GRID      RKS  

 PROGRAMS   *        TOTAL      IBBA        KS       INT
 CPU TIMES  *         3.58      0.02      3.22      0.19
 REAL TIME  *         4.29 SEC
 DISK USED  *        34.91 MB      
 **********************************************************************************************************************************
 Molecular orbitals read from record     2100.2  Type=RKS/LOCAL(IBO)  
 Occupation numbers read from record     2100.2  Type=RKS/LOCAL(IBO)  
 Orbital energies read from record       2100.2  Type=RKS/LOCAL(IBO)  
 Redundancy group numbers read from rec  2100.2  Type=RKS/LOCAL(IBO)  

 IBBA/STO-3G energy=      0.000000000000

        KS-SCF  
    -78.17693943
 **********************************************************************************************************************************
 Molpro calculation terminated
