
 Primary working directories    : /tmp/sb13343
 Secondary working directories  : /tmp/sb13343
 Wavefunction directory         : /panfs/panasas01/chem/sb13343/wfu/
 Main file repository           : /tmp/sb13343/

 SHA1      : b4a5b34a9e711420743f49e6833241d17c61fb3c
 NAME      : 2099.9.b4a5b34
 ARCHNAME  : linux/x86_64_openmp
 FC        : /cm/shared/languages/GCC-6.1/bin/gfortran
 BLASLIB   : -lblas
 id        : simonbennie

 Nodes     nprocs
 node35-048    1

 Using customized tuning parameters: mindgm=1; mindgv=20; mindgc=4; mindgr=1; noblas=0; minvec=7
 default implementation of scratch files=df  

 memory,500,m
 geomtyp=xyz
 nosym
 noorient
 geometry={
 C         -0.00146        0.79548        0.00000
 C          0.02225       -0.69390        0.00000
 H         -0.99481       -1.12636        0.00000
 H         -0.09300        1.35197        0.92746
 H         -0.09300        1.35197       -0.92746
 H          0.52802       -1.09351        0.88764
 H          0.52802       -1.09351       -0.88764
 }
 basis={ default,sto-3g }
 {uks,MM05,direct;wf,17,1,1}
 {ibba,bonds=1}

 Variables initialized (895), CPU time= 0.00 sec
 Commands  initialized (725), CPU time= 0.01 sec, 591 directives.
 Default parameters read. Elapsed time= 0.08 sec

 Checking input...
 Passed
1


                                         ***  PROGRAM SYSTEM MOLPRO  ***
                                       Copyright, TTI GmbH Stuttgart, 2015
                                    Version 2099.9 linked May 26 2017 16:03:21


 **********************************************************************************************************************************
 LABEL *                                                                                 
  64 bit serial version                                                                  DATE: 08-Jun-17          TIME: 04:41:17  
 **********************************************************************************************************************************

 SHA1:             b4a5b34a9e711420743f49e6833241d17c61fb3c
 **********************************************************************************************************************************
 SETTING GEOMTYP        =    XYZ

 Variable memory set to  500000000 words,  buffer space 

 ZSYMEL=NOSYM

 SETTING BASIS          =    STO-3G


 Recomputing integrals since basis changed


 Using spherical harmonics

 Library entry C      S STO-3G               selected for orbital group  1
 Library entry C      P STO-3G               selected for orbital group  1
 Library entry H      S STO-3G               selected for orbital group  2


 PROGRAM * SEWARD (Integral evaluation for generally contracted gaussian basis sets)     Author: Roland Lindh, 1990

 Geometry written to block  1 of record 700


 Point group  C1  



 ATOMIC COORDINATES

 NR  ATOM    CHARGE       X              Y              Z

   1  C       6.00   -0.002759000    1.503239338    0.000000000
   2  C       6.00    0.042046406   -1.311280958    0.000000000
   3  H       1.00   -1.879918446   -2.128511918    0.000000000
   4  H       1.00   -0.175744530    2.554853029    1.752645391
   5  H       1.00   -0.175744530    2.554853029   -1.752645391
   6  H       1.00    0.997813188   -2.066434414    1.677396497
   7  H       1.00    0.997813188   -2.066434414   -1.677396497

 Bond lengths in Bohr (Angstrom)

 1-2  2.814876910  1-4  2.051238947  1-5  2.051238947  2-3  2.088495950  2-6  2.073018546
     ( 1.489568712)     ( 1.085468905)     ( 1.085468905)     ( 1.105184462)     ( 1.096994173)

 2-7  2.073018546
     ( 1.096994173)

 Bond angles

  1-2-3  112.12345176   1-2-6  111.81246303   1-2-7  111.81246303   2-1-4  120.92728687

  2-1-5  120.92728687   3-2-6  106.36442052   3-2-7  106.36442052   4-1-5  117.39421083

  6-2-7  108.02720793

 NUCLEAR CHARGE:                   17
 NUMBER OF PRIMITIVE AOS:          45
 NUMBER OF SYMMETRY AOS:           45
 NUMBER OF CONTRACTIONS:           15   (  15A   )
 NUMBER OF CORE ORBITALS:           2   (   2A   )
 NUMBER OF VALENCE ORBITALS:       13   (  13A   )


 NUCLEAR REPULSION ENERGY   36.86300145


 Eigenvalues of metric

         1 0.218E+00 0.272E+00 0.329E+00 0.377E+00 0.382E+00 0.392E+00 0.935E+00 0.955E+00


 Contracted 2-electron integrals neglected if value below      1.0D-11
 AO integral compression algorithm  1   Integral accuracy      1.0D-11

     0.262 MB (compressed) written to integral file (100.0%)


 NUMBER OF SORTED TWO-ELECTRON INTEGRALS:       7260.     BUFFER LENGTH:  32768
 NUMBER OF SEGMENTS:   1  SEGMENT LENGTH:       7260      RECORD LENGTH: 524288

 Memory used in sort:       0.56 MW

 SORT1 READ        9024. AND WROTE        6273. INTEGRALS IN      1 RECORDS. CPU TIME:     0.00 SEC, REAL TIME:     0.01 SEC
 SORT2 READ        6273. AND WROTE        7260. INTEGRALS IN      1 RECORDS. CPU TIME:     0.01 SEC, REAL TIME:     0.00 SEC

 FILE SIZES:   FILE 1:    30.3 MBYTE,  FILE 4:     4.2 MBYTE,   TOTAL:     34.5 MBYTE

 OPERATOR DM      FOR CENTER  0  COORDINATES:    0.000000    0.000000    0.000000


 **********************************************************************************************************************************
 DATASETS  * FILE   NREC   LENGTH (MB)   RECORD NAMES
              1      19       30.09       500      610      700      900      950      970     1000      129      960     1100   
                                          VAR    BASINP    GEOM    SYMINP    ZMAT    AOBASIS   BASIS     P2S    ABASIS      S 
                                         1400     1410     1200     1210     1080     1600     1650     1300     1700   
                                           T        V       H0       H01     AOSYM     SMH    MOLCAS    ERIS     OPER   

 PROGRAMS   *        TOTAL       INT
 CPU TIMES  *         0.34      0.19
 REAL TIME  *         0.82 SEC
 DISK USED  *        34.91 MB      
 **********************************************************************************************************************************

 Density functional group MM05=M05X+M05C
 Functional: M05X(Automatically generated (new) M05X)                          Gradient terms: 2
 Functional: M05C(Automatically generated (new) M05C)                          Gradient terms: 2
 Use grid at  1800.2


 Exact exchange will be calculated, factor:  0.2800

 Functional: M05X                      Factor:  0.7200
 Functional: M05C                      Factor:  1.0000

 Generated new metagrid on record  1800.2 with target accuracy 1.0D-06 and 23794 points in CPU time    0.5
 Computed new grid on record 1800.1 in CPU time    0.6
   27415 words reserved for DFT integration

 PROGRAM * UKS-SCF (Unrestricted Kohn-Sham)     Authors: W. Meyer, H.-J. Werner, P.J. Knowles, 1993

 NUMBER OF ELECTRONS:       9+    8-    SPACE SYMMETRY=1    SPIN SYMMETRY: Doublet 
 CONVERGENCE THRESHOLDS:    1.00E-05 (Density)    1.00E-06 (Energy)
 MAX. NUMBER OF ITERATIONS:       60
 INTERPOLATION TYPE:            DIIS
 INTERPOLATION STEPS:              2 (START)      1 (STEP)
 LEVEL SHIFTS:                 -0.20 (ALPHA)  -0.20 (BETA) 



 Use fine grid record 1800.2 for energy threshold  1.0D-06
 Orbital guess generated from atomic densities. Full valence occupancy:    9

 Molecular orbital dump at record        2200.2

 Initial alpha occupation   9
 Initial beta  occupation   8

 ITERATION    DDIFF          GRAD             ENERGY        2-EL.EN.            DIPOLE MOMENTS         DIIS
    1      0.000D+00      0.000D+00       -78.10834070    146.669276   -0.11765   -0.22500    0.00000    0
    2      0.578D-01      0.216D-01       -78.17923758    142.827021   -0.04578   -0.10987    0.00000    1
    3      0.521D-02      0.317D-02       -78.18082374    143.077960   -0.04098   -0.09103    0.00000    2
    4      0.178D-02      0.126D-02       -78.18133372    143.061074   -0.03732   -0.08001    0.00000    3
    5      0.133D-02      0.625D-03       -78.18148294    143.063762   -0.03503   -0.07199    0.00000    4
    6      0.191D-03      0.768D-04       -78.18148528    143.062867   -0.03502   -0.07114    0.00000    5
    7      0.370D-04      0.151D-04       -78.18148536    143.062933   -0.03502   -0.07107    0.00000    6
    8      0.496D-05      0.274D-05       -78.18148536    143.062945   -0.03502   -0.07107    0.00000    6
    9      0.993D-06      0.495D-06       -78.18148536    143.062946   -0.03502   -0.07107    0.00000    5

 Final alpha occupancy:   9
 Final beta  occupancy:   8

 !UKS STATE 1.1 Energy                -78.181485363296
 Nuclear energy                        36.86300145
 One-electron energy                 -177.27098134
 Two-electron energy                   71.53147289
 Density functional                    -9.30497836     M05X=-12.20543445 M05C= -0.51706556
 Virial quotient                       -1.01300091
 !UKS STATE 1.1 Dipole moment          -0.03502347    -0.07107222     0.00000000
 Dipole moment /Debye                  -0.08901496    -0.18063573     0.00000000

 Orbital energies for positive spin:

         1.1          2.1          3.1          4.1          5.1          6.1          7.1          8.1          9.1         10.1
    -10.082848   -10.042357    -0.733175    -0.587011    -0.426956    -0.387475    -0.358168    -0.329379    -0.133612     0.417063

        11.1
      0.426106

 Orbital energies for negative spin:

         1.1          2.1          3.1          4.1          5.1          6.1          7.1          8.1          9.1         10.1
    -10.083583   -10.032776    -0.715775    -0.556954    -0.414689    -0.373744    -0.347110    -0.322667     0.092724     0.419274

        11.1
      0.454169

 HOMO      9.1    -0.133612 =      -3.6358eV
 LUMO     -9.1     0.092724 =       2.5231eV
 LUMO-HOMO         0.226336 =       6.1589eV

 EXPECTATION VALUE OF S**2:             0.75585063

 Occupation number threshold for canonical orbitals:  1.999000 (occupied),  0.001000 (virtual)

 Number of pseudo-canonical orbitals per symmetry:    7
 Number of active natural orbitals per symmetry:      3

 Natural orbitals saved to record    2200.2 (Orbital set 3)

 Orbital spaces for UNO-CAS (Min. occupation: 0.020  Max. occupation: 1.980):

 Closed:        8
 Active:        1


 **********************************************************************************************************************************
 DATASETS  * FILE   NREC   LENGTH (MB)   RECORD NAMES
              1      20       30.85       500      610      700      900      950      970     1000      129      960     1100   
                                          VAR    BASINP    GEOM    SYMINP    ZMAT    AOBASIS   BASIS     P2S    ABASIS      S 
                                         1400     1410     1200     1210     1080     1600     1650     1300     1700     1800   
                                           T        V       H0       H01     AOSYM     SMH    MOLCAS    ERIS     OPER     GRID   

              2       5        2.86       700     1000      520     1800     2200   
                                         GEOM     BASIS   MCVARS    GRID      UKS  

 PROGRAMS   *        TOTAL       UKS       INT
 CPU TIMES  *         3.06      2.72      0.19
 REAL TIME  *         4.12 SEC
 DISK USED  *        34.91 MB      
 **********************************************************************************************************************************


 PROGRAM * Intrinsic Basis Bonding Analysis (IBBA)          Author: G. Knizia

 Molecular orbitals read from record     2200.2  Type=UKS/ALPHA (state 1.1)
 Fock matrix read from record            2200.2  Type=UKS/TOTAL (state 1.1)
 Orbital energies read from record       2200.2  Type=UKS/ALPHA (state 1.1)
 Density matrix read from record         2200.2  Type=UKS/CHARGE (state 1.1)

 Number of core orbitals:           2 (   2 )
 Number of closed-shell orbitals:   6 (   6 )
 Number of active  orbitals:        1 (   1 )

 Basis set MINAO-AUTO-PP generated.      Number of basis functions:   15 

 Polarized AO type:                A = (O Ot + (1-O)(1-Ot)) P12
 Orthogonalization method:         Symmetric (Loewdin)
 Localization functional:          L = sum[A,i] <i|n_A|i>^4 -> max

 Localization group 1:   8 orbitals, occupancy  2.000
 Iterative localization: IB/PM,    6 iter; Final gradient 0.34E-08

 Bond order analysis:       [THRPRINT= 0.020]

   CEN ATOM   CEN ATOM     WIBERG.BO      RENORM.BO
     1   C  -   2   C       1.197013       2.017221
     1   C  -   5   H       0.959629       0.985586
     1   C  -   4   H       0.959629       0.985586
     1   C  -   3   H       0.078862       0.627439

     2   C  -   1   C       1.197013       2.017221
     2   C  -   7   H       0.940966       0.990107
     2   C  -   6   H       0.940966       0.990107
     2   C  -   3   H       0.864828       0.998948

     3   H  -   2   C       0.864828       0.998948
     3   H  -   1   C       0.078862       0.627439

     4   H  -   1   C       0.959629       0.985586

     5   H  -   1   C       0.959629       0.985586

     6   H  -   2   C       0.940966       0.990107

     7   H  -   2   C       0.940966       0.990107


 Valency analysis:

   CEN ATOM   TOT.VALENCE
     1   C       3.232022
     2   C       3.945735
     3   H       0.956406
     4   H       0.972918
     5   H       0.972918
     6   H       0.976736
     7   H       0.976736
 Localization group 2:   1 orbitals, occupancy  1.000
 Iterative localization: IB/PM,    1 iter; Final gradient 0.00E+00

 Bond order analysis:       [THRPRINT= 0.020]

   CEN ATOM   CEN ATOM     WIBERG.BO      RENORM.BO
     1   C  -   3   H       0.113218       0.500000
     1   C  -   2   C       0.032206       0.500000
     1   C  -   7   H       0.025634       0.500000
     1   C  -   6   H       0.025634       0.500000

     2   C  -   1   C       0.032206       0.500000

     3   H  -   1   C       0.113218       0.500000



     6   H  -   1   C       0.025634       0.500000

     7   H  -   1   C       0.025634       0.500000


 Valency analysis:

   CEN ATOM   TOT.VALENCE
     1   C       0.197592
     2   C       0.035577
     3   H       0.119263
     4   H       0.000507
     5   H       0.000507
     6   H       0.028423
     7   H       0.028423

 Total charge composition:

   CEN ATOM         s          p       ELECTRONS ->P.CHARGE
     1   C       3.08315    3.32146      6.40461   -0.40461
     2   C       2.98668    3.35865      6.34533   -0.34533
     3   H       0.85490                 0.85490    0.14510
     4   H       0.83569                 0.83569    0.16431
     5   H       0.83569                 0.83569    0.16431
     6   H       0.86190                 0.86190    0.13810
     7   H       0.86190                 0.86190    0.13810

 Total charge composition, AO contributions:

   CEN ATOM SHL      SPHERICAL COMPONENTS
     1   C  1s       1.99261
     1   C  2s       1.09054
     1   C  2p       1.04497    1.08575    1.19074

     2   C  1s       1.99124
     2   C  2s       0.99544
     2   C  2p       1.14489    1.04423    1.16953

     3   H  1s       0.85490

     4   H  1s       0.83569

     5   H  1s       0.83569

     6   H  1s       0.86190

     7   H  1s       0.86190

 Active orbital charges:

   CEN ATOM         s          p       ELECTRONS ->SPIN.DEN
     1   C       0.00247    0.88638      0.88885    0.88885
     2   C       0.00003    0.01808      0.01812    0.01812
     3   H       0.06369                 0.06369    0.06369
     4   H       0.00025                 0.00025    0.00025
     5   H       0.00025                 0.00025    0.00025
     6   H       0.01442                 0.01442    0.01442
     7   H       0.01442                 0.01442    0.01442

 Active orbital charges, AO contributions:

   CEN ATOM SHL      SPHERICAL COMPONENTS
     1   C  1s       0.00000
     1   C  2s       0.00247
     1   C  2p       0.88278    0.00360    0.00000

     2   C  1s       0.00000
     2   C  2s       0.00003
     2   C  2p       0.01783    0.00026    0.00000

     3   H  1s       0.06369

     4   H  1s       0.00025

     5   H  1s       0.00025

     6   H  1s       0.01442

     7   H  1s       0.01442

 Summary of localized orbital composition:   [THRPRINT= 0.020]

   ORB  GRP  ORB.ENERGY      CENTERS/CHARGES
     1   1    -9.968345      C  2   2.000
     2   1    -9.929692      C  1   2.000
     3   1    -0.566254      C  1   1.024   C  2   0.972
     4   1    -0.495815      C  1   1.164   H  4   0.830
     5   1    -0.495815      C  1   1.164   H  5   0.830
     6   1    -0.480082      C  2   1.101   H  3   0.786   C  1   0.110
     7   1    -0.477821      C  2   1.125   H  7   0.843   C  1   0.026
     8   1    -0.477821      C  2   1.125   H  6   0.843   C  1   0.026
     9   2    -0.022557      C  1   0.889   H  3   0.064   (other: 0.047)

 Localized orbitals saved to record      2200.2  (orbital set 4)


 **********************************************************************************************************************************
 DATASETS  * FILE   NREC   LENGTH (MB)   RECORD NAMES
              1      20       30.85       500      610      700      900      950      970     1000      129      960     1100   
                                          VAR    BASINP    GEOM    SYMINP    ZMAT    AOBASIS   BASIS     P2S    ABASIS      S 
                                         1400     1410     1200     1210     1080     1600     1650     1300     1700     1800   
                                           T        V       H0       H01     AOSYM     SMH    MOLCAS    ERIS     OPER     GRID   

              2       5        2.87       700     1000      520     1800     2200   
                                         GEOM     BASIS   MCVARS    GRID      UKS  

 PROGRAMS   *        TOTAL      IBBA       UKS       INT
 CPU TIMES  *         3.08      0.02      2.72      0.19
 REAL TIME  *         4.21 SEC
 DISK USED  *        34.91 MB      
 **********************************************************************************************************************************
 Molecular orbitals read from record     2200.2  Type=UKS/LOCAL(IBO)  
 Occupation numbers read from record     2200.2  Type=UKS/LOCAL(IBO)  
 Orbital energies read from record       2200.2  Type=UKS/LOCAL(IBO)  
 Redundancy group numbers read from rec  2200.2  Type=UKS/BETA (state 1.1)

 IBBA/STO-3G energy=      0.000000000000

        UKS-SCF 
    -78.18148536
 **********************************************************************************************************************************
 Molpro calculation terminated
