
 Primary working directories    : /tmp/sb13343
 Secondary working directories  : /tmp/sb13343
 Wavefunction directory         : /panfs/panasas01/chem/sb13343/wfu/
 Main file repository           : /tmp/sb13343/

 SHA1      : b4a5b34a9e711420743f49e6833241d17c61fb3c
 NAME      : 2099.9.b4a5b34
 ARCHNAME  : linux/x86_64_openmp
 FC        : /cm/shared/languages/GCC-6.1/bin/gfortran
 BLASLIB   : -lblas
 id        : simonbennie

 Nodes     nprocs
 node35-048    1

 Using customized tuning parameters: mindgm=1; mindgv=20; mindgc=4; mindgr=1; noblas=0; minvec=7
 default implementation of scratch files=df  

 memory,500,m
 geomtyp=xyz
 nosym
 noorient
 geometry={
 C         -0.00146        0.79548        0.00000
 C          0.02225       -0.69390        0.00000
 H         -0.99481       -1.12636        0.00000
 H         -0.09300        1.35197        0.92746
 H         -0.09300        1.35197       -0.92746
 H          0.52802       -1.09351        0.88764
 H          0.52802       -1.09351       -0.88764
 }
 basis={ default,sto-3g }
 {uks,PBEREV,direct;wf,17,1,1}
 {ibba,bonds=1}

 Variables initialized (895), CPU time= 0.00 sec
 Commands  initialized (725), CPU time= 0.02 sec, 591 directives.
 Default parameters read. Elapsed time= 0.14 sec

 Checking input...
 Passed
1


                                         ***  PROGRAM SYSTEM MOLPRO  ***
                                       Copyright, TTI GmbH Stuttgart, 2015
                                    Version 2099.9 linked May 26 2017 16:03:21


 **********************************************************************************************************************************
 LABEL *                                                                                 
  64 bit serial version                                                                  DATE: 08-Jun-17          TIME: 04:43:57  
 **********************************************************************************************************************************

 SHA1:             b4a5b34a9e711420743f49e6833241d17c61fb3c
 **********************************************************************************************************************************
 SETTING GEOMTYP        =    XYZ

 Variable memory set to  500000000 words,  buffer space 

 ZSYMEL=NOSYM

 SETTING BASIS          =    STO-3G


 Recomputing integrals since basis changed


 Using spherical harmonics

 Library entry C      S STO-3G               selected for orbital group  1
 Library entry C      P STO-3G               selected for orbital group  1
 Library entry H      S STO-3G               selected for orbital group  2


 PROGRAM * SEWARD (Integral evaluation for generally contracted gaussian basis sets)     Author: Roland Lindh, 1990

 Geometry written to block  1 of record 700


 Point group  C1  



 ATOMIC COORDINATES

 NR  ATOM    CHARGE       X              Y              Z

   1  C       6.00   -0.002759000    1.503239338    0.000000000
   2  C       6.00    0.042046406   -1.311280958    0.000000000
   3  H       1.00   -1.879918446   -2.128511918    0.000000000
   4  H       1.00   -0.175744530    2.554853029    1.752645391
   5  H       1.00   -0.175744530    2.554853029   -1.752645391
   6  H       1.00    0.997813188   -2.066434414    1.677396497
   7  H       1.00    0.997813188   -2.066434414   -1.677396497

 Bond lengths in Bohr (Angstrom)

 1-2  2.814876910  1-4  2.051238947  1-5  2.051238947  2-3  2.088495950  2-6  2.073018546
     ( 1.489568712)     ( 1.085468905)     ( 1.085468905)     ( 1.105184462)     ( 1.096994173)

 2-7  2.073018546
     ( 1.096994173)

 Bond angles

  1-2-3  112.12345176   1-2-6  111.81246303   1-2-7  111.81246303   2-1-4  120.92728687

  2-1-5  120.92728687   3-2-6  106.36442052   3-2-7  106.36442052   4-1-5  117.39421083

  6-2-7  108.02720793

 NUCLEAR CHARGE:                   17
 NUMBER OF PRIMITIVE AOS:          45
 NUMBER OF SYMMETRY AOS:           45
 NUMBER OF CONTRACTIONS:           15   (  15A   )
 NUMBER OF CORE ORBITALS:           2   (   2A   )
 NUMBER OF VALENCE ORBITALS:       13   (  13A   )


 NUCLEAR REPULSION ENERGY   36.86300145


 Eigenvalues of metric

         1 0.218E+00 0.272E+00 0.329E+00 0.377E+00 0.382E+00 0.392E+00 0.935E+00 0.955E+00


 Contracted 2-electron integrals neglected if value below      1.0D-11
 AO integral compression algorithm  1   Integral accuracy      1.0D-11

     0.262 MB (compressed) written to integral file (100.0%)


 NUMBER OF SORTED TWO-ELECTRON INTEGRALS:       7260.     BUFFER LENGTH:  32768
 NUMBER OF SEGMENTS:   1  SEGMENT LENGTH:       7260      RECORD LENGTH: 524288

 Memory used in sort:       0.56 MW

 SORT1 READ        9024. AND WROTE        6273. INTEGRALS IN      1 RECORDS. CPU TIME:     0.00 SEC, REAL TIME:     0.00 SEC
 SORT2 READ        6273. AND WROTE        7260. INTEGRALS IN      1 RECORDS. CPU TIME:     0.00 SEC, REAL TIME:     0.01 SEC

 FILE SIZES:   FILE 1:    30.3 MBYTE,  FILE 4:     4.2 MBYTE,   TOTAL:     34.5 MBYTE

 OPERATOR DM      FOR CENTER  0  COORDINATES:    0.000000    0.000000    0.000000


 **********************************************************************************************************************************
 DATASETS  * FILE   NREC   LENGTH (MB)   RECORD NAMES
              1      19       30.09       500      610      700      900      950      970     1000      129      960     1100   
                                          VAR    BASINP    GEOM    SYMINP    ZMAT    AOBASIS   BASIS     P2S    ABASIS      S 
                                         1400     1410     1200     1210     1080     1600     1650     1300     1700   
                                           T        V       H0       H01     AOSYM     SMH    MOLCAS    ERIS     OPER   

 PROGRAMS   *        TOTAL       INT
 CPU TIMES  *         0.36      0.21
 REAL TIME  *         0.91 SEC
 DISK USED  *        34.91 MB      
 **********************************************************************************************************************************

 Density functional group PBEREV=PBEXREV+PBEC
 Functional: PBEXREV(Automatically generated (new) PBEXREV)                    Gradient terms: 1
 Functional: PBEC(Automatically generated (new) PBEC)                          Gradient terms: 1
 Use grid at  1800.2

 Functional: PBEXREV                   Factor:  1.0000
 Functional: PBEC                      Factor:  1.0000

 Generated new metagrid on record  1800.2 with target accuracy 1.0D-06 and 23794 points in CPU time    0.5
 Computed new grid on record 1800.1 in CPU time    0.5
   15985 words reserved for DFT integration

 PROGRAM * UKS-SCF (Unrestricted Kohn-Sham)     Authors: W. Meyer, H.-J. Werner, P.J. Knowles, 1993

 NUMBER OF ELECTRONS:       9+    8-    SPACE SYMMETRY=1    SPIN SYMMETRY: Doublet 
 CONVERGENCE THRESHOLDS:    1.00E-05 (Density)    1.00E-06 (Energy)
 MAX. NUMBER OF ITERATIONS:       60
 INTERPOLATION TYPE:            DIIS
 INTERPOLATION STEPS:              2 (START)      1 (STEP)
 LEVEL SHIFTS:                 -0.20 (ALPHA)  -0.20 (BETA) 



 Use fine grid record 1800.2 for energy threshold  1.0D-06
 Orbital guess generated from atomic densities. Full valence occupancy:    9

 Molecular orbital dump at record        2200.2

 Initial alpha occupation   9
 Initial beta  occupation   8

 ITERATION    DDIFF          GRAD             ENERGY        2-EL.EN.            DIPOLE MOMENTS         DIIS
    1      0.000D+00      0.000D+00       -78.09461671    153.742094   -0.12080   -0.22097    0.00000    0
    2      0.690D-01      0.230D-01       -78.17334335    149.120268   -0.03519   -0.09914    0.00000    1
    3      0.117D-01      0.488D-02       -78.17690567    149.831986   -0.03757   -0.08736    0.00000    2
    4      0.153D-02      0.974D-03       -78.17717227    149.819394   -0.03572   -0.07991    0.00000    3
    5      0.101D-02      0.575D-03       -78.17728009    149.821332   -0.03347   -0.07162    0.00000    4
    6      0.257D-03      0.998D-04       -78.17728457    149.820334   -0.03329   -0.07044    0.00000    5
    7      0.365D-04      0.137D-04       -78.17728465    149.820311   -0.03328   -0.07034    0.00000    6
    8      0.573D-05      0.324D-05       -78.17728466    149.820276   -0.03327   -0.07033    0.00000    5
    9      0.101D-05      0.561D-06       -78.17728466    149.820305   -0.03327   -0.07033    0.00000    5

 Final alpha occupancy:   9
 Final beta  occupancy:   8

 !UKS STATE 1.1 Energy                -78.177284657732
 Nuclear energy                        36.86300145
 One-electron energy                 -177.24199079
 Two-electron energy                   74.91015253
 Density functional                   -12.70844785     PBEXREV=-12.17154558 PBEC= -0.53690227
 Virial quotient                       -1.01390009
 !UKS STATE 1.1 Dipole moment          -0.03326703    -0.07033227     0.00000000
 Dipole moment /Debye                  -0.08455081    -0.17875510     0.00000000

 Orbital energies for positive spin:

         1.1          2.1          3.1          4.1          5.1          6.1          7.1          8.1          9.1         10.1
     -9.728228    -9.688721    -0.642345    -0.508308    -0.361605    -0.326153    -0.299919    -0.272378    -0.086464     0.354914

        11.1
      0.363249

 Orbital energies for negative spin:

         1.1          2.1          3.1          4.1          5.1          6.1          7.1          8.1          9.1         10.1
     -9.729149    -9.675316    -0.626970    -0.484459    -0.355063    -0.316640    -0.290482    -0.267887     0.038230     0.358985

        11.1
      0.398213

 HOMO      9.1    -0.086464 =      -2.3528eV
 LUMO     -9.1     0.038230 =       1.0403eV
 LUMO-HOMO         0.124694 =       3.3931eV

 EXPECTATION VALUE OF S**2:             0.75387311

 Occupation number threshold for canonical orbitals:  1.999000 (occupied),  0.001000 (virtual)

 Number of pseudo-canonical orbitals per symmetry:    7
 Number of active natural orbitals per symmetry:      3

 Natural orbitals saved to record    2200.2 (Orbital set 3)

 Orbital spaces for UNO-CAS (Min. occupation: 0.020  Max. occupation: 1.980):

 Closed:        8
 Active:        1


 **********************************************************************************************************************************
 DATASETS  * FILE   NREC   LENGTH (MB)   RECORD NAMES
              1      20       30.85       500      610      700      900      950      970     1000      129      960     1100   
                                          VAR    BASINP    GEOM    SYMINP    ZMAT    AOBASIS   BASIS     P2S    ABASIS      S 
                                         1400     1410     1200     1210     1080     1600     1650     1300     1700     1800   
                                           T        V       H0       H01     AOSYM     SMH    MOLCAS    ERIS     OPER     GRID   

              2       5        2.86       700     1000      520     1800     2200   
                                         GEOM     BASIS   MCVARS    GRID      UKS  

 PROGRAMS   *        TOTAL       UKS       INT
 CPU TIMES  *         1.73      1.37      0.21
 REAL TIME  *         2.92 SEC
 DISK USED  *        34.91 MB      
 **********************************************************************************************************************************


 PROGRAM * Intrinsic Basis Bonding Analysis (IBBA)          Author: G. Knizia

 Molecular orbitals read from record     2200.2  Type=UKS/ALPHA (state 1.1)
 Fock matrix read from record            2200.2  Type=UKS/TOTAL (state 1.1)
 Orbital energies read from record       2200.2  Type=UKS/ALPHA (state 1.1)
 Density matrix read from record         2200.2  Type=UKS/CHARGE (state 1.1)

 Number of core orbitals:           2 (   2 )
 Number of closed-shell orbitals:   6 (   6 )
 Number of active  orbitals:        1 (   1 )

 Basis set MINAO-AUTO-PP generated.      Number of basis functions:   15 

 Polarized AO type:                A = (O Ot + (1-O)(1-Ot)) P12
 Orthogonalization method:         Symmetric (Loewdin)
 Localization functional:          L = sum[A,i] <i|n_A|i>^4 -> max

 Localization group 1:   8 orbitals, occupancy  2.000
 Iterative localization: IB/PM,    6 iter; Final gradient 0.37E-08

 Bond order analysis:       [THRPRINT= 0.020]

   CEN ATOM   CEN ATOM     WIBERG.BO      RENORM.BO
     1   C  -   2   C       1.190347       2.018443
     1   C  -   5   H       0.963701       0.984824
     1   C  -   4   H       0.963701       0.984824
     1   C  -   3   H       0.076750       0.631666

     2   C  -   1   C       1.190347       2.018443
     2   C  -   7   H       0.942304       0.989729
     2   C  -   6   H       0.942304       0.989729
     2   C  -   3   H       0.870865       0.998910

     3   H  -   2   C       0.870865       0.998910
     3   H  -   1   C       0.076750       0.631666

     4   H  -   1   C       0.963701       0.984824

     5   H  -   1   C       0.963701       0.984824

     6   H  -   2   C       0.942304       0.989729

     7   H  -   2   C       0.942304       0.989729


 Valency analysis:

   CEN ATOM   TOT.VALENCE
     1   C       3.230267
     2   C       3.947544
     3   H       0.959563
     4   H       0.977164
     5   H       0.977164
     6   H       0.977667
     7   H       0.977667
 Localization group 2:   1 orbitals, occupancy  1.000
 Iterative localization: IB/PM,    1 iter; Final gradient 0.00E+00

 Bond order analysis:       [THRPRINT= 0.020]

   CEN ATOM   CEN ATOM     WIBERG.BO      RENORM.BO
     1   C  -   3   H       0.114717       0.500000
     1   C  -   2   C       0.027861       0.500000
     1   C  -   6   H       0.025511       0.500000
     1   C  -   7   H       0.025511       0.500000

     2   C  -   1   C       0.027861       0.500000

     3   H  -   1   C       0.114717       0.500000



     6   H  -   1   C       0.025511       0.500000

     7   H  -   1   C       0.025511       0.500000


 Valency analysis:

   CEN ATOM   TOT.VALENCE
     1   C       0.194522
     2   C       0.030787
     3   H       0.120486
     4   H       0.000518
     5   H       0.000518
     6   H       0.028227
     7   H       0.028227

 Total charge composition:

   CEN ATOM         s          p       ELECTRONS ->P.CHARGE
     1   C       3.08199    3.28116      6.36315   -0.36315
     2   C       2.98588    3.35963      6.34551   -0.34551
     3   H       0.86330                 0.86330    0.13670
     4   H       0.84914                 0.84914    0.15086
     5   H       0.84914                 0.84914    0.15086
     6   H       0.86488                 0.86488    0.13512
     7   H       0.86488                 0.86488    0.13512

 Total charge composition, AO contributions:

   CEN ATOM SHL      SPHERICAL COMPONENTS
     1   C  1s       1.99297
     1   C  2s       1.08902
     1   C  2p       1.03991    1.07066    1.17058

     2   C  1s       1.99175
     2   C  2s       0.99413
     2   C  2p       1.13985    1.05404    1.16574

     3   H  1s       0.86330

     4   H  1s       0.84914

     5   H  1s       0.84914

     6   H  1s       0.86488

     7   H  1s       0.86488

 Active orbital charges:

   CEN ATOM         s          p       ELECTRONS ->SPIN.DEN
     1   C       0.00260    0.88821      0.89082    0.89082
     2   C       0.00005    0.01559      0.01564    0.01564
     3   H       0.06439                 0.06439    0.06439
     4   H       0.00026                 0.00026    0.00026
     5   H       0.00026                 0.00026    0.00026
     6   H       0.01432                 0.01432    0.01432
     7   H       0.01432                 0.01432    0.01432

 Active orbital charges, AO contributions:

   CEN ATOM SHL      SPHERICAL COMPONENTS
     1   C  1s       0.00000
     1   C  2s       0.00260
     1   C  2p       0.88453    0.00369    0.00000

     2   C  1s       0.00000
     2   C  2s       0.00005
     2   C  2p       0.01535    0.00024    0.00000

     3   H  1s       0.06439

     4   H  1s       0.00026

     5   H  1s       0.00026

     6   H  1s       0.01432

     7   H  1s       0.01432

 Summary of localized orbital composition:   [THRPRINT= 0.020]

   ORB  GRP  ORB.ENERGY      CENTERS/CHARGES
     1   1    -9.618050      C  2   2.000
     2   1    -9.577431      C  1   2.000
     3   1    -0.492688      C  1   1.015   C  2   0.982
     4   1    -0.429355      C  1   1.151   H  4   0.844
     5   1    -0.429355      C  1   1.151   H  5   0.844
     6   1    -0.414119      C  2   1.097   H  3   0.794   C  1   0.105
     7   1    -0.411360      C  2   1.123   H  7   0.845   C  1   0.026
     8   1    -0.411360      C  2   1.123   H  6   0.845   C  1   0.026
     9   2    -0.024996      C  1   0.891   H  3   0.064   (other: 0.045)

 Localized orbitals saved to record      2200.2  (orbital set 4)


 **********************************************************************************************************************************
 DATASETS  * FILE   NREC   LENGTH (MB)   RECORD NAMES
              1      20       30.85       500      610      700      900      950      970     1000      129      960     1100   
                                          VAR    BASINP    GEOM    SYMINP    ZMAT    AOBASIS   BASIS     P2S    ABASIS      S 
                                         1400     1410     1200     1210     1080     1600     1650     1300     1700     1800   
                                           T        V       H0       H01     AOSYM     SMH    MOLCAS    ERIS     OPER     GRID   

              2       5        2.87       700     1000      520     1800     2200   
                                         GEOM     BASIS   MCVARS    GRID      UKS  

 PROGRAMS   *        TOTAL      IBBA       UKS       INT
 CPU TIMES  *         1.76      0.02      1.37      0.21
 REAL TIME  *         3.01 SEC
 DISK USED  *        34.91 MB      
 **********************************************************************************************************************************
 Molecular orbitals read from record     2200.2  Type=UKS/LOCAL(IBO)  
 Occupation numbers read from record     2200.2  Type=UKS/LOCAL(IBO)  
 Orbital energies read from record       2200.2  Type=UKS/LOCAL(IBO)  
 Redundancy group numbers read from rec  2200.2  Type=UKS/BETA (state 1.1)

 IBBA/STO-3G energy=      0.000000000000

        UKS-SCF 
    -78.17728466
 **********************************************************************************************************************************
 Molpro calculation terminated
