
 Primary working directories    : /tmp/sb13343
 Secondary working directories  : /tmp/sb13343
 Wavefunction directory         : /panfs/panasas01/chem/sb13343/wfu/
 Main file repository           : /tmp/sb13343/

 SHA1      : b4a5b34a9e711420743f49e6833241d17c61fb3c
 NAME      : 2099.9.b4a5b34
 ARCHNAME  : linux/x86_64_openmp
 FC        : /cm/shared/languages/GCC-6.1/bin/gfortran
 BLASLIB   : -lblas
 id        : simonbennie

 Nodes     nprocs
 node45-004    1

 Using customized tuning parameters: mindgm=1; mindgv=20; mindgc=4; mindgr=1; noblas=0; minvec=7
 default implementation of scratch files=df  

 memory,500,m
 geomtyp=xyz
 nosym
 noorient
 geometry={
 C         -0.00146        0.79548        0.00000
 C          0.02225       -0.69390        0.00000
 H         -0.99481       -1.12636        0.00000
 H         -0.09300        1.35197        0.92746
 H         -0.09300        1.35197       -0.92746
 H          0.52802       -1.09351        0.88764
 H          0.52802       -1.09351       -0.88764
 }
 basis={ default,sto-3g }
 {uks,M08-HX,direct;wf,17,1,1}
 {ibba,bonds=1}

 Variables initialized (895), CPU time= 0.00 sec
 Commands  initialized (725), CPU time= 0.02 sec, 591 directives.
 Default parameters read. Elapsed time= 0.08 sec

 Checking input...
 Passed
1


                                         ***  PROGRAM SYSTEM MOLPRO  ***
                                       Copyright, TTI GmbH Stuttgart, 2015
                                    Version 2099.9 linked May 26 2017 16:03:21


 **********************************************************************************************************************************
 LABEL *                                                                                 
  64 bit serial version                                                                  DATE: 08-Jun-17          TIME: 04:32:12  
 **********************************************************************************************************************************

 SHA1:             b4a5b34a9e711420743f49e6833241d17c61fb3c
 **********************************************************************************************************************************
 SETTING GEOMTYP        =    XYZ

 Variable memory set to  500000000 words,  buffer space 

 ZSYMEL=NOSYM

 SETTING BASIS          =    STO-3G


 Recomputing integrals since basis changed


 Using spherical harmonics

 Library entry C      S STO-3G               selected for orbital group  1
 Library entry C      P STO-3G               selected for orbital group  1
 Library entry H      S STO-3G               selected for orbital group  2


 PROGRAM * SEWARD (Integral evaluation for generally contracted gaussian basis sets)     Author: Roland Lindh, 1990

 Geometry written to block  1 of record 700


 Point group  C1  



 ATOMIC COORDINATES

 NR  ATOM    CHARGE       X              Y              Z

   1  C       6.00   -0.002759000    1.503239338    0.000000000
   2  C       6.00    0.042046406   -1.311280958    0.000000000
   3  H       1.00   -1.879918446   -2.128511918    0.000000000
   4  H       1.00   -0.175744530    2.554853029    1.752645391
   5  H       1.00   -0.175744530    2.554853029   -1.752645391
   6  H       1.00    0.997813188   -2.066434414    1.677396497
   7  H       1.00    0.997813188   -2.066434414   -1.677396497

 Bond lengths in Bohr (Angstrom)

 1-2  2.814876910  1-4  2.051238947  1-5  2.051238947  2-3  2.088495950  2-6  2.073018546
     ( 1.489568712)     ( 1.085468905)     ( 1.085468905)     ( 1.105184462)     ( 1.096994173)

 2-7  2.073018546
     ( 1.096994173)

 Bond angles

  1-2-3  112.12345176   1-2-6  111.81246303   1-2-7  111.81246303   2-1-4  120.92728687

  2-1-5  120.92728687   3-2-6  106.36442052   3-2-7  106.36442052   4-1-5  117.39421083

  6-2-7  108.02720793

 NUCLEAR CHARGE:                   17
 NUMBER OF PRIMITIVE AOS:          45
 NUMBER OF SYMMETRY AOS:           45
 NUMBER OF CONTRACTIONS:           15   (  15A   )
 NUMBER OF CORE ORBITALS:           2   (   2A   )
 NUMBER OF VALENCE ORBITALS:       13   (  13A   )


 NUCLEAR REPULSION ENERGY   36.86300145


 Eigenvalues of metric

         1 0.218E+00 0.272E+00 0.329E+00 0.377E+00 0.382E+00 0.392E+00 0.935E+00 0.955E+00


 Contracted 2-electron integrals neglected if value below      1.0D-11
 AO integral compression algorithm  1   Integral accuracy      1.0D-11

     0.262 MB (compressed) written to integral file (100.0%)


 NUMBER OF SORTED TWO-ELECTRON INTEGRALS:       7260.     BUFFER LENGTH:  32768
 NUMBER OF SEGMENTS:   1  SEGMENT LENGTH:       7260      RECORD LENGTH: 524288

 Memory used in sort:       0.56 MW

 SORT1 READ        9024. AND WROTE        6273. INTEGRALS IN      1 RECORDS. CPU TIME:     0.00 SEC, REAL TIME:     0.00 SEC
 SORT2 READ        6273. AND WROTE        7260. INTEGRALS IN      1 RECORDS. CPU TIME:     0.00 SEC, REAL TIME:     0.01 SEC

 FILE SIZES:   FILE 1:    30.3 MBYTE,  FILE 4:     4.2 MBYTE,   TOTAL:     34.5 MBYTE

 OPERATOR DM      FOR CENTER  0  COORDINATES:    0.000000    0.000000    0.000000


 **********************************************************************************************************************************
 DATASETS  * FILE   NREC   LENGTH (MB)   RECORD NAMES
              1      19       30.09       500      610      700      900      950      970     1000      129      960     1100   
                                          VAR    BASINP    GEOM    SYMINP    ZMAT    AOBASIS   BASIS     P2S    ABASIS      S 
                                         1400     1410     1200     1210     1080     1600     1650     1300     1700   
                                           T        V       H0       H01     AOSYM     SMH    MOLCAS    ERIS     OPER   

 PROGRAMS   *        TOTAL       INT
 CPU TIMES  *         0.33      0.19
 REAL TIME  *         0.64 SEC
 DISK USED  *        34.91 MB      
 **********************************************************************************************************************************

 Density functional group M08-HX=XC-M08-HX
 Functional: XC-M08-HX(via MFM 1.6)                                            Gradient terms: 1
 Use grid at  1800.2


 Exact exchange will be calculated, factor:  0.5223

 Functional: XC-M08-HX                 Factor:  1.0000

 Generated new metagrid on record  1800.2 with target accuracy 1.0D-06 and 23794 points in CPU time    0.5
 Computed new grid on record 1800.1 in CPU time    0.5
   15985 words reserved for DFT integration

 PROGRAM * UKS-SCF (Unrestricted Kohn-Sham)     Authors: W. Meyer, H.-J. Werner, P.J. Knowles, 1993

 NUMBER OF ELECTRONS:       9+    8-    SPACE SYMMETRY=1    SPIN SYMMETRY: Doublet 
 CONVERGENCE THRESHOLDS:    1.00E-05 (Density)    1.00E-06 (Energy)
 MAX. NUMBER OF ITERATIONS:       60
 INTERPOLATION TYPE:            DIIS
 INTERPOLATION STEPS:              2 (START)      1 (STEP)
 LEVEL SHIFTS:                 -0.20 (ALPHA)  -0.20 (BETA) 



 Use fine grid record 1800.2 for energy threshold  1.0D-06
 Orbital guess generated from atomic densities. Full valence occupancy:    9

 Molecular orbital dump at record        2200.2

 Initial alpha occupation   9
 Initial beta  occupation   8

 ITERATION    DDIFF          GRAD             ENERGY        2-EL.EN.            DIPOLE MOMENTS         DIIS
    1      0.000D+00      0.000D+00       -78.10257842    140.081799   -0.11041   -0.23080    0.00000    0
    2      0.447D-01      0.184D-01       -78.15576802    137.122996   -0.04984   -0.11301    0.00000    1
    3      0.340D-02      0.328D-02       -78.15753291    137.094953   -0.03954   -0.07814    0.00000    2
    4      0.243D-02      0.156D-02       -78.15827967    137.071588   -0.03453   -0.05789    0.00000    3
    5      0.123D-02      0.622D-03       -78.15840931    137.072737   -0.03269   -0.04992    0.00000    4
    6      0.280D-03      0.108D-03       -78.15841360    137.072073   -0.03270   -0.04989    0.00000    5
    7      0.449D-04      0.217D-04       -78.15841378    137.072145   -0.03262   -0.04989    0.00000    6
    8      0.863D-05      0.637D-05       -78.15841380    137.072093   -0.03259   -0.04986    0.00000    6
    9      0.229D-05      0.123D-05       -78.15841380    137.072142   -0.03259   -0.04986    0.00000    6

 Final alpha occupancy:   9
 Final beta  occupancy:   8

 !UKS STATE 1.1 Energy                -78.158413797526
 Nuclear energy                        36.86300145
 One-electron energy                 -177.23304112
 Two-electron energy                   68.53607086
 Density functional                    -6.32444499     XC-M08-HX=-6.32444499
 Virial quotient                       -1.01329041
 !UKS STATE 1.1 Dipole moment          -0.03258988    -0.04986358     0.00000000
 Dipole moment /Debye                  -0.08282979    -0.12673228     0.00000000

 Orbital energies for positive spin:

         1.1          2.1          3.1          4.1          5.1          6.1          7.1          8.1          9.1         10.1
    -10.305108   -10.271780    -0.810725    -0.655114    -0.481507    -0.441664    -0.411419    -0.379957    -0.194294     0.468403

        11.1
      0.479652

 Orbital energies for negative spin:

         1.1          2.1          3.1          4.1          5.1          6.1          7.1          8.1          9.1         10.1
    -10.307112   -10.249428    -0.784952    -0.620509    -0.473145    -0.425461    -0.394062    -0.375401     0.143782     0.478640

        11.1
      0.520370

 HOMO      9.1    -0.194294 =      -5.2870eV
 LUMO     -9.1     0.143782 =       3.9125eV
 LUMO-HOMO         0.338076 =       9.1995eV

 EXPECTATION VALUE OF S**2:             0.75529630

 Occupation number threshold for canonical orbitals:  1.999000 (occupied),  0.001000 (virtual)

 Number of pseudo-canonical orbitals per symmetry:    7
 Number of active natural orbitals per symmetry:      3

 Natural orbitals saved to record    2200.2 (Orbital set 3)

 Orbital spaces for UNO-CAS (Min. occupation: 0.020  Max. occupation: 1.980):

 Closed:        8
 Active:        1


 **********************************************************************************************************************************
 DATASETS  * FILE   NREC   LENGTH (MB)   RECORD NAMES
              1      20       30.85       500      610      700      900      950      970     1000      129      960     1100   
                                          VAR    BASINP    GEOM    SYMINP    ZMAT    AOBASIS   BASIS     P2S    ABASIS      S 
                                         1400     1410     1200     1210     1080     1600     1650     1300     1700     1800   
                                           T        V       H0       H01     AOSYM     SMH    MOLCAS    ERIS     OPER     GRID   

              2       5        2.86       700     1000      520     1800     2200   
                                         GEOM     BASIS   MCVARS    GRID      UKS  

 PROGRAMS   *        TOTAL       UKS       INT
 CPU TIMES  *         2.81      2.48      0.19
 REAL TIME  *         3.18 SEC
 DISK USED  *        34.91 MB      
 **********************************************************************************************************************************


 PROGRAM * Intrinsic Basis Bonding Analysis (IBBA)          Author: G. Knizia

 Molecular orbitals read from record     2200.2  Type=UKS/ALPHA (state 1.1)
 Fock matrix read from record            2200.2  Type=UKS/TOTAL (state 1.1)
 Orbital energies read from record       2200.2  Type=UKS/ALPHA (state 1.1)
 Density matrix read from record         2200.2  Type=UKS/CHARGE (state 1.1)

 Number of core orbitals:           2 (   2 )
 Number of closed-shell orbitals:   6 (   6 )
 Number of active  orbitals:        1 (   1 )

 Basis set MINAO-AUTO-PP generated.      Number of basis functions:   15 

 Polarized AO type:                A = (O Ot + (1-O)(1-Ot)) P12
 Orthogonalization method:         Symmetric (Loewdin)
 Localization functional:          L = sum[A,i] <i|n_A|i>^4 -> max

 Localization group 1:   8 orbitals, occupancy  2.000
 Iterative localization: IB/PM,    6 iter; Final gradient 0.43E-08

 Bond order analysis:       [THRPRINT= 0.020]

   CEN ATOM   CEN ATOM     WIBERG.BO      RENORM.BO
     1   C  -   2   C       1.221291       2.016316
     1   C  -   5   H       0.962795       0.986407
     1   C  -   4   H       0.962795       0.986407
     1   C  -   3   H       0.091651       0.625309
     1   C  -   6   H       0.021276       0.128579
     1   C  -   7   H       0.021276       0.128579

     2   C  -   1   C       1.221291       2.016316
     2   C  -   7   H       0.939515       0.990927
     2   C  -   6   H       0.939515       0.990927
     2   C  -   3   H       0.849812       0.998961

     3   H  -   2   C       0.849812       0.998961
     3   H  -   1   C       0.091651       0.625309

     4   H  -   1   C       0.962795       0.986407

     5   H  -   1   C       0.962795       0.986407

     6   H  -   2   C       0.939515       0.990927
     6   H  -   1   C       0.021276       0.128579

     7   H  -   2   C       0.939515       0.990927
     7   H  -   1   C       0.021276       0.128579


 Valency analysis:

   CEN ATOM   TOT.VALENCE
     1   C       3.281082
     2   C       3.951911
     3   H       0.955740
     4   H       0.975054
     5   H       0.975054
     6   H       0.977960
     7   H       0.977960
 Localization group 2:   1 orbitals, occupancy  1.000
 Iterative localization: IB/PM,    1 iter; Final gradient 0.00E+00

 Bond order analysis:       [THRPRINT= 0.020]

   CEN ATOM   CEN ATOM     WIBERG.BO      RENORM.BO
     1   C  -   3   H       0.118901       0.500000
     1   C  -   2   C       0.042674       0.500000
     1   C  -   6   H       0.026518       0.500000
     1   C  -   7   H       0.026518       0.500000

     2   C  -   1   C       0.042674       0.500000

     3   H  -   1   C       0.118901       0.500000



     6   H  -   1   C       0.026518       0.500000

     7   H  -   1   C       0.026518       0.500000


 Valency analysis:

   CEN ATOM   TOT.VALENCE
     1   C       0.215722
     2   C       0.047474
     3   H       0.126384
     4   H       0.000634
     5   H       0.000634
     6   H       0.029779
     7   H       0.029779

 Total charge composition:

   CEN ATOM         s          p       ELECTRONS ->P.CHARGE
     1   C       3.08145    3.32077      6.40222   -0.40222
     2   C       2.97687    3.34543      6.32230   -0.32230
     3   H       0.85741                 0.85741    0.14259
     4   H       0.84238                 0.84238    0.15762
     5   H       0.84238                 0.84238    0.15762
     6   H       0.86666                 0.86666    0.13334
     7   H       0.86666                 0.86666    0.13334

 Total charge composition, AO contributions:

   CEN ATOM SHL      SPHERICAL COMPONENTS
     1   C  1s       1.99265
     1   C  2s       1.08880
     1   C  2p       1.05953    1.08107    1.18016

     2   C  1s       1.99148
     2   C  2s       0.98539
     2   C  2p       1.13097    1.05054    1.16393

     3   H  1s       0.85741

     4   H  1s       0.84238

     5   H  1s       0.84238

     6   H  1s       0.86666

     7   H  1s       0.86666

 Active orbital charges:

   CEN ATOM         s          p       ELECTRONS ->SPIN.DEN
     1   C       0.00228    0.87473      0.87701    0.87701
     2   C       0.00005    0.02428      0.02433    0.02433
     3   H       0.06779                 0.06779    0.06779
     4   H       0.00032                 0.00032    0.00032
     5   H       0.00032                 0.00032    0.00032
     6   H       0.01512                 0.01512    0.01512
     7   H       0.01512                 0.01512    0.01512

 Active orbital charges, AO contributions:

   CEN ATOM SHL      SPHERICAL COMPONENTS
     1   C  1s       0.00000
     1   C  2s       0.00228
     1   C  2p       0.87123    0.00350    0.00000

     2   C  1s       0.00000
     2   C  2s       0.00005
     2   C  2p       0.02397    0.00031    0.00000

     3   H  1s       0.06779

     4   H  1s       0.00032

     5   H  1s       0.00032

     6   H  1s       0.01512

     7   H  1s       0.01512

 Summary of localized orbital composition:   [THRPRINT= 0.020]

   ORB  GRP  ORB.ENERGY      CENTERS/CHARGES
     1   1   -10.189993      C  2   2.000
     2   1   -10.149881      C  1   2.000
     3   1    -0.626962      C  1   1.021   C  2   0.976
     4   1    -0.557693      C  1   1.158   H  4   0.837
     5   1    -0.557693      C  1   1.158   H  5   0.837
     6   1    -0.534400      C  2   1.083   H  3   0.784   C  1   0.128
     7   1    -0.534111      C  2   1.117   H  7   0.846   C  1   0.030
     8   1    -0.534111      C  2   1.117   H  6   0.846   C  1   0.030
     9   2    -0.029848      C  1   0.877   H  3   0.068   C  2   0.024   (other: 0.031)

 Localized orbitals saved to record      2200.2  (orbital set 4)


 **********************************************************************************************************************************
 DATASETS  * FILE   NREC   LENGTH (MB)   RECORD NAMES
              1      20       30.85       500      610      700      900      950      970     1000      129      960     1100   
                                          VAR    BASINP    GEOM    SYMINP    ZMAT    AOBASIS   BASIS     P2S    ABASIS      S 
                                         1400     1410     1200     1210     1080     1600     1650     1300     1700     1800   
                                           T        V       H0       H01     AOSYM     SMH    MOLCAS    ERIS     OPER     GRID   

              2       5        2.87       700     1000      520     1800     2200   
                                         GEOM     BASIS   MCVARS    GRID      UKS  

 PROGRAMS   *        TOTAL      IBBA       UKS       INT
 CPU TIMES  *         2.83      0.02      2.48      0.19
 REAL TIME  *         3.25 SEC
 DISK USED  *        34.91 MB      
 **********************************************************************************************************************************
 Molecular orbitals read from record     2200.2  Type=UKS/LOCAL(IBO)  
 Occupation numbers read from record     2200.2  Type=UKS/LOCAL(IBO)  
 Orbital energies read from record       2200.2  Type=UKS/LOCAL(IBO)  
 Redundancy group numbers read from rec  2200.2  Type=UKS/BETA (state 1.1)

 IBBA/STO-3G energy=      0.000000000000

        UKS-SCF 
    -78.15841380
 **********************************************************************************************************************************
 Molpro calculation terminated
