
 Primary working directories    : /tmp/sb13343
 Secondary working directories  : /tmp/sb13343
 Wavefunction directory         : /panfs/panasas01/chem/sb13343/wfu/
 Main file repository           : /tmp/sb13343/

 SHA1      : b4a5b34a9e711420743f49e6833241d17c61fb3c
 NAME      : 2099.9.b4a5b34
 ARCHNAME  : linux/x86_64_openmp
 FC        : /cm/shared/languages/GCC-6.1/bin/gfortran
 BLASLIB   : -lblas
 id        : simonbennie

 Nodes     nprocs
 node35-048    1

 Using customized tuning parameters: mindgm=1; mindgv=20; mindgc=4; mindgr=1; noblas=0; minvec=7
 default implementation of scratch files=df  

 memory,500,m
 geomtyp=xyz
 nosym
 noorient
 geometry={
 C         -0.00146        0.79548        0.00000
 C          0.02225       -0.69390        0.00000
 H         -0.99481       -1.12636        0.00000
 H         -0.09300        1.35197        0.92746
 H         -0.09300        1.35197       -0.92746
 H          0.52802       -1.09351        0.88764
 H          0.52802       -1.09351       -0.88764
 }
 basis={ default,svp }
 {ks,PBE,direct;wf,17,1,1}
 {ibba,bonds=1}

 Variables initialized (895), CPU time= 0.00 sec
 Commands  initialized (725), CPU time= 0.01 sec, 591 directives.
 Default parameters read. Elapsed time= 6.16 sec

 Checking input...
 Passed
1


                                         ***  PROGRAM SYSTEM MOLPRO  ***
                                       Copyright, TTI GmbH Stuttgart, 2015
                                    Version 2099.9 linked May 26 2017 16:03:21


 **********************************************************************************************************************************
 LABEL *                                                                                 
  64 bit serial version                                                                  DATE: 08-Jun-17          TIME: 04:59:36  
 **********************************************************************************************************************************

 SHA1:             b4a5b34a9e711420743f49e6833241d17c61fb3c
 **********************************************************************************************************************************
 SETTING GEOMTYP        =    XYZ

 Variable memory set to  500000000 words,  buffer space 

 ZSYMEL=NOSYM

 SETTING BASIS          =    SVP


 Recomputing integrals since basis changed


 Using spherical harmonics

 Library entry C      S def2-SVP             selected for orbital group  1
 Library entry C      P def2-SVP             selected for orbital group  1
 Library entry C      D def2-SVP             selected for orbital group  1
 Library entry H      S def2-SVP             selected for orbital group  2
 Library entry H      P def2-SVP             selected for orbital group  2


 PROGRAM * SEWARD (Integral evaluation for generally contracted gaussian basis sets)     Author: Roland Lindh, 1990

 Geometry written to block  1 of record 700


 Point group  C1  



 ATOMIC COORDINATES

 NR  ATOM    CHARGE       X              Y              Z

   1  C       6.00   -0.002759000    1.503239338    0.000000000
   2  C       6.00    0.042046406   -1.311280958    0.000000000
   3  H       1.00   -1.879918446   -2.128511918    0.000000000
   4  H       1.00   -0.175744530    2.554853029    1.752645391
   5  H       1.00   -0.175744530    2.554853029   -1.752645391
   6  H       1.00    0.997813188   -2.066434414    1.677396497
   7  H       1.00    0.997813188   -2.066434414   -1.677396497

 Bond lengths in Bohr (Angstrom)

 1-2  2.814876910  1-4  2.051238947  1-5  2.051238947  2-3  2.088495950  2-6  2.073018546
     ( 1.489568712)     ( 1.085468905)     ( 1.085468905)     ( 1.105184462)     ( 1.096994173)

 2-7  2.073018546
     ( 1.096994173)

 Bond angles

  1-2-3  112.12345176   1-2-6  111.81246303   1-2-7  111.81246303   2-1-4  120.92728687

  2-1-5  120.92728687   3-2-6  106.36442052   3-2-7  106.36442052   4-1-5  117.39421083

  6-2-7  108.02720793

 NUCLEAR CHARGE:                   17
 NUMBER OF PRIMITIVE AOS:          85
 NUMBER OF SYMMETRY AOS:           83
 NUMBER OF CONTRACTIONS:           53   (  53A   )
 NUMBER OF CORE ORBITALS:           2   (   2A   )
 NUMBER OF VALENCE ORBITALS:       13   (  13A   )


 NUCLEAR REPULSION ENERGY   36.86300145


 Eigenvalues of metric

         1 0.525E-02 0.232E-01 0.271E-01 0.397E-01 0.503E-01 0.635E-01 0.102E+00 0.110E+00


 Contracted 2-electron integrals neglected if value below      1.0D-11
 AO integral compression algorithm  1   Integral accuracy      1.0D-11

     5.243 MB (compressed) written to integral file ( 52.3%)


 NUMBER OF SORTED TWO-ELECTRON INTEGRALS:    1024596.     BUFFER LENGTH:  32768
 NUMBER OF SEGMENTS:   1  SEGMENT LENGTH:    1024596      RECORD LENGTH: 524288

 Memory used in sort:       1.58 MW

 SORT1 READ     1206537. AND WROTE      940164. INTEGRALS IN      3 RECORDS. CPU TIME:     0.02 SEC, REAL TIME:     0.03 SEC
 SORT2 READ      940164. AND WROTE     1024596. INTEGRALS IN     20 RECORDS. CPU TIME:     0.05 SEC, REAL TIME:     0.07 SEC

 FILE SIZES:   FILE 1:    35.4 MBYTE,  FILE 4:    12.6 MBYTE,   TOTAL:     48.0 MBYTE

 OPERATOR DM      FOR CENTER  0  COORDINATES:    0.000000    0.000000    0.000000


 **********************************************************************************************************************************
 DATASETS  * FILE   NREC   LENGTH (MB)   RECORD NAMES
              1      19       34.42       500      610      700      900      950      970     1000      129      960     1100   
                                          VAR    BASINP    GEOM    SYMINP    ZMAT    AOBASIS   BASIS     P2S    ABASIS      S 
                                         1400     1410     1200     1210     1080     1600     1650     1300     1700   
                                           T        V       H0       H01     AOSYM     SMH    MOLCAS    ERIS     OPER   

 PROGRAMS   *        TOTAL       INT
 CPU TIMES  *         0.53      0.38
 REAL TIME  *         7.29 SEC
 DISK USED  *        48.39 MB      
 **********************************************************************************************************************************

 Density functional group PBE=PBEX+PBEC
 Functional: PBEX(Automatically generated (new) PBEX)                          Gradient terms: 1
 Functional: PBEC(Automatically generated (new) PBEC)                          Gradient terms: 1
 Use grid at  1800.2

 Functional: PBEX                      Factor:  1.0000
 Functional: PBEC                      Factor:  1.0000

 Generated new metagrid on record  1800.2 with target accuracy 1.0D-06 and 23794 points in CPU time    0.5
 Computed new grid on record 1800.1 in CPU time    0.5
   46013 words reserved for DFT integration

 PROGRAM * RKS-SCF (Restricted open shell Kohn-Sham)     Authors: W. Meyer, H.-J. Werner, P.J. Knowles, 1993

 NUMBER OF ELECTRONS:       9+    8-    SPACE SYMMETRY=1    SPIN SYMMETRY: Doublet 
 CONVERGENCE THRESHOLDS:    1.00E-05 (Density)    1.00E-06 (Energy)
 MAX. NUMBER OF ITERATIONS:       60
 INTERPOLATION TYPE:            DIIS
 INTERPOLATION STEPS:              2 (START)      1 (STEP)
 LEVEL SHIFTS:                 -0.60 (CLOSED) -0.30 (OPEN) 



 Use fine grid record 1800.2 for energy threshold  1.0D-06
 Orbital guess generated from atomic densities. Full valence occupancy:    9

 Molecular orbital dump at record        2100.2

 Initial alpha occupancy:   9
 Initial beta  occupancy:   8
 Wave function symmetry:    1

 ITERATION    DDIFF          GRAD             ENERGY        2-EL.EN.            DIPOLE MOMENTS         DIIS   ORB.
    1      0.000D+00      0.000D+00       -78.85081630    155.361248   -0.11199   -0.24362    0.00000    0    start
    2      0.000D+00      0.158D-01       -78.95840889    147.338671   -0.04865   -0.12081    0.00000    1    diag,B
    3      0.175D-01      0.603D-02       -78.97277154    149.089488   -0.06329   -0.13963    0.00000    2    diag,B
    4      0.528D-02      0.728D-03       -78.97335239    148.977703   -0.05833   -0.12876    0.00000    3    diag,B
    5      0.185D-02      0.242D-03       -78.97343586    148.949575   -0.05690   -0.12472    0.00000    4    diag,B
    6      0.921D-03      0.638D-04       -78.97344203    148.941540   -0.05615   -0.12298    0.00000    5    diag,B
    7      0.278D-03      0.194D-04       -78.97344243    148.942089   -0.05621   -0.12314    0.00000    6    fixocc
    8      0.560D-04      0.749D-05       -78.97344252    148.942043   -0.05620   -0.12308    0.00000    7    diag,B
    9      0.331D-04      0.183D-05       -78.97344252    148.942073   -0.05620   -0.12311    0.00000    8    diag,B
   10      0.703D-05      0.536D-06       -78.97344252    148.942057   -0.05621   -0.12311    0.00000    0    orth

 Final alpha occupancy:   9
 Final beta  occupancy:   8

 !RKS STATE 1.1 Energy                -78.973442522216
 Nuclear energy                        36.86300145
 One-electron energy                 -177.78041202
 Two-electron energy                   74.47102853
 Density functional                   -12.52706048     PBEX=-11.99958765 PBEC= -0.52747283
 Virial quotient                       -1.01240573
 !RKS STATE 1.1 Dipole moment          -0.05620691    -0.12310712     0.00000000
 Dipole moment /Debye                  -0.14285436    -0.31288659     0.00000000

 Orbital energies:

         1.1          2.1          3.1          4.1          5.1          6.1          7.1          8.1          9.1         10.1
     -9.894248    -9.893293    -0.667589    -0.526985    -0.394892    -0.357834    -0.342101    -0.307490    -0.162584     0.053921

        11.1
      0.082714

 HOMO      9.1    -0.162584 =      -4.4241eV
 LUMO     10.1     0.053921 =       1.4673eV
 LUMO-HOMO         0.216506 =       5.8914eV


 **********************************************************************************************************************************
 DATASETS  * FILE   NREC   LENGTH (MB)   RECORD NAMES
              1      20       35.18       500      610      700      900      950      970     1000      129      960     1100   
                                          VAR    BASINP    GEOM    SYMINP    ZMAT    AOBASIS   BASIS     P2S    ABASIS      S 
                                         1400     1410     1200     1210     1080     1600     1650     1300     1700     1800   
                                           T        V       H0       H01     AOSYM     SMH    MOLCAS    ERIS     OPER     GRID   

              2       5        2.94       700     1000      520     1800     2100   
                                         GEOM     BASIS   MCVARS    GRID      RKS  

 PROGRAMS   *        TOTAL        KS       INT
 CPU TIMES  *         3.69      3.16      0.38
 REAL TIME  *        11.30 SEC
 DISK USED  *        48.39 MB      
 **********************************************************************************************************************************


 PROGRAM * Intrinsic Basis Bonding Analysis (IBBA)          Author: G. Knizia

 Molecular orbitals read from record     2100.2  Type=RKS/CANONICAL (state 1.1)
 Fock matrix read from record            2100.2  Type=RKS/TOTAL (state 1.1)
 Orbital energies read from record       2100.2  Type=RKS/CANONICAL (state 1.1)
 Density matrix read from record         2100.2  Type=RKS/CHARGE (state 1.1)

 Number of core orbitals:           2 (   2 )
 Number of closed-shell orbitals:   6 (   6 )
 Number of active  orbitals:        1 (   1 )

 Basis set MINAO-AUTO-PP generated.      Number of basis functions:   15 

 Polarized AO type:                A = (O Ot + (1-O)(1-Ot)) P12
 Orthogonalization method:         Symmetric (Loewdin)
 Localization functional:          L = sum[A,i] <i|n_A|i>^4 -> max

 Localization group 1:   8 orbitals, occupancy  2.000
 Iterative localization: IB/PM,    6 iter; Final gradient 0.30E-08

 Bond order analysis:       [THRPRINT= 0.020]

   CEN ATOM   CEN ATOM     WIBERG.BO      RENORM.BO
     1   C  -   2   C       1.145519       2.021503
     1   C  -   5   H       0.965559       0.982489
     1   C  -   4   H       0.965559       0.982489
     1   C  -   3   H       0.054762       0.644859

     2   C  -   1   C       1.145519       2.021503
     2   C  -   7   H       0.945451       0.988038
     2   C  -   6   H       0.945451       0.988038
     2   C  -   3   H       0.899028       0.998876

     3   H  -   2   C       0.899028       0.998876
     3   H  -   1   C       0.054762       0.644859

     4   H  -   1   C       0.965559       0.982489

     5   H  -   1   C       0.965559       0.982489

     6   H  -   2   C       0.945451       0.988038

     7   H  -   2   C       0.945451       0.988038


 Valency analysis:

   CEN ATOM   TOT.VALENCE
     1   C       3.157167
     2   C       3.937758
     3   H       0.961449
     4   H       0.981478
     5   H       0.981478
     6   H       0.975934
     7   H       0.975934
 Localization group 2:   1 orbitals, occupancy  1.000
 Iterative localization: IB/PM,    1 iter; Final gradient 0.00E+00

 Bond order analysis:       [THRPRINT= 0.020]

   CEN ATOM   CEN ATOM     WIBERG.BO      RENORM.BO
     1   C  -   3   H       0.094761       0.500000
     1   C  -   6   H       0.020072       0.500000
     1   C  -   7   H       0.020072       0.500000


     3   H  -   1   C       0.094761       0.500000



     6   H  -   1   C       0.020072       0.500000

     7   H  -   1   C       0.020072       0.500000


 Valency analysis:

   CEN ATOM   TOT.VALENCE
     1   C       0.144356
     2   C       0.009518
     3   H       0.097527
     4   H       0.000345
     5   H       0.000345
     6   H       0.021541
     7   H       0.021541

 Total charge composition:

   CEN ATOM         s          p       ELECTRONS ->P.CHARGE
     1   C       3.05238    3.24270      6.29509   -0.29509
     2   C       3.01296    3.39722      6.41018   -0.41018
     3   H       0.85506                 0.85506    0.14494
     4   H       0.86408                 0.86408    0.13592
     5   H       0.86408                 0.86408    0.13592
     6   H       0.85576                 0.85576    0.14424
     7   H       0.85576                 0.85576    0.14424

 Total charge composition, AO contributions:

   CEN ATOM SHL      SPHERICAL COMPONENTS
     1   C  1s       1.99252
     1   C  2s       1.05986
     1   C  2p       1.02460    1.05738    1.16072

     2   C  1s       1.99100
     2   C  2s       1.02196
     2   C  2p       1.15371    1.07403    1.16947

     3   H  1s       0.85506

     4   H  1s       0.86408

     5   H  1s       0.86408

     6   H  1s       0.85576

     7   H  1s       0.85576

 Active orbital charges:

   CEN ATOM         s          p       ELECTRONS ->SPIN.DEN
     1   C       0.00335    0.91834      0.92169    0.92169
     2   C       0.00003    0.00475      0.00478    0.00478
     3   H       0.05141                 0.05141    0.05141
     4   H       0.00017                 0.00017    0.00017
     5   H       0.00017                 0.00017    0.00017
     6   H       0.01089                 0.01089    0.01089
     7   H       0.01089                 0.01089    0.01089

 Active orbital charges, AO contributions:

   CEN ATOM SHL      SPHERICAL COMPONENTS
     1   C  1s       0.00000
     1   C  2s       0.00335
     1   C  2p       0.91417    0.00417    0.00000

     2   C  1s       0.00000
     2   C  2s       0.00003
     2   C  2p       0.00467    0.00008    0.00000

     3   H  1s       0.05141

     4   H  1s       0.00017

     5   H  1s       0.00017

     6   H  1s       0.01089

     7   H  1s       0.01089

 Summary of localized orbital composition:   [THRPRINT= 0.020]

   ORB  GRP  ORB.ENERGY      CENTERS/CHARGES
     1   1    -9.792413      C  1   2.000
     2   1    -9.781333      C  2   2.000
     3   1    -0.546775      C  2   1.006   C  1   0.991
     4   1    -0.463705      C  1   1.136   H  4   0.858
     5   1    -0.463705      C  1   1.136   H  5   0.858
     6   1    -0.448374      C  2   1.125   H  3   0.801   C  1   0.073
     7   1    -0.444064      C  2   1.134   H  7   0.840   (other: 0.026)
     8   1    -0.444064      C  2   1.134   H  6   0.840   (other: 0.026)
     9   2    -0.120021      C  1   0.922   H  3   0.051   (other: 0.027)

 Localized orbitals saved to record      2100.2  (orbital set 2)


 **********************************************************************************************************************************
 DATASETS  * FILE   NREC   LENGTH (MB)   RECORD NAMES
              1      20       35.18       500      610      700      900      950      970     1000      129      960     1100   
                                          VAR    BASINP    GEOM    SYMINP    ZMAT    AOBASIS   BASIS     P2S    ABASIS      S 
                                         1400     1410     1200     1210     1080     1600     1650     1300     1700     1800   
                                           T        V       H0       H01     AOSYM     SMH    MOLCAS    ERIS     OPER     GRID   

              2       5        2.96       700     1000      520     1800     2100   
                                         GEOM     BASIS   MCVARS    GRID      RKS  

 PROGRAMS   *        TOTAL      IBBA        KS       INT
 CPU TIMES  *         3.71      0.02      3.16      0.38
 REAL TIME  *        11.37 SEC
 DISK USED  *        48.39 MB      
 **********************************************************************************************************************************
 Molecular orbitals read from record     2100.2  Type=RKS/LOCAL(IBO)  
 Occupation numbers read from record     2100.2  Type=RKS/LOCAL(IBO)  
 Orbital energies read from record       2100.2  Type=RKS/LOCAL(IBO)  
 Redundancy group numbers read from rec  2100.2  Type=RKS/LOCAL(IBO)  

 IBBA/SVP energy=      0.000000000000

        KS-SCF  
    -78.97344252
 **********************************************************************************************************************************
 Molpro calculation terminated
