
 Primary working directories    : /tmp/sb13343
 Secondary working directories  : /tmp/sb13343
 Wavefunction directory         : /panfs/panasas01/chem/sb13343/wfu/
 Main file repository           : /tmp/sb13343/

 SHA1      : b4a5b34a9e711420743f49e6833241d17c61fb3c
 NAME      : 2099.9.b4a5b34
 ARCHNAME  : linux/x86_64_openmp
 FC        : /cm/shared/languages/GCC-6.1/bin/gfortran
 BLASLIB   : -lblas
 id        : simonbennie

 Nodes     nprocs
 node32-007    1

 Using customized tuning parameters: mindgm=1; mindgv=20; mindgc=4; mindgr=1; noblas=0; minvec=7
 default implementation of scratch files=df  

 memory,500,m
 geomtyp=xyz
 nosym
 noorient
 geometry={
 C         -0.00146        0.79548        0.00000
 C          0.02225       -0.69390        0.00000
 H         -0.99481       -1.12636        0.00000
 H         -0.09300        1.35197        0.92746
 H         -0.09300        1.35197       -0.92746
 H          0.52802       -1.09351        0.88764
 H          0.52802       -1.09351       -0.88764
 }
 basis={ default,sto-3g }
 {uks,VWN80,direct;wf,17,1,1}
 {ibba,bonds=1}

 Variables initialized (895), CPU time= 0.01 sec
 Commands  initialized (725), CPU time= 0.01 sec, 591 directives.
 Default parameters read. Elapsed time= 0.08 sec

 Checking input...
 Passed
1


                                         ***  PROGRAM SYSTEM MOLPRO  ***
                                       Copyright, TTI GmbH Stuttgart, 2015
                                    Version 2099.9 linked May 26 2017 16:03:21


 **********************************************************************************************************************************
 LABEL *                                                                                 
  64 bit serial version                                                                  DATE: 08-Jun-17          TIME: 04:47:09  
 **********************************************************************************************************************************

 SHA1:             b4a5b34a9e711420743f49e6833241d17c61fb3c
 **********************************************************************************************************************************
 SETTING GEOMTYP        =    XYZ

 Variable memory set to  500000000 words,  buffer space 

 ZSYMEL=NOSYM

 SETTING BASIS          =    STO-3G


 Recomputing integrals since basis changed


 Using spherical harmonics

 Library entry C      S STO-3G               selected for orbital group  1
 Library entry C      P STO-3G               selected for orbital group  1
 Library entry H      S STO-3G               selected for orbital group  2


 PROGRAM * SEWARD (Integral evaluation for generally contracted gaussian basis sets)     Author: Roland Lindh, 1990

 Geometry written to block  1 of record 700


 Point group  C1  



 ATOMIC COORDINATES

 NR  ATOM    CHARGE       X              Y              Z

   1  C       6.00   -0.002759000    1.503239338    0.000000000
   2  C       6.00    0.042046406   -1.311280958    0.000000000
   3  H       1.00   -1.879918446   -2.128511918    0.000000000
   4  H       1.00   -0.175744530    2.554853029    1.752645391
   5  H       1.00   -0.175744530    2.554853029   -1.752645391
   6  H       1.00    0.997813188   -2.066434414    1.677396497
   7  H       1.00    0.997813188   -2.066434414   -1.677396497

 Bond lengths in Bohr (Angstrom)

 1-2  2.814876910  1-4  2.051238947  1-5  2.051238947  2-3  2.088495950  2-6  2.073018546
     ( 1.489568712)     ( 1.085468905)     ( 1.085468905)     ( 1.105184462)     ( 1.096994173)

 2-7  2.073018546
     ( 1.096994173)

 Bond angles

  1-2-3  112.12345176   1-2-6  111.81246303   1-2-7  111.81246303   2-1-4  120.92728687

  2-1-5  120.92728687   3-2-6  106.36442052   3-2-7  106.36442052   4-1-5  117.39421083

  6-2-7  108.02720793

 NUCLEAR CHARGE:                   17
 NUMBER OF PRIMITIVE AOS:          45
 NUMBER OF SYMMETRY AOS:           45
 NUMBER OF CONTRACTIONS:           15   (  15A   )
 NUMBER OF CORE ORBITALS:           2   (   2A   )
 NUMBER OF VALENCE ORBITALS:       13   (  13A   )


 NUCLEAR REPULSION ENERGY   36.86300145


 Eigenvalues of metric

         1 0.218E+00 0.272E+00 0.329E+00 0.377E+00 0.382E+00 0.392E+00 0.935E+00 0.955E+00


 Contracted 2-electron integrals neglected if value below      1.0D-11
 AO integral compression algorithm  1   Integral accuracy      1.0D-11

     0.262 MB (compressed) written to integral file (100.0%)


 NUMBER OF SORTED TWO-ELECTRON INTEGRALS:       7260.     BUFFER LENGTH:  32768
 NUMBER OF SEGMENTS:   1  SEGMENT LENGTH:       7260      RECORD LENGTH: 524288

 Memory used in sort:       0.56 MW

 SORT1 READ        9024. AND WROTE        6273. INTEGRALS IN      1 RECORDS. CPU TIME:     0.00 SEC, REAL TIME:     0.01 SEC
 SORT2 READ        6273. AND WROTE        7260. INTEGRALS IN      1 RECORDS. CPU TIME:     0.01 SEC, REAL TIME:     0.00 SEC

 FILE SIZES:   FILE 1:    30.3 MBYTE,  FILE 4:     4.2 MBYTE,   TOTAL:     34.5 MBYTE

 OPERATOR DM      FOR CENTER  0  COORDINATES:    0.000000    0.000000    0.000000


 **********************************************************************************************************************************
 DATASETS  * FILE   NREC   LENGTH (MB)   RECORD NAMES
              1      19       30.09       500      610      700      900      950      970     1000      129      960     1100   
                                          VAR    BASINP    GEOM    SYMINP    ZMAT    AOBASIS   BASIS     P2S    ABASIS      S 
                                         1400     1410     1200     1210     1080     1600     1650     1300     1700   
                                           T        V       H0       H01     AOSYM     SMH    MOLCAS    ERIS     OPER   

 PROGRAMS   *        TOTAL       INT
 CPU TIMES  *         0.54      0.40
 REAL TIME  *         0.84 SEC
 DISK USED  *        34.91 MB      
 **********************************************************************************************************************************

 Density functional group VWN80=VWN5
 Functional: VWN5(Automatically generated (new) VWN5)                          Gradient terms: 0
 Use grid at  1800.2

 Functional: VWN5                      Factor:  1.0000

 Generated new metagrid on record  1800.2 with target accuracy 1.0D-06 and 23794 points in CPU time    0.5
 Computed new grid on record 1800.1 in CPU time    0.6
   10270 words reserved for DFT integration

 PROGRAM * UKS-SCF (Unrestricted Kohn-Sham)     Authors: W. Meyer, H.-J. Werner, P.J. Knowles, 1993

 NUMBER OF ELECTRONS:       9+    8-    SPACE SYMMETRY=1    SPIN SYMMETRY: Doublet 
 CONVERGENCE THRESHOLDS:    1.00E-05 (Density)    1.00E-06 (Energy)
 MAX. NUMBER OF ITERATIONS:       60
 INTERPOLATION TYPE:            DIIS
 INTERPOLATION STEPS:              2 (START)      1 (STEP)
 LEVEL SHIFTS:                 -0.20 (ALPHA)  -0.20 (BETA) 



 Use fine grid record 1800.2 for energy threshold  1.0D-06
 Orbital guess generated from atomic densities. Full valence occupancy:    9

 Molecular orbital dump at record        2200.2

 Initial alpha occupation   9
 Initial beta  occupation   8

 ITERATION    DDIFF          GRAD             ENERGY        2-EL.EN.            DIPOLE MOMENTS         DIIS
    1      0.000D+00      0.000D+00       -66.56112409    148.813716   -0.06665   -0.19451    0.00000    0
    2      0.282D-01      0.991D-02       -66.57216589    147.024199   -0.01991   -0.12408    0.00000    1
    3      0.749D-02      0.357D-02       -66.57373383    147.506676   -0.02741   -0.13236    0.00000    2
    4      0.631D-03      0.291D-03       -66.57374429    147.495545   -0.02775   -0.13214    0.00000    3
    5      0.217D-03      0.119D-03       -66.57374616    147.497220   -0.02747   -0.13164    0.00000    4
    6      0.108D-03      0.306D-04       -66.57374650    147.497046   -0.02747   -0.13173    0.00000    5
    7      0.176D-04      0.502D-05       -66.57374651    147.497009   -0.02747   -0.13172    0.00000    5
    8      0.234D-05      0.758D-06       -66.57374651    147.497016   -0.02747   -0.13173    0.00000    5
    9      0.436D-06      0.140D-06       -66.57374651    147.497008   -0.02747   -0.13173    0.00000    5

 Final alpha occupancy:   9
 Final beta  occupancy:   8

 !UKS STATE 1.1 Energy                -66.573746511521
 Nuclear energy                        36.86300145
 One-electron energy                 -176.15250093
 Two-electron energy                   73.74850421
 Density functional                    -1.03275124     VWN5=-1.03275124
 Virial quotient                       -0.88185434
 !UKS STATE 1.1 Dipole moment          -0.02747053    -0.13173352     0.00000000
 Dipole moment /Debye                  -0.06981855    -0.33481128     0.00000000

 Orbital energies for positive spin:

         1.1          2.1          3.1          4.1          5.1          6.1          7.1          8.1          9.1         10.1
     -7.758383    -7.665745    -0.166658    -0.029219     0.072863     0.104180     0.158631     0.181549     0.412828     0.808100

        11.1
      0.861259

 Orbital energies for negative spin:

         1.1          2.1          3.1          4.1          5.1          6.1          7.1          8.1          9.1         10.1
     -7.758445    -7.668379    -0.170627    -0.035206     0.070354     0.100412     0.154858     0.178930     0.388595     0.806139

        11.1
      0.858038

 HOMO      9.1     0.412828 =      11.2336eV
 LUMO     -9.1     0.388595 =      10.5742eV
 LUMO-HOMO        -0.024232 =      -0.6594eV

 EXPECTATION VALUE OF S**2:             0.75011668

 Occupation number threshold for canonical orbitals:  1.999000 (occupied),  0.001000 (virtual)

 Number of pseudo-canonical orbitals per symmetry:    8
 Number of active natural orbitals per symmetry:      1

 Natural orbitals saved to record    2200.2 (Orbital set 3)

 Orbital spaces for UNO-CAS (Min. occupation: 0.020  Max. occupation: 1.980):

 Closed:        8
 Active:        1


 **********************************************************************************************************************************
 DATASETS  * FILE   NREC   LENGTH (MB)   RECORD NAMES
              1      20       30.85       500      610      700      900      950      970     1000      129      960     1100   
                                          VAR    BASINP    GEOM    SYMINP    ZMAT    AOBASIS   BASIS     P2S    ABASIS      S 
                                         1400     1410     1200     1210     1080     1600     1650     1300     1700     1800   
                                           T        V       H0       H01     AOSYM     SMH    MOLCAS    ERIS     OPER     GRID   

              2       5        2.86       700     1000      520     1800     2200   
                                         GEOM     BASIS   MCVARS    GRID      UKS  

 PROGRAMS   *        TOTAL       UKS       INT
 CPU TIMES  *         1.76      1.22      0.40
 REAL TIME  *         2.14 SEC
 DISK USED  *        34.91 MB      
 **********************************************************************************************************************************


 PROGRAM * Intrinsic Basis Bonding Analysis (IBBA)          Author: G. Knizia

 Molecular orbitals read from record     2200.2  Type=UKS/ALPHA (state 1.1)
 Fock matrix read from record            2200.2  Type=UKS/TOTAL (state 1.1)
 Orbital energies read from record       2200.2  Type=UKS/ALPHA (state 1.1)
 Density matrix read from record         2200.2  Type=UKS/CHARGE (state 1.1)

 Number of core orbitals:           2 (   2 )
 Number of closed-shell orbitals:   6 (   6 )
 Number of active  orbitals:        1 (   1 )

 Basis set MINAO-AUTO-PP generated.      Number of basis functions:   15 

 Polarized AO type:                A = (O Ot + (1-O)(1-Ot)) P12
 Orthogonalization method:         Symmetric (Loewdin)
 Localization functional:          L = sum[A,i] <i|n_A|i>^4 -> max

 Localization group 1:   8 orbitals, occupancy  2.000
 Iterative localization: IB/PM,    7 iter; Final gradient 0.17E-08

 Bond order analysis:       [THRPRINT= 0.020]

   CEN ATOM   CEN ATOM     WIBERG.BO      RENORM.BO
     1   C  -   2   C       1.153477       2.022992
     1   C  -   5   H       0.980836       0.984422
     1   C  -   4   H       0.980836       0.984422
     1   C  -   3   H       0.070181       0.612962

     2   C  -   1   C       1.153477       2.022992
     2   C  -   7   H       0.949479       0.988819
     2   C  -   6   H       0.949479       0.988819
     2   C  -   3   H       0.892428       0.999314

     3   H  -   2   C       0.892428       0.999314
     3   H  -   1   C       0.070181       0.612962

     4   H  -   1   C       0.980836       0.984422

     5   H  -   1   C       0.980836       0.984422

     6   H  -   2   C       0.949479       0.988819

     7   H  -   2   C       0.949479       0.988819


 Valency analysis:

   CEN ATOM   TOT.VALENCE
     1   C       3.223205
     2   C       3.948569
     3   H       0.981028
     4   H       0.998596
     5   H       0.998596
     6   H       0.992478
     7   H       0.992478
 Localization group 2:   1 orbitals, occupancy  1.000
 Iterative localization: IB/PM,    1 iter; Final gradient 0.00E+00

 Bond order analysis:       [THRPRINT= 0.020]

   CEN ATOM   CEN ATOM     WIBERG.BO      RENORM.BO
     1   C  -   3   H       0.124459       0.500000
     1   C  -   6   H       0.028888       0.500000
     1   C  -   7   H       0.028888       0.500000


     3   H  -   1   C       0.124459       0.500000



     6   H  -   1   C       0.028888       0.500000

     7   H  -   1   C       0.028888       0.500000


 Valency analysis:

   CEN ATOM   TOT.VALENCE
     1   C       0.193476
     2   C       0.012194
     3   H       0.129863
     4   H       0.000170
     5   H       0.000170
     6   H       0.031880
     7   H       0.031880

 Total charge composition:

   CEN ATOM         s          p       ELECTRONS ->P.CHARGE
     1   C       2.92805    3.13357      6.06162   -0.06162
     2   C       2.88160    3.34054      6.22214   -0.22214
     3   H       0.93206                 0.93206    0.06794
     4   H       0.96262                 0.96262    0.03738
     5   H       0.96262                 0.96262    0.03738
     6   H       0.92947                 0.92947    0.07053
     7   H       0.92947                 0.92947    0.07053

 Total charge composition, AO contributions:

   CEN ATOM SHL      SPHERICAL COMPONENTS
     1   C  1s       1.99842
     1   C  2s       0.92962
     1   C  2p       1.01753    1.02914    1.08691

     2   C  1s       1.99796
     2   C  2s       0.88364
     2   C  2p       1.11063    1.10509    1.12482

     3   H  1s       0.93206

     4   H  1s       0.96262

     5   H  1s       0.96262

     6   H  1s       0.92947

     7   H  1s       0.92947

 Active orbital charges:

   CEN ATOM         s          p       ELECTRONS ->SPIN.DEN
     1   C       0.00298    0.88850      0.89149    0.89149
     2   C       0.00003    0.00611      0.00613    0.00613
     3   H       0.06980                 0.06980    0.06980
     4   H       0.00008                 0.00008    0.00008
     5   H       0.00008                 0.00008    0.00008
     6   H       0.01620                 0.01620    0.01620
     7   H       0.01620                 0.01620    0.01620

 Active orbital charges, AO contributions:

   CEN ATOM SHL      SPHERICAL COMPONENTS
     1   C  1s       0.00000
     1   C  2s       0.00298
     1   C  2p       0.88448    0.00402    0.00000

     2   C  1s       0.00000
     2   C  2s       0.00003
     2   C  2p       0.00605    0.00005    0.00000

     3   H  1s       0.06980

     4   H  1s       0.00008

     5   H  1s       0.00008

     6   H  1s       0.01620

     7   H  1s       0.01620

 Summary of localized orbital composition:   [THRPRINT= 0.020]

   ORB  GRP  ORB.ENERGY      CENTERS/CHARGES
     1   1    -7.672872      C  2   2.000
     2   1    -7.588673      C  1   2.000
     3   1    -0.009611      C  2   1.034   C  1   0.960
     4   1     0.021452      C  2   1.052   H  3   0.855   C  1   0.088
     5   1     0.030580      C  2   1.062   H  7   0.906   C  1   0.025
     6   1     0.030580      C  2   1.062   H  6   0.906   C  1   0.025
     7   1     0.036602      C  1   1.036   H  5   0.957
     8   1     0.036602      C  1   1.036   H  4   0.957
     9   2     0.400679      C  1   0.891   H  3   0.070   (other: 0.039)

 Localized orbitals saved to record      2200.2  (orbital set 4)


 **********************************************************************************************************************************
 DATASETS  * FILE   NREC   LENGTH (MB)   RECORD NAMES
              1      20       30.85       500      610      700      900      950      970     1000      129      960     1100   
                                          VAR    BASINP    GEOM    SYMINP    ZMAT    AOBASIS   BASIS     P2S    ABASIS      S 
                                         1400     1410     1200     1210     1080     1600     1650     1300     1700     1800   
                                           T        V       H0       H01     AOSYM     SMH    MOLCAS    ERIS     OPER     GRID   

              2       5        2.87       700     1000      520     1800     2200   
                                         GEOM     BASIS   MCVARS    GRID      UKS  

 PROGRAMS   *        TOTAL      IBBA       UKS       INT
 CPU TIMES  *         1.78      0.02      1.22      0.40
 REAL TIME  *         2.21 SEC
 DISK USED  *        34.91 MB      
 **********************************************************************************************************************************
 Molecular orbitals read from record     2200.2  Type=UKS/LOCAL(IBO)  
 Occupation numbers read from record     2200.2  Type=UKS/LOCAL(IBO)  
 Orbital energies read from record       2200.2  Type=UKS/LOCAL(IBO)  
 Redundancy group numbers read from rec  2200.2  Type=UKS/BETA (state 1.1)

 IBBA/STO-3G energy=      0.000000000000

        UKS-SCF 
    -66.57374651
 **********************************************************************************************************************************
 Molpro calculation terminated
