
 Primary working directories    : /tmp/sb13343
 Secondary working directories  : /tmp/sb13343
 Wavefunction directory         : /panfs/panasas01/chem/sb13343/wfu/
 Main file repository           : /tmp/sb13343/

 SHA1      : b4a5b34a9e711420743f49e6833241d17c61fb3c
 NAME      : 2099.9.b4a5b34
 ARCHNAME  : linux/x86_64_openmp
 FC        : /cm/shared/languages/GCC-6.1/bin/gfortran
 BLASLIB   : -lblas
 id        : simonbennie

 Nodes     nprocs
 node35-048    1

 Using customized tuning parameters: mindgm=1; mindgv=20; mindgc=4; mindgr=1; noblas=0; minvec=7
 default implementation of scratch files=df  

 memory,500,m
 geomtyp=xyz
 nosym
 noorient
 geometry={
 C         -0.00146        0.79548        0.00000
 C          0.02225       -0.69390        0.00000
 H         -0.99481       -1.12636        0.00000
 H         -0.09300        1.35197        0.92746
 H         -0.09300        1.35197       -0.92746
 H          0.52802       -1.09351        0.88764
 H          0.52802       -1.09351       -0.88764
 }
 basis={ default,svp }
 {uks,SOGGA11-X,direct;wf,17,1,1}
 {ibba,bonds=1}

 Variables initialized (895), CPU time= 0.00 sec
 Commands  initialized (725), CPU time= 0.01 sec, 591 directives.
 Default parameters read. Elapsed time= 0.14 sec

 Checking input...
 Passed
1


                                         ***  PROGRAM SYSTEM MOLPRO  ***
                                       Copyright, TTI GmbH Stuttgart, 2015
                                    Version 2099.9 linked May 26 2017 16:03:21


 **********************************************************************************************************************************
 LABEL *                                                                                 
  64 bit serial version                                                                  DATE: 08-Jun-17          TIME: 05:07:57  
 **********************************************************************************************************************************

 SHA1:             b4a5b34a9e711420743f49e6833241d17c61fb3c
 **********************************************************************************************************************************
 SETTING GEOMTYP        =    XYZ

 Variable memory set to  500000000 words,  buffer space 

 ZSYMEL=NOSYM

 SETTING BASIS          =    SVP


 Recomputing integrals since basis changed


 Using spherical harmonics

 Library entry C      S def2-SVP             selected for orbital group  1
 Library entry C      P def2-SVP             selected for orbital group  1
 Library entry C      D def2-SVP             selected for orbital group  1
 Library entry H      S def2-SVP             selected for orbital group  2
 Library entry H      P def2-SVP             selected for orbital group  2


 PROGRAM * SEWARD (Integral evaluation for generally contracted gaussian basis sets)     Author: Roland Lindh, 1990

 Geometry written to block  1 of record 700


 Point group  C1  



 ATOMIC COORDINATES

 NR  ATOM    CHARGE       X              Y              Z

   1  C       6.00   -0.002759000    1.503239338    0.000000000
   2  C       6.00    0.042046406   -1.311280958    0.000000000
   3  H       1.00   -1.879918446   -2.128511918    0.000000000
   4  H       1.00   -0.175744530    2.554853029    1.752645391
   5  H       1.00   -0.175744530    2.554853029   -1.752645391
   6  H       1.00    0.997813188   -2.066434414    1.677396497
   7  H       1.00    0.997813188   -2.066434414   -1.677396497

 Bond lengths in Bohr (Angstrom)

 1-2  2.814876910  1-4  2.051238947  1-5  2.051238947  2-3  2.088495950  2-6  2.073018546
     ( 1.489568712)     ( 1.085468905)     ( 1.085468905)     ( 1.105184462)     ( 1.096994173)

 2-7  2.073018546
     ( 1.096994173)

 Bond angles

  1-2-3  112.12345176   1-2-6  111.81246303   1-2-7  111.81246303   2-1-4  120.92728687

  2-1-5  120.92728687   3-2-6  106.36442052   3-2-7  106.36442052   4-1-5  117.39421083

  6-2-7  108.02720793

 NUCLEAR CHARGE:                   17
 NUMBER OF PRIMITIVE AOS:          85
 NUMBER OF SYMMETRY AOS:           83
 NUMBER OF CONTRACTIONS:           53   (  53A   )
 NUMBER OF CORE ORBITALS:           2   (   2A   )
 NUMBER OF VALENCE ORBITALS:       13   (  13A   )


 NUCLEAR REPULSION ENERGY   36.86300145


 Eigenvalues of metric

         1 0.525E-02 0.232E-01 0.271E-01 0.397E-01 0.503E-01 0.635E-01 0.102E+00 0.110E+00


 Contracted 2-electron integrals neglected if value below      1.0D-11
 AO integral compression algorithm  1   Integral accuracy      1.0D-11

     5.243 MB (compressed) written to integral file ( 52.3%)


 NUMBER OF SORTED TWO-ELECTRON INTEGRALS:    1024596.     BUFFER LENGTH:  32768
 NUMBER OF SEGMENTS:   1  SEGMENT LENGTH:    1024596      RECORD LENGTH: 524288

 Memory used in sort:       1.58 MW

 SORT1 READ     1206537. AND WROTE      940164. INTEGRALS IN      3 RECORDS. CPU TIME:     0.01 SEC, REAL TIME:     0.04 SEC
 SORT2 READ      940164. AND WROTE     1024596. INTEGRALS IN     20 RECORDS. CPU TIME:     0.05 SEC, REAL TIME:     0.10 SEC

 FILE SIZES:   FILE 1:    35.4 MBYTE,  FILE 4:    12.6 MBYTE,   TOTAL:     48.0 MBYTE

 OPERATOR DM      FOR CENTER  0  COORDINATES:    0.000000    0.000000    0.000000


 **********************************************************************************************************************************
 DATASETS  * FILE   NREC   LENGTH (MB)   RECORD NAMES
              1      19       34.42       500      610      700      900      950      970     1000      129      960     1100   
                                          VAR    BASINP    GEOM    SYMINP    ZMAT    AOBASIS   BASIS     P2S    ABASIS      S 
                                         1400     1410     1200     1210     1080     1600     1650     1300     1700   
                                           T        V       H0       H01     AOSYM     SMH    MOLCAS    ERIS     OPER   

 PROGRAMS   *        TOTAL       INT
 CPU TIMES  *         0.53      0.38
 REAL TIME  *         1.32 SEC
 DISK USED  *        48.39 MB      
 **********************************************************************************************************************************

 Density functional group SOGGA11-X=XC-SOGGA11-X
 Functional: XC-SOGGA11-X(via MFM 1.6)                                         Gradient terms: 1
 Use grid at  1800.2


 Exact exchange will be calculated, factor:  0.4015

 Functional: XC-SOGGA11-X              Factor:  1.0000

 Generated new metagrid on record  1800.2 with target accuracy 1.0D-06 and 23794 points in CPU time    0.5
 Computed new grid on record 1800.1 in CPU time    0.5
   46013 words reserved for DFT integration

 PROGRAM * UKS-SCF (Unrestricted Kohn-Sham)     Authors: W. Meyer, H.-J. Werner, P.J. Knowles, 1993

 NUMBER OF ELECTRONS:       9+    8-    SPACE SYMMETRY=1    SPIN SYMMETRY: Doublet 
 CONVERGENCE THRESHOLDS:    1.00E-05 (Density)    1.00E-06 (Energy)
 MAX. NUMBER OF ITERATIONS:       60
 INTERPOLATION TYPE:            DIIS
 INTERPOLATION STEPS:              2 (START)      1 (STEP)
 LEVEL SHIFTS:                 -0.20 (ALPHA)  -0.20 (BETA) 



 Use fine grid record 1800.2 for energy threshold  1.0D-06
 Orbital guess generated from atomic densities. Full valence occupancy:    9

 Molecular orbital dump at record        2200.2

 Initial alpha occupation   9
 Initial beta  occupation   8

 ITERATION    DDIFF          GRAD             ENERGY        2-EL.EN.            DIPOLE MOMENTS         DIIS
    1      0.000D+00      0.000D+00       -79.03697376    142.225995   -0.10836   -0.27667    0.00000    0
    2      0.856D-02      0.494D-02       -79.07625235    138.439622   -0.06894   -0.17627    0.00000    1
    3      0.215D-02      0.138D-02       -79.07915505    139.007704   -0.06795   -0.15197    0.00000    2
    4      0.129D-02      0.438D-03       -79.07993860    138.964869   -0.06308   -0.12562    0.00000    3
    5      0.589D-03      0.194D-03       -79.08009263    138.957096   -0.06010   -0.11156    0.00000    4
    6      0.171D-03      0.665D-04       -79.08011557    138.959581   -0.05882   -0.10711    0.00000    5
    7      0.577D-04      0.234D-04       -79.08011795    138.959583   -0.05832   -0.10549    0.00000    6
    8      0.154D-04      0.434D-05       -79.08011804    138.959987   -0.05822   -0.10548    0.00000    7
    9      0.336D-05      0.115D-05       -79.08011805    138.959871   -0.05821   -0.10550    0.00000    6
   10      0.123D-05      0.434D-06       -79.08011805    138.960008   -0.05821   -0.10551    0.00000    6

 Final alpha occupancy:   9
 Final beta  occupancy:   8

 !UKS STATE 1.1 Energy                -79.080118048841
 Nuclear energy                        36.86300145
 One-electron energy                 -177.64226516
 Two-electron energy                   69.48000421
 Density functional                    -7.78085855     XC-SOGGA11-X=-7.78085855
 Virial quotient                       -1.01317449
 !UKS STATE 1.1 Dipole moment          -0.05820929    -0.10551152     0.00000000
 Dipole moment /Debye                  -0.14794357    -0.26816597     0.00000000

 Orbital energies for positive spin:

         1.1          2.1          3.1          4.1          5.1          6.1          7.1          8.1          9.1         10.1
    -10.459781   -10.453025    -0.832815    -0.672363    -0.501895    -0.464090    -0.440940    -0.402577    -0.242408     0.103627

        11.1
      0.132710

 Orbital energies for negative spin:

         1.1          2.1          3.1          4.1          5.1          6.1          7.1          8.1          9.1         10.1
    -10.454217   -10.440890    -0.812481    -0.643481    -0.493846    -0.444370    -0.431357    -0.396596    -0.022382     0.105713

        11.1
      0.143792

 HOMO      9.1    -0.242408 =      -6.5963eV
 LUMO     -9.1    -0.022382 =      -0.6091eV
 LUMO-HOMO         0.220026 =       5.9872eV

 EXPECTATION VALUE OF S**2:             0.75349346

 Occupation number threshold for canonical orbitals:  1.999000 (occupied),  0.001000 (virtual)

 Number of pseudo-canonical orbitals per symmetry:    7
 Number of active natural orbitals per symmetry:      3

 Natural orbitals saved to record    2200.2 (Orbital set 3)

 Orbital spaces for UNO-CAS (Min. occupation: 0.020  Max. occupation: 1.980):

 Closed:        8
 Active:        1


 **********************************************************************************************************************************
 DATASETS  * FILE   NREC   LENGTH (MB)   RECORD NAMES
              1      20       35.18       500      610      700      900      950      970     1000      129      960     1100   
                                          VAR    BASINP    GEOM    SYMINP    ZMAT    AOBASIS   BASIS     P2S    ABASIS      S 
                                         1400     1410     1200     1210     1080     1600     1650     1300     1700     1800   
                                           T        V       H0       H01     AOSYM     SMH    MOLCAS    ERIS     OPER     GRID   

              2       5        2.98       700     1000      520     1800     2200   
                                         GEOM     BASIS   MCVARS    GRID      UKS  

 PROGRAMS   *        TOTAL       UKS       INT
 CPU TIMES  *         4.70      4.17      0.38
 REAL TIME  *         7.84 SEC
 DISK USED  *        48.39 MB      
 **********************************************************************************************************************************


 PROGRAM * Intrinsic Basis Bonding Analysis (IBBA)          Author: G. Knizia

 Molecular orbitals read from record     2200.2  Type=UKS/ALPHA (state 1.1)
 Fock matrix read from record            2200.2  Type=UKS/TOTAL (state 1.1)
 Orbital energies read from record       2200.2  Type=UKS/ALPHA (state 1.1)
 Density matrix read from record         2200.2  Type=UKS/CHARGE (state 1.1)

 Number of core orbitals:           2 (   2 )
 Number of closed-shell orbitals:   6 (   6 )
 Number of active  orbitals:        1 (   1 )

 Basis set MINAO-AUTO-PP generated.      Number of basis functions:   15 

 Polarized AO type:                A = (O Ot + (1-O)(1-Ot)) P12
 Orthogonalization method:         Symmetric (Loewdin)
 Localization functional:          L = sum[A,i] <i|n_A|i>^4 -> max

 Localization group 1:   8 orbitals, occupancy  2.000
 Iterative localization: IB/PM,    6 iter; Final gradient 0.39E-08

 Bond order analysis:       [THRPRINT= 0.020]

   CEN ATOM   CEN ATOM     WIBERG.BO      RENORM.BO
     1   C  -   2   C       1.255650       2.019583
     1   C  -   5   H       0.960281       0.983623
     1   C  -   4   H       0.960281       0.983623
     1   C  -   3   H       0.102804       0.621206
     1   C  -   6   H       0.023888       0.129364
     1   C  -   7   H       0.023888       0.129364

     2   C  -   1   C       1.255650       2.019583
     2   C  -   7   H       0.933578       0.989149
     2   C  -   6   H       0.933578       0.989149
     2   C  -   3   H       0.833228       0.998634

     3   H  -   2   C       0.833228       0.998634
     3   H  -   1   C       0.102804       0.621206

     4   H  -   1   C       0.960281       0.983623

     5   H  -   1   C       0.960281       0.983623

     6   H  -   2   C       0.933578       0.989149
     6   H  -   1   C       0.023888       0.129364

     7   H  -   2   C       0.933578       0.989149
     7   H  -   1   C       0.023888       0.129364


 Valency analysis:

   CEN ATOM   TOT.VALENCE
     1   C       3.326793
     2   C       3.957847
     3   H       0.949167
     4   H       0.974400
     5   H       0.974400
     6   H       0.975721
     7   H       0.975721
 Localization group 2:   1 orbitals, occupancy  1.000
 Iterative localization: IB/PM,    1 iter; Final gradient 0.00E+00

 Bond order analysis:       [THRPRINT= 0.020]

   CEN ATOM   CEN ATOM     WIBERG.BO      RENORM.BO
     1   C  -   3   H       0.129444       0.500000
     1   C  -   2   C       0.037473       0.500000
     1   C  -   6   H       0.028247       0.500000
     1   C  -   7   H       0.028247       0.500000

     2   C  -   1   C       0.037473       0.500000

     3   H  -   1   C       0.129444       0.500000



     6   H  -   1   C       0.028247       0.500000

     7   H  -   1   C       0.028247       0.500000


 Valency analysis:

   CEN ATOM   TOT.VALENCE
     1   C       0.224751
     2   C       0.042098
     3   H       0.137576
     4   H       0.000769
     5   H       0.000769
     6   H       0.031905
     7   H       0.031905

 Total charge composition:

   CEN ATOM         s          p       ELECTRONS ->P.CHARGE
     1   C       3.09860    3.33163      6.43023   -0.43023
     2   C       3.00766    3.31170      6.31935   -0.31935
     3   H       0.84885                 0.84885    0.15115
     4   H       0.84038                 0.84038    0.15962
     5   H       0.84038                 0.84038    0.15962
     6   H       0.86040                 0.86040    0.13960
     7   H       0.86040                 0.86040    0.13960

 Total charge composition, AO contributions:

   CEN ATOM SHL      SPHERICAL COMPONENTS
     1   C  1s       1.99168
     1   C  2s       1.10692
     1   C  2p       1.08187    1.07588    1.17388

     2   C  1s       1.99021
     2   C  2s       1.01744
     2   C  2p       1.11108    1.04422    1.15640

     3   H  1s       0.84885

     4   H  1s       0.84038

     5   H  1s       0.84038

     6   H  1s       0.86040

     7   H  1s       0.86040

 Active orbital charges:

   CEN ATOM         s          p       ELECTRONS ->SPIN.DEN
     1   C       0.00224    0.86874      0.87098    0.87098
     2   C       0.00005    0.02146      0.02151    0.02151
     3   H       0.07431                 0.07431    0.07431
     4   H       0.00038                 0.00038    0.00038
     5   H       0.00038                 0.00038    0.00038
     6   H       0.01622                 0.01622    0.01622
     7   H       0.01622                 0.01622    0.01622

 Active orbital charges, AO contributions:

   CEN ATOM SHL      SPHERICAL COMPONENTS
     1   C  1s       0.00000
     1   C  2s       0.00223
     1   C  2p       0.86506    0.00368    0.00000

     2   C  1s       0.00000
     2   C  2s       0.00005
     2   C  2p       0.02127    0.00019    0.00000

     3   H  1s       0.07431

     4   H  1s       0.00038

     5   H  1s       0.00038

     6   H  1s       0.01622

     7   H  1s       0.01622

 Summary of localized orbital composition:   [THRPRINT= 0.020]

   ORB  GRP  ORB.ENERGY      CENTERS/CHARGES
     1   1   -10.338371      C  1   2.000
     2   1   -10.334302      C  2   2.000
     3   1    -0.668489      C  1   1.021   C  2   0.977
     4   1    -0.581520      C  1   1.160   H  4   0.835
     5   1    -0.581520      C  1   1.160   H  5   0.835
     6   1    -0.555151      C  2   1.079   H  3   0.769   C  1   0.148
     7   1    -0.553760      C  2   1.118   H  6   0.840   C  1   0.035
     8   1    -0.553760      C  2   1.118   H  7   0.840   C  1   0.035
     9   2    -0.131655      C  1   0.871   H  3   0.074   C  2   0.022   (other: 0.033)

 Localized orbitals saved to record      2200.2  (orbital set 4)


 **********************************************************************************************************************************
 DATASETS  * FILE   NREC   LENGTH (MB)   RECORD NAMES
              1      20       35.18       500      610      700      900      950      970     1000      129      960     1100   
                                          VAR    BASINP    GEOM    SYMINP    ZMAT    AOBASIS   BASIS     P2S    ABASIS      S 
                                         1400     1410     1200     1210     1080     1600     1650     1300     1700     1800   
                                           T        V       H0       H01     AOSYM     SMH    MOLCAS    ERIS     OPER     GRID   

              2       5        3.00       700     1000      520     1800     2200   
                                         GEOM     BASIS   MCVARS    GRID      UKS  

 PROGRAMS   *        TOTAL      IBBA       UKS       INT
 CPU TIMES  *         4.72      0.02      4.17      0.38
 REAL TIME  *         7.98 SEC
 DISK USED  *        48.39 MB      
 **********************************************************************************************************************************
 Molecular orbitals read from record     2200.2  Type=UKS/LOCAL(IBO)  
 Occupation numbers read from record     2200.2  Type=UKS/LOCAL(IBO)  
 Orbital energies read from record       2200.2  Type=UKS/LOCAL(IBO)  
 Redundancy group numbers read from rec  2200.2  Type=UKS/BETA (state 1.1)

 IBBA/SVP energy=      0.000000000000

        UKS-SCF 
    -79.08011805
 **********************************************************************************************************************************
 Molpro calculation terminated
