
 Primary working directories    : /tmp/sb13343
 Secondary working directories  : /tmp/sb13343
 Wavefunction directory         : /panfs/panasas01/chem/sb13343/wfu/
 Main file repository           : /tmp/sb13343/

 SHA1      : b4a5b34a9e711420743f49e6833241d17c61fb3c
 NAME      : 2099.9.b4a5b34
 ARCHNAME  : linux/x86_64_openmp
 FC        : /cm/shared/languages/GCC-6.1/bin/gfortran
 BLASLIB   : -lblas
 id        : simonbennie

 Nodes     nprocs
 node32-007    1

 Using customized tuning parameters: mindgm=1; mindgv=20; mindgc=4; mindgr=1; noblas=0; minvec=7
 default implementation of scratch files=df  

 memory,500,m
 geomtyp=xyz
 nosym
 noorient
 geometry={
 C         -0.00146        0.79548        0.00000
 C          0.02225       -0.69390        0.00000
 H         -0.99481       -1.12636        0.00000
 H         -0.09300        1.35197        0.92746
 H         -0.09300        1.35197       -0.92746
 H          0.52802       -1.09351        0.88764
 H          0.52802       -1.09351       -0.88764
 }
 basis={ default,svp }
 {uks,HFB,direct;wf,17,1,1}
 {ibba,bonds=1}

 Variables initialized (895), CPU time= 0.00 sec
 Commands  initialized (725), CPU time= 0.02 sec, 591 directives.
 Default parameters read. Elapsed time= 0.09 sec

 Checking input...
 Passed
1


                                         ***  PROGRAM SYSTEM MOLPRO  ***
                                       Copyright, TTI GmbH Stuttgart, 2015
                                    Version 2099.9 linked May 26 2017 16:03:21


 **********************************************************************************************************************************
 LABEL *                                                                                 
  64 bit serial version                                                                  DATE: 08-Jun-17          TIME: 04:56:13  
 **********************************************************************************************************************************

 SHA1:             b4a5b34a9e711420743f49e6833241d17c61fb3c
 **********************************************************************************************************************************
 SETTING GEOMTYP        =    XYZ

 Variable memory set to  500000000 words,  buffer space 

 ZSYMEL=NOSYM

 SETTING BASIS          =    SVP


 Recomputing integrals since basis changed


 Using spherical harmonics

 Library entry C      S def2-SVP             selected for orbital group  1
 Library entry C      P def2-SVP             selected for orbital group  1
 Library entry C      D def2-SVP             selected for orbital group  1
 Library entry H      S def2-SVP             selected for orbital group  2
 Library entry H      P def2-SVP             selected for orbital group  2


 PROGRAM * SEWARD (Integral evaluation for generally contracted gaussian basis sets)     Author: Roland Lindh, 1990

 Geometry written to block  1 of record 700


 Point group  C1  



 ATOMIC COORDINATES

 NR  ATOM    CHARGE       X              Y              Z

   1  C       6.00   -0.002759000    1.503239338    0.000000000
   2  C       6.00    0.042046406   -1.311280958    0.000000000
   3  H       1.00   -1.879918446   -2.128511918    0.000000000
   4  H       1.00   -0.175744530    2.554853029    1.752645391
   5  H       1.00   -0.175744530    2.554853029   -1.752645391
   6  H       1.00    0.997813188   -2.066434414    1.677396497
   7  H       1.00    0.997813188   -2.066434414   -1.677396497

 Bond lengths in Bohr (Angstrom)

 1-2  2.814876910  1-4  2.051238947  1-5  2.051238947  2-3  2.088495950  2-6  2.073018546
     ( 1.489568712)     ( 1.085468905)     ( 1.085468905)     ( 1.105184462)     ( 1.096994173)

 2-7  2.073018546
     ( 1.096994173)

 Bond angles

  1-2-3  112.12345176   1-2-6  111.81246303   1-2-7  111.81246303   2-1-4  120.92728687

  2-1-5  120.92728687   3-2-6  106.36442052   3-2-7  106.36442052   4-1-5  117.39421083

  6-2-7  108.02720793

 NUCLEAR CHARGE:                   17
 NUMBER OF PRIMITIVE AOS:          85
 NUMBER OF SYMMETRY AOS:           83
 NUMBER OF CONTRACTIONS:           53   (  53A   )
 NUMBER OF CORE ORBITALS:           2   (   2A   )
 NUMBER OF VALENCE ORBITALS:       13   (  13A   )


 NUCLEAR REPULSION ENERGY   36.86300145


 Eigenvalues of metric

         1 0.525E-02 0.232E-01 0.271E-01 0.397E-01 0.503E-01 0.635E-01 0.102E+00 0.110E+00


 Contracted 2-electron integrals neglected if value below      1.0D-11
 AO integral compression algorithm  1   Integral accuracy      1.0D-11

     5.243 MB (compressed) written to integral file ( 52.3%)


 NUMBER OF SORTED TWO-ELECTRON INTEGRALS:    1024596.     BUFFER LENGTH:  32768
 NUMBER OF SEGMENTS:   1  SEGMENT LENGTH:    1024596      RECORD LENGTH: 524288

 Memory used in sort:       1.58 MW

 SORT1 READ     1206537. AND WROTE      940164. INTEGRALS IN      3 RECORDS. CPU TIME:     0.01 SEC, REAL TIME:     0.03 SEC
 SORT2 READ      940164. AND WROTE     1024596. INTEGRALS IN     20 RECORDS. CPU TIME:     0.06 SEC, REAL TIME:     0.07 SEC

 FILE SIZES:   FILE 1:    35.4 MBYTE,  FILE 4:    12.6 MBYTE,   TOTAL:     48.0 MBYTE

 OPERATOR DM      FOR CENTER  0  COORDINATES:    0.000000    0.000000    0.000000


 **********************************************************************************************************************************
 DATASETS  * FILE   NREC   LENGTH (MB)   RECORD NAMES
              1      19       34.42       500      610      700      900      950      970     1000      129      960     1100   
                                          VAR    BASINP    GEOM    SYMINP    ZMAT    AOBASIS   BASIS     P2S    ABASIS      S 
                                         1400     1410     1200     1210     1080     1600     1650     1300     1700   
                                           T        V       H0       H01     AOSYM     SMH    MOLCAS    ERIS     OPER   

 PROGRAMS   *        TOTAL       INT
 CPU TIMES  *         0.66      0.51
 REAL TIME  *         0.97 SEC
 DISK USED  *        48.39 MB      
 **********************************************************************************************************************************

 Density functional group HFB=B88
 Functional: B88(Automatically generated (new) B88)                            Gradient terms: 1
 Use grid at  1800.2

 Functional: B88                       Factor:  1.0000

 Generated new metagrid on record  1800.2 with target accuracy 1.0D-06 and 23794 points in CPU time    0.5
 Computed new grid on record 1800.1 in CPU time    0.5
   46013 words reserved for DFT integration

 PROGRAM * UKS-SCF (Unrestricted Kohn-Sham)     Authors: W. Meyer, H.-J. Werner, P.J. Knowles, 1993

 NUMBER OF ELECTRONS:       9+    8-    SPACE SYMMETRY=1    SPIN SYMMETRY: Doublet 
 CONVERGENCE THRESHOLDS:    1.00E-05 (Density)    1.00E-06 (Energy)
 MAX. NUMBER OF ITERATIONS:       60
 INTERPOLATION TYPE:            DIIS
 INTERPOLATION STEPS:              2 (START)      1 (STEP)
 LEVEL SHIFTS:                 -0.20 (ALPHA)  -0.20 (BETA) 



 Use fine grid record 1800.2 for energy threshold  1.0D-06
 Orbital guess generated from atomic densities. Full valence occupancy:    9

 Molecular orbital dump at record        2200.2

 Initial alpha occupation   9
 Initial beta  occupation   8

 ITERATION    DDIFF          GRAD             ENERGY        2-EL.EN.            DIPOLE MOMENTS         DIIS
    1      0.000D+00      0.000D+00       -78.40169690    154.964604   -0.10460   -0.22404    0.00000    0
    2      0.184D-01      0.854D-02       -78.50238459    146.574845   -0.04630   -0.12622    0.00000    1
    3      0.583D-02      0.395D-02       -78.52261661    148.726459   -0.05644   -0.12793    0.00000    2
    4      0.163D-02      0.443D-03       -78.52323768    148.650537   -0.05257   -0.11765    0.00000    3
    5      0.824D-03      0.205D-03       -78.52338736    148.627563   -0.04945   -0.10728    0.00000    4
    6      0.327D-03      0.878D-04       -78.52342283    148.630293   -0.04782   -0.10257    0.00000    5
    7      0.756D-04      0.393D-04       -78.52342710    148.627519   -0.04714   -0.10049    0.00000    6
    8      0.259D-04      0.965D-05       -78.52342743    148.627739   -0.04698   -0.10037    0.00000    7
    9      0.569D-05      0.152D-05       -78.52342744    148.627494   -0.04697   -0.10037    0.00000    6
   10      0.145D-05      0.546D-06       -78.52342744    148.627687   -0.04697   -0.10041    0.00000    7

 Final alpha occupancy:   9
 Final beta  occupancy:   8

 !UKS STATE 1.1 Energy                -78.523427444578
 Nuclear energy                        36.86300145
 One-electron energy                 -177.62417661
 Two-electron energy                   74.31384364
 Density functional                   -12.07609592     B88=-12.07609592
 Virial quotient                       -1.00669605
 !UKS STATE 1.1 Dipole moment          -0.04697052    -0.10040596     0.00000000
 Dipole moment /Debye                  -0.11937932    -0.25518978     0.00000000

 Orbital energies for positive spin:

         1.1          2.1          3.1          4.1          5.1          6.1          7.1          8.1          9.1         10.1
     -9.893512    -9.888093    -0.638286    -0.502716    -0.364354    -0.330105    -0.311548    -0.277972    -0.137099     0.077056

        11.1
      0.105455

 Orbital energies for negative spin:

         1.1          2.1          3.1          4.1          5.1          6.1          7.1          8.1          9.1         10.1
     -9.889366    -9.877514    -0.620582    -0.477774    -0.355812    -0.317039    -0.300880    -0.272543    -0.027229     0.081601

        11.1
      0.118238

 HOMO      9.1    -0.137099 =      -3.7307eV
 LUMO     -9.1    -0.027229 =      -0.7409eV
 LUMO-HOMO         0.109870 =       2.9897eV

 EXPECTATION VALUE OF S**2:             0.75602683

 Occupation number threshold for canonical orbitals:  1.999000 (occupied),  0.001000 (virtual)

 Number of pseudo-canonical orbitals per symmetry:    7
 Number of active natural orbitals per symmetry:      3

 Natural orbitals saved to record    2200.2 (Orbital set 3)

 Orbital spaces for UNO-CAS (Min. occupation: 0.020  Max. occupation: 1.980):

 Closed:        8
 Active:        1


 **********************************************************************************************************************************
 DATASETS  * FILE   NREC   LENGTH (MB)   RECORD NAMES
              1      20       35.18       500      610      700      900      950      970     1000      129      960     1100   
                                          VAR    BASINP    GEOM    SYMINP    ZMAT    AOBASIS   BASIS     P2S    ABASIS      S 
                                         1400     1410     1200     1210     1080     1600     1650     1300     1700     1800   
                                           T        V       H0       H01     AOSYM     SMH    MOLCAS    ERIS     OPER     GRID   

              2       5        2.98       700     1000      520     1800     2200   
                                         GEOM     BASIS   MCVARS    GRID      UKS  

 PROGRAMS   *        TOTAL       UKS       INT
 CPU TIMES  *         3.99      3.33      0.51
 REAL TIME  *         4.41 SEC
 DISK USED  *        48.39 MB      
 **********************************************************************************************************************************


 PROGRAM * Intrinsic Basis Bonding Analysis (IBBA)          Author: G. Knizia

 Molecular orbitals read from record     2200.2  Type=UKS/ALPHA (state 1.1)
 Fock matrix read from record            2200.2  Type=UKS/TOTAL (state 1.1)
 Orbital energies read from record       2200.2  Type=UKS/ALPHA (state 1.1)
 Density matrix read from record         2200.2  Type=UKS/CHARGE (state 1.1)

 Number of core orbitals:           2 (   2 )
 Number of closed-shell orbitals:   6 (   6 )
 Number of active  orbitals:        1 (   1 )

 Basis set MINAO-AUTO-PP generated.      Number of basis functions:   15 

 Polarized AO type:                A = (O Ot + (1-O)(1-Ot)) P12
 Orthogonalization method:         Symmetric (Loewdin)
 Localization functional:          L = sum[A,i] <i|n_A|i>^4 -> max

 Localization group 1:   8 orbitals, occupancy  2.000
 Iterative localization: IB/PM,    6 iter; Final gradient 0.35E-08

 Bond order analysis:       [THRPRINT= 0.020]

   CEN ATOM   CEN ATOM     WIBERG.BO      RENORM.BO
     1   C  -   2   C       1.249813       2.021401
     1   C  -   5   H       0.959973       0.982693
     1   C  -   4   H       0.959973       0.982693
     1   C  -   3   H       0.101970       0.621679
     1   C  -   6   H       0.023708       0.129743
     1   C  -   7   H       0.023708       0.129743

     2   C  -   1   C       1.249813       2.021401
     2   C  -   7   H       0.936533       0.988110
     2   C  -   6   H       0.936533       0.988110
     2   C  -   3   H       0.839719       0.998487

     3   H  -   2   C       0.839719       0.998487
     3   H  -   1   C       0.101970       0.621679

     4   H  -   1   C       0.959973       0.982693

     5   H  -   1   C       0.959973       0.982693

     6   H  -   2   C       0.936533       0.988110
     6   H  -   1   C       0.023708       0.129743

     7   H  -   2   C       0.936533       0.988110
     7   H  -   1   C       0.023708       0.129743


 Valency analysis:

   CEN ATOM   TOT.VALENCE
     1   C       3.319144
     2   C       3.964335
     3   H       0.955057
     4   H       0.975182
     5   H       0.975182
     6   H       0.979632
     7   H       0.979632
 Localization group 2:   1 orbitals, occupancy  1.000
 Iterative localization: IB/PM,    1 iter; Final gradient 0.00E+00

 Bond order analysis:       [THRPRINT= 0.020]

   CEN ATOM   CEN ATOM     WIBERG.BO      RENORM.BO
     1   C  -   3   H       0.131411       0.500000
     1   C  -   2   C       0.033786       0.500000
     1   C  -   6   H       0.028409       0.500000
     1   C  -   7   H       0.028409       0.500000

     2   C  -   1   C       0.033786       0.500000

     3   H  -   1   C       0.131411       0.500000



     6   H  -   1   C       0.028409       0.500000

     7   H  -   1   C       0.028409       0.500000


 Valency analysis:

   CEN ATOM   TOT.VALENCE
     1   C       0.223321
     2   C       0.037997
     3   H       0.139355
     4   H       0.000748
     5   H       0.000748
     6   H       0.032051
     7   H       0.032051

 Total charge composition:

   CEN ATOM         s          p       ELECTRONS ->P.CHARGE
     1   C       3.09551    3.33140      6.42690   -0.42690
     2   C       2.99466    3.28226      6.27692   -0.27692
     3   H       0.86336                 0.86336    0.13664
     4   H       0.84284                 0.84284    0.15716
     5   H       0.84284                 0.84284    0.15716
     6   H       0.87357                 0.87357    0.12643
     7   H       0.87357                 0.87357    0.12643

 Total charge composition, AO contributions:

   CEN ATOM SHL      SPHERICAL COMPONENTS
     1   C  1s       1.99238
     1   C  2s       1.10312
     1   C  2p       1.07732    1.08006    1.17401

     2   C  1s       1.99105
     2   C  2s       1.00361
     2   C  2p       1.10174    1.03659    1.14393

     3   H  1s       0.86336

     4   H  1s       0.84284

     5   H  1s       0.84284

     6   H  1s       0.87357

     7   H  1s       0.87357

 Active orbital charges:

   CEN ATOM         s          p       ELECTRONS ->SPIN.DEN
     1   C       0.00232    0.86962      0.87194    0.87194
     2   C       0.00007    0.01931      0.01937    0.01937
     3   H       0.07536                 0.07536    0.07536
     4   H       0.00037                 0.00037    0.00037
     5   H       0.00037                 0.00037    0.00037
     6   H       0.01629                 0.01629    0.01629
     7   H       0.01629                 0.01629    0.01629

 Active orbital charges, AO contributions:

   CEN ATOM SHL      SPHERICAL COMPONENTS
     1   C  1s       0.00000
     1   C  2s       0.00232
     1   C  2p       0.86581    0.00380    0.00000

     2   C  1s       0.00000
     2   C  2s       0.00007
     2   C  2p       0.01913    0.00018    0.00000

     3   H  1s       0.07536

     4   H  1s       0.00037

     5   H  1s       0.00037

     6   H  1s       0.01629

     7   H  1s       0.01629

 Summary of localized orbital composition:   [THRPRINT= 0.020]

   ORB  GRP  ORB.ENERGY      CENTERS/CHARGES
     1   1    -9.780580      C  1   2.000
     2   1    -9.777401      C  2   2.000
     3   1    -0.505441      C  1   1.028   C  2   0.971
     4   1    -0.430891      C  1   1.157   H  4   0.837
     5   1    -0.430891      C  1   1.157   H  5   0.837
     6   1    -0.411287      C  2   1.070   H  3   0.783   C  1   0.144
     7   1    -0.408801      C  2   1.105   H  6   0.853   C  1   0.035
     8   1    -0.408801      C  2   1.105   H  7   0.853   C  1   0.035
     9   2    -0.081729      C  1   0.872   H  3   0.075   (other: 0.053)

 Localized orbitals saved to record      2200.2  (orbital set 4)


 **********************************************************************************************************************************
 DATASETS  * FILE   NREC   LENGTH (MB)   RECORD NAMES
              1      20       35.18       500      610      700      900      950      970     1000      129      960     1100   
                                          VAR    BASINP    GEOM    SYMINP    ZMAT    AOBASIS   BASIS     P2S    ABASIS      S 
                                         1400     1410     1200     1210     1080     1600     1650     1300     1700     1800   
                                           T        V       H0       H01     AOSYM     SMH    MOLCAS    ERIS     OPER     GRID   

              2       5        3.00       700     1000      520     1800     2200   
                                         GEOM     BASIS   MCVARS    GRID      UKS  

 PROGRAMS   *        TOTAL      IBBA       UKS       INT
 CPU TIMES  *         4.01      0.02      3.33      0.51
 REAL TIME  *         4.47 SEC
 DISK USED  *        48.39 MB      
 **********************************************************************************************************************************
 Molecular orbitals read from record     2200.2  Type=UKS/LOCAL(IBO)  
 Occupation numbers read from record     2200.2  Type=UKS/LOCAL(IBO)  
 Orbital energies read from record       2200.2  Type=UKS/LOCAL(IBO)  
 Redundancy group numbers read from rec  2200.2  Type=UKS/BETA (state 1.1)

 IBBA/SVP energy=      0.000000000000

        UKS-SCF 
    -78.52342744
 **********************************************************************************************************************************
 Molpro calculation terminated
