
 Primary working directories    : /tmp/sb13343
 Secondary working directories  : /tmp/sb13343
 Wavefunction directory         : /panfs/panasas01/chem/sb13343/wfu/
 Main file repository           : /tmp/sb13343/

 SHA1      : b4a5b34a9e711420743f49e6833241d17c61fb3c
 NAME      : 2099.9.b4a5b34
 ARCHNAME  : linux/x86_64_openmp
 FC        : /cm/shared/languages/GCC-6.1/bin/gfortran
 BLASLIB   : -lblas
 id        : simonbennie

 Nodes     nprocs
 node32-007    1

 Using customized tuning parameters: mindgm=1; mindgv=20; mindgc=4; mindgr=1; noblas=0; minvec=7
 default implementation of scratch files=df  

 memory,500,m
 geomtyp=xyz
 nosym
 noorient
 geometry={
 C         -0.00146        0.79548        0.00000
 C          0.02225       -0.69390        0.00000
 H         -0.99481       -1.12636        0.00000
 H         -0.09300        1.35197        0.92746
 H         -0.09300        1.35197       -0.92746
 H          0.52802       -1.09351        0.88764
 H          0.52802       -1.09351       -0.88764
 }
 basis={ default,svp }
 {uks,M05-2X,direct;wf,17,1,1}
 {ibba,bonds=1}

 Variables initialized (895), CPU time= 0.00 sec
 Commands  initialized (725), CPU time= 0.02 sec, 591 directives.
 Default parameters read. Elapsed time= 0.08 sec

 Checking input...
 Passed
1


                                         ***  PROGRAM SYSTEM MOLPRO  ***
                                       Copyright, TTI GmbH Stuttgart, 2015
                                    Version 2099.9 linked May 26 2017 16:03:21


 **********************************************************************************************************************************
 LABEL *                                                                                 
  64 bit serial version                                                                  DATE: 08-Jun-17          TIME: 05:04:13  
 **********************************************************************************************************************************

 SHA1:             b4a5b34a9e711420743f49e6833241d17c61fb3c
 **********************************************************************************************************************************
 SETTING GEOMTYP        =    XYZ

 Variable memory set to  500000000 words,  buffer space 

 ZSYMEL=NOSYM

 SETTING BASIS          =    SVP


 Recomputing integrals since basis changed


 Using spherical harmonics

 Library entry C      S def2-SVP             selected for orbital group  1
 Library entry C      P def2-SVP             selected for orbital group  1
 Library entry C      D def2-SVP             selected for orbital group  1
 Library entry H      S def2-SVP             selected for orbital group  2
 Library entry H      P def2-SVP             selected for orbital group  2


 PROGRAM * SEWARD (Integral evaluation for generally contracted gaussian basis sets)     Author: Roland Lindh, 1990

 Geometry written to block  1 of record 700


 Point group  C1  



 ATOMIC COORDINATES

 NR  ATOM    CHARGE       X              Y              Z

   1  C       6.00   -0.002759000    1.503239338    0.000000000
   2  C       6.00    0.042046406   -1.311280958    0.000000000
   3  H       1.00   -1.879918446   -2.128511918    0.000000000
   4  H       1.00   -0.175744530    2.554853029    1.752645391
   5  H       1.00   -0.175744530    2.554853029   -1.752645391
   6  H       1.00    0.997813188   -2.066434414    1.677396497
   7  H       1.00    0.997813188   -2.066434414   -1.677396497

 Bond lengths in Bohr (Angstrom)

 1-2  2.814876910  1-4  2.051238947  1-5  2.051238947  2-3  2.088495950  2-6  2.073018546
     ( 1.489568712)     ( 1.085468905)     ( 1.085468905)     ( 1.105184462)     ( 1.096994173)

 2-7  2.073018546
     ( 1.096994173)

 Bond angles

  1-2-3  112.12345176   1-2-6  111.81246303   1-2-7  111.81246303   2-1-4  120.92728687

  2-1-5  120.92728687   3-2-6  106.36442052   3-2-7  106.36442052   4-1-5  117.39421083

  6-2-7  108.02720793

 NUCLEAR CHARGE:                   17
 NUMBER OF PRIMITIVE AOS:          85
 NUMBER OF SYMMETRY AOS:           83
 NUMBER OF CONTRACTIONS:           53   (  53A   )
 NUMBER OF CORE ORBITALS:           2   (   2A   )
 NUMBER OF VALENCE ORBITALS:       13   (  13A   )


 NUCLEAR REPULSION ENERGY   36.86300145


 Eigenvalues of metric

         1 0.525E-02 0.232E-01 0.271E-01 0.397E-01 0.503E-01 0.635E-01 0.102E+00 0.110E+00


 Contracted 2-electron integrals neglected if value below      1.0D-11
 AO integral compression algorithm  1   Integral accuracy      1.0D-11

     5.243 MB (compressed) written to integral file ( 52.3%)


 NUMBER OF SORTED TWO-ELECTRON INTEGRALS:    1024596.     BUFFER LENGTH:  32768
 NUMBER OF SEGMENTS:   1  SEGMENT LENGTH:    1024596      RECORD LENGTH: 524288

 Memory used in sort:       1.58 MW

 SORT1 READ     1206537. AND WROTE      940164. INTEGRALS IN      3 RECORDS. CPU TIME:     0.01 SEC, REAL TIME:     0.03 SEC
 SORT2 READ      940164. AND WROTE     1024596. INTEGRALS IN     20 RECORDS. CPU TIME:     0.06 SEC, REAL TIME:     0.07 SEC

 FILE SIZES:   FILE 1:    35.4 MBYTE,  FILE 4:    12.6 MBYTE,   TOTAL:     48.0 MBYTE

 OPERATOR DM      FOR CENTER  0  COORDINATES:    0.000000    0.000000    0.000000


 **********************************************************************************************************************************
 DATASETS  * FILE   NREC   LENGTH (MB)   RECORD NAMES
              1      19       34.42       500      610      700      900      950      970     1000      129      960     1100   
                                          VAR    BASINP    GEOM    SYMINP    ZMAT    AOBASIS   BASIS     P2S    ABASIS      S 
                                         1400     1410     1200     1210     1080     1600     1650     1300     1700   
                                           T        V       H0       H01     AOSYM     SMH    MOLCAS    ERIS     OPER   

 PROGRAMS   *        TOTAL       INT
 CPU TIMES  *         0.66      0.51
 REAL TIME  *         1.00 SEC
 DISK USED  *        48.39 MB      
 **********************************************************************************************************************************

 Density functional group M05-2X=XC-M05-2X
 Functional: XC-M05-2X(via MFM 1.6)                                            Gradient terms: 1
 Use grid at  1800.2


 Exact exchange will be calculated, factor:  0.5600

 Functional: XC-M05-2X                 Factor:  1.0000

 Generated new metagrid on record  1800.2 with target accuracy 1.0D-06 and 23794 points in CPU time    0.5
 Computed new grid on record 1800.1 in CPU time    0.6
   46013 words reserved for DFT integration

 PROGRAM * UKS-SCF (Unrestricted Kohn-Sham)     Authors: W. Meyer, H.-J. Werner, P.J. Knowles, 1993

 NUMBER OF ELECTRONS:       9+    8-    SPACE SYMMETRY=1    SPIN SYMMETRY: Doublet 
 CONVERGENCE THRESHOLDS:    1.00E-05 (Density)    1.00E-06 (Energy)
 MAX. NUMBER OF ITERATIONS:       60
 INTERPOLATION TYPE:            DIIS
 INTERPOLATION STEPS:              2 (START)      1 (STEP)
 LEVEL SHIFTS:                 -0.20 (ALPHA)  -0.20 (BETA) 



 Use fine grid record 1800.2 for energy threshold  1.0D-06
 Orbital guess generated from atomic densities. Full valence occupancy:    9

 Molecular orbital dump at record        2200.2

 Initial alpha occupation   9
 Initial beta  occupation   8

 ITERATION    DDIFF          GRAD             ENERGY        2-EL.EN.            DIPOLE MOMENTS         DIIS
    1      0.000D+00      0.000D+00       -79.05224795    138.412843   -0.11674   -0.32714    0.00000    0
    2      0.864D-02      0.498D-02       -79.09095547    134.851937   -0.07272   -0.20631    0.00000    1
    3      0.200D-02      0.138D-02       -79.09462461    135.403991   -0.06970   -0.17551    0.00000    2
    4      0.137D-02      0.541D-03       -79.09606573    135.376460   -0.06329   -0.14046    0.00000    3
    5      0.578D-03      0.220D-03       -79.09629046    135.367863   -0.06058   -0.12614    0.00000    4
    6      0.249D-03      0.851D-04       -79.09631813    135.367164   -0.05939   -0.12061    0.00000    5
    7      0.740D-04      0.271D-04       -79.09630154    135.367837   -0.05911   -0.11900    0.00000    6
    8      0.176D-04      0.495D-05       -79.09629787    135.368238   -0.05907   -0.11906    0.00000    7
    9      0.382D-05      0.115D-05       -79.09629801    135.368174   -0.05909   -0.11912    0.00000    6
   10      0.136D-05      0.393D-06       -79.09629865    135.368267   -0.05909   -0.11914    0.00000    6

 Final alpha occupancy:   9
 Final beta  occupancy:   8

 !UKS STATE 1.1 Energy                -79.096298650625
 Nuclear energy                        36.86300145
 One-electron energy                 -177.76184431
 Two-electron energy                   67.68413349
 Density functional                    -5.88158927     XC-M05-2X=-5.88158927
 Virial quotient                       -1.01374823
 !UKS STATE 1.1 Dipole moment          -0.05908574    -0.11913629     0.00000000
 Dipole moment /Debye                  -0.15017115    -0.30279442     0.00000000

 Orbital energies for positive spin:

         1.1          2.1          3.1          4.1          5.1          6.1          7.1          8.1          9.1         10.1
    -10.578073   -10.575296    -0.850358    -0.690462    -0.525111    -0.485097    -0.460786    -0.423070    -0.256026     0.127548

        11.1
      0.161167

 Orbital energies for negative spin:

         1.1          2.1          3.1          4.1          5.1          6.1          7.1          8.1          9.1         10.1
    -10.575833   -10.565574    -0.832890    -0.664868    -0.516547    -0.464916    -0.450348    -0.416183    -0.008341     0.123518

        11.1
      0.163917

 HOMO      9.1    -0.256026 =      -6.9668eV
 LUMO     -9.1    -0.008341 =      -0.2270eV
 LUMO-HOMO         0.247685 =       6.7398eV

 EXPECTATION VALUE OF S**2:             0.75314395

 Occupation number threshold for canonical orbitals:  1.999000 (occupied),  0.001000 (virtual)

 Number of pseudo-canonical orbitals per symmetry:    8
 Number of active natural orbitals per symmetry:      1

 Natural orbitals saved to record    2200.2 (Orbital set 3)

 Orbital spaces for UNO-CAS (Min. occupation: 0.020  Max. occupation: 1.980):

 Closed:        8
 Active:        1


 **********************************************************************************************************************************
 DATASETS  * FILE   NREC   LENGTH (MB)   RECORD NAMES
              1      20       35.18       500      610      700      900      950      970     1000      129      960     1100   
                                          VAR    BASINP    GEOM    SYMINP    ZMAT    AOBASIS   BASIS     P2S    ABASIS      S 
                                         1400     1410     1200     1210     1080     1600     1650     1300     1700     1800   
                                           T        V       H0       H01     AOSYM     SMH    MOLCAS    ERIS     OPER     GRID   

              2       5        2.98       700     1000      520     1800     2200   
                                         GEOM     BASIS   MCVARS    GRID      UKS  

 PROGRAMS   *        TOTAL       UKS       INT
 CPU TIMES  *         9.19      8.53      0.51
 REAL TIME  *         9.93 SEC
 DISK USED  *        48.39 MB      
 **********************************************************************************************************************************


 PROGRAM * Intrinsic Basis Bonding Analysis (IBBA)          Author: G. Knizia

 Molecular orbitals read from record     2200.2  Type=UKS/ALPHA (state 1.1)
 Fock matrix read from record            2200.2  Type=UKS/TOTAL (state 1.1)
 Orbital energies read from record       2200.2  Type=UKS/ALPHA (state 1.1)
 Density matrix read from record         2200.2  Type=UKS/CHARGE (state 1.1)

 Number of core orbitals:           2 (   2 )
 Number of closed-shell orbitals:   6 (   6 )
 Number of active  orbitals:        1 (   1 )

 Basis set MINAO-AUTO-PP generated.      Number of basis functions:   15 

 Polarized AO type:                A = (O Ot + (1-O)(1-Ot)) P12
 Orthogonalization method:         Symmetric (Loewdin)
 Localization functional:          L = sum[A,i] <i|n_A|i>^4 -> max

 Localization group 1:   8 orbitals, occupancy  2.000
 Iterative localization: IB/PM,    6 iter; Final gradient 0.55E-08

 Bond order analysis:       [THRPRINT= 0.020]

   CEN ATOM   CEN ATOM     WIBERG.BO      RENORM.BO
     1   C  -   2   C       1.244700       2.017711
     1   C  -   5   H       0.958848       0.984960
     1   C  -   4   H       0.958848       0.984960
     1   C  -   3   H       0.097470       0.618161
     1   C  -   6   H       0.022996       0.129864
     1   C  -   7   H       0.022996       0.129864

     2   C  -   1   C       1.244700       2.017711
     2   C  -   7   H       0.932959       0.989899
     2   C  -   6   H       0.932959       0.989899
     2   C  -   3   H       0.836608       0.998752

     3   H  -   2   C       0.836608       0.998752
     3   H  -   1   C       0.097470       0.618161

     4   H  -   1   C       0.958848       0.984960

     5   H  -   1   C       0.958848       0.984960

     6   H  -   2   C       0.932959       0.989899
     6   H  -   1   C       0.022996       0.129864

     7   H  -   2   C       0.932959       0.989899
     7   H  -   1   C       0.022996       0.129864


 Valency analysis:

   CEN ATOM   TOT.VALENCE
     1   C       3.305858
     2   C       3.949570
     3   H       0.948083
     4   H       0.972714
     5   H       0.972714
     6   H       0.973968
     7   H       0.973968
 Localization group 2:   1 orbitals, occupancy  1.000
 Iterative localization: IB/PM,    1 iter; Final gradient 0.00E+00

 Bond order analysis:       [THRPRINT= 0.020]

   CEN ATOM   CEN ATOM     WIBERG.BO      RENORM.BO
     1   C  -   3   H       0.122128       0.500000
     1   C  -   2   C       0.037653       0.500000
     1   C  -   6   H       0.026840       0.500000
     1   C  -   7   H       0.026840       0.500000

     2   C  -   1   C       0.037653       0.500000

     3   H  -   1   C       0.122128       0.500000



     6   H  -   1   C       0.026840       0.500000

     7   H  -   1   C       0.026840       0.500000


 Valency analysis:

   CEN ATOM   TOT.VALENCE
     1   C       0.214668
     2   C       0.041979
     3   H       0.129463
     4   H       0.000687
     5   H       0.000687
     6   H       0.030112
     7   H       0.030112

 Total charge composition:

   CEN ATOM         s          p       ELECTRONS ->P.CHARGE
     1   C       3.07737    3.35944      6.43681   -0.43681
     2   C       2.99690    3.34636      6.34326   -0.34326
     3   H       0.84172                 0.84172    0.15828
     4   H       0.83516                 0.83516    0.16484
     5   H       0.83516                 0.83516    0.16484
     6   H       0.85395                 0.85395    0.14605
     7   H       0.85395                 0.85395    0.14605

 Total charge composition, AO contributions:

   CEN ATOM SHL      SPHERICAL COMPONENTS
     1   C  1s       1.99197
     1   C  2s       1.08540
     1   C  2p       1.07896    1.08841    1.19207

     2   C  1s       1.99050
     2   C  2s       1.00639
     2   C  2p       1.12593    1.05043    1.17001

     3   H  1s       0.84172

     4   H  1s       0.83516

     5   H  1s       0.83516

     6   H  1s       0.85395

     7   H  1s       0.85395

 Active orbital charges:

   CEN ATOM         s          p       ELECTRONS ->SPIN.DEN
     1   C       0.00228    0.87543      0.87771    0.87771
     2   C       0.00005    0.02140      0.02145    0.02145
     3   H       0.06957                 0.06957    0.06957
     4   H       0.00034                 0.00034    0.00034
     5   H       0.00034                 0.00034    0.00034
     6   H       0.01529                 0.01529    0.01529
     7   H       0.01529                 0.01529    0.01529

 Active orbital charges, AO contributions:

   CEN ATOM SHL      SPHERICAL COMPONENTS
     1   C  1s       0.00000
     1   C  2s       0.00228
     1   C  2p       0.87171    0.00371    0.00000

     2   C  1s       0.00000
     2   C  2s       0.00005
     2   C  2p       0.02121    0.00019    0.00000

     3   H  1s       0.06957

     4   H  1s       0.00034

     5   H  1s       0.00034

     6   H  1s       0.01529

     7   H  1s       0.01529

 Summary of localized orbital composition:   [THRPRINT= 0.020]

   ORB  GRP  ORB.ENERGY      CENTERS/CHARGES
     1   1   -10.461668      C  1   2.000
     2   1   -10.456539      C  2   2.000
     3   1    -0.688705      C  1   1.020   C  2   0.976
     4   1    -0.600678      C  1   1.165   H  4   0.829
     5   1    -0.600678      C  1   1.165   H  5   0.829
     6   1    -0.575965      C  2   1.089   H  3   0.767   C  1   0.141
     7   1    -0.574162      C  2   1.126   H  7   0.834   C  1   0.034
     8   1    -0.574162      C  2   1.126   H  6   0.834   C  1   0.034
     9   2    -0.125965      C  1   0.878   H  3   0.070   C  2   0.021   (other: 0.031)

 Localized orbitals saved to record      2200.2  (orbital set 4)


 **********************************************************************************************************************************
 DATASETS  * FILE   NREC   LENGTH (MB)   RECORD NAMES
              1      20       35.18       500      610      700      900      950      970     1000      129      960     1100   
                                          VAR    BASINP    GEOM    SYMINP    ZMAT    AOBASIS   BASIS     P2S    ABASIS      S 
                                         1400     1410     1200     1210     1080     1600     1650     1300     1700     1800   
                                           T        V       H0       H01     AOSYM     SMH    MOLCAS    ERIS     OPER     GRID   

              2       5        3.00       700     1000      520     1800     2200   
                                         GEOM     BASIS   MCVARS    GRID      UKS  

 PROGRAMS   *        TOTAL      IBBA       UKS       INT
 CPU TIMES  *         9.21      0.02      8.53      0.51
 REAL TIME  *        10.00 SEC
 DISK USED  *        48.39 MB      
 **********************************************************************************************************************************
 Molecular orbitals read from record     2200.2  Type=UKS/LOCAL(IBO)  
 Occupation numbers read from record     2200.2  Type=UKS/LOCAL(IBO)  
 Orbital energies read from record       2200.2  Type=UKS/LOCAL(IBO)  
 Redundancy group numbers read from rec  2200.2  Type=UKS/BETA (state 1.1)

 IBBA/SVP energy=      0.000000000000

        UKS-SCF 
    -79.09629865
 **********************************************************************************************************************************
 Molpro calculation terminated
