
 Primary working directories    : /tmp/sb13343
 Secondary working directories  : /tmp/sb13343
 Wavefunction directory         : /panfs/panasas01/chem/sb13343/wfu/
 Main file repository           : /tmp/sb13343/

 SHA1      : b4a5b34a9e711420743f49e6833241d17c61fb3c
 NAME      : 2099.9.b4a5b34
 ARCHNAME  : linux/x86_64_openmp
 FC        : /cm/shared/languages/GCC-6.1/bin/gfortran
 BLASLIB   : -lblas
 id        : simonbennie

 Nodes     nprocs
 node35-048    1

 Using customized tuning parameters: mindgm=1; mindgv=20; mindgc=4; mindgr=1; noblas=0; minvec=7
 default implementation of scratch files=df  

 memory,500,m
 geomtyp=xyz
 nosym
 noorient
 geometry={
 C         -0.00146        0.79548        0.00000
 C          0.02225       -0.69390        0.00000
 H         -0.99481       -1.12636        0.00000
 H         -0.09300        1.35197        0.92746
 H         -0.09300        1.35197       -0.92746
 H          0.52802       -1.09351        0.88764
 H          0.52802       -1.09351       -0.88764
 }
 basis={ default,svp }
 {uks,PBE0MOL,direct;wf,17,1,1}
 {ibba,bonds=1}

 Variables initialized (895), CPU time= 0.00 sec
 Commands  initialized (725), CPU time= 0.01 sec, 591 directives.
 Default parameters read. Elapsed time= 0.09 sec

 Checking input...
 Passed
1


                                         ***  PROGRAM SYSTEM MOLPRO  ***
                                       Copyright, TTI GmbH Stuttgart, 2015
                                    Version 2099.9 linked May 26 2017 16:03:21


 **********************************************************************************************************************************
 LABEL *                                                                                 
  64 bit serial version                                                                  DATE: 08-Jun-17          TIME: 05:01:33  
 **********************************************************************************************************************************

 SHA1:             b4a5b34a9e711420743f49e6833241d17c61fb3c
 **********************************************************************************************************************************
 SETTING GEOMTYP        =    XYZ

 Variable memory set to  500000000 words,  buffer space 

 ZSYMEL=NOSYM

 SETTING BASIS          =    SVP


 Recomputing integrals since basis changed


 Using spherical harmonics

 Library entry C      S def2-SVP             selected for orbital group  1
 Library entry C      P def2-SVP             selected for orbital group  1
 Library entry C      D def2-SVP             selected for orbital group  1
 Library entry H      S def2-SVP             selected for orbital group  2
 Library entry H      P def2-SVP             selected for orbital group  2


 PROGRAM * SEWARD (Integral evaluation for generally contracted gaussian basis sets)     Author: Roland Lindh, 1990

 Geometry written to block  1 of record 700


 Point group  C1  



 ATOMIC COORDINATES

 NR  ATOM    CHARGE       X              Y              Z

   1  C       6.00   -0.002759000    1.503239338    0.000000000
   2  C       6.00    0.042046406   -1.311280958    0.000000000
   3  H       1.00   -1.879918446   -2.128511918    0.000000000
   4  H       1.00   -0.175744530    2.554853029    1.752645391
   5  H       1.00   -0.175744530    2.554853029   -1.752645391
   6  H       1.00    0.997813188   -2.066434414    1.677396497
   7  H       1.00    0.997813188   -2.066434414   -1.677396497

 Bond lengths in Bohr (Angstrom)

 1-2  2.814876910  1-4  2.051238947  1-5  2.051238947  2-3  2.088495950  2-6  2.073018546
     ( 1.489568712)     ( 1.085468905)     ( 1.085468905)     ( 1.105184462)     ( 1.096994173)

 2-7  2.073018546
     ( 1.096994173)

 Bond angles

  1-2-3  112.12345176   1-2-6  111.81246303   1-2-7  111.81246303   2-1-4  120.92728687

  2-1-5  120.92728687   3-2-6  106.36442052   3-2-7  106.36442052   4-1-5  117.39421083

  6-2-7  108.02720793

 NUCLEAR CHARGE:                   17
 NUMBER OF PRIMITIVE AOS:          85
 NUMBER OF SYMMETRY AOS:           83
 NUMBER OF CONTRACTIONS:           53   (  53A   )
 NUMBER OF CORE ORBITALS:           2   (   2A   )
 NUMBER OF VALENCE ORBITALS:       13   (  13A   )


 NUCLEAR REPULSION ENERGY   36.86300145


 Eigenvalues of metric

         1 0.525E-02 0.232E-01 0.271E-01 0.397E-01 0.503E-01 0.635E-01 0.102E+00 0.110E+00


 Contracted 2-electron integrals neglected if value below      1.0D-11
 AO integral compression algorithm  1   Integral accuracy      1.0D-11

     5.243 MB (compressed) written to integral file ( 52.3%)


 NUMBER OF SORTED TWO-ELECTRON INTEGRALS:    1024596.     BUFFER LENGTH:  32768
 NUMBER OF SEGMENTS:   1  SEGMENT LENGTH:    1024596      RECORD LENGTH: 524288

 Memory used in sort:       1.58 MW

 SORT1 READ     1206537. AND WROTE      940164. INTEGRALS IN      3 RECORDS. CPU TIME:     0.02 SEC, REAL TIME:     0.03 SEC
 SORT2 READ      940164. AND WROTE     1024596. INTEGRALS IN     20 RECORDS. CPU TIME:     0.05 SEC, REAL TIME:     0.08 SEC

 FILE SIZES:   FILE 1:    35.4 MBYTE,  FILE 4:    12.6 MBYTE,   TOTAL:     48.0 MBYTE

 OPERATOR DM      FOR CENTER  0  COORDINATES:    0.000000    0.000000    0.000000


 **********************************************************************************************************************************
 DATASETS  * FILE   NREC   LENGTH (MB)   RECORD NAMES
              1      19       34.42       500      610      700      900      950      970     1000      129      960     1100   
                                          VAR    BASINP    GEOM    SYMINP    ZMAT    AOBASIS   BASIS     P2S    ABASIS      S 
                                         1400     1410     1200     1210     1080     1600     1650     1300     1700   
                                           T        V       H0       H01     AOSYM     SMH    MOLCAS    ERIS     OPER   

 PROGRAMS   *        TOTAL       INT
 CPU TIMES  *         0.54      0.40
 REAL TIME  *         1.20 SEC
 DISK USED  *        48.39 MB      
 **********************************************************************************************************************************

 Density functional group PBE0MOL=PBEX+PW91C
 Functional: PBEX(Automatically generated (new) PBEX)                          Gradient terms: 1
 Functional: PW91C(Automatically generated (new) PW91C)                        Gradient terms: 1
 Use grid at  1800.2


 Exact exchange will be calculated, factor:  0.2500

 Functional: PBEX                      Factor:  0.7500
 Functional: PW91C                     Factor:  1.0000

 Generated new metagrid on record  1800.2 with target accuracy 1.0D-06 and 23794 points in CPU time    0.5
 Computed new grid on record 1800.1 in CPU time    0.6
   46013 words reserved for DFT integration

 PROGRAM * UKS-SCF (Unrestricted Kohn-Sham)     Authors: W. Meyer, H.-J. Werner, P.J. Knowles, 1993

 NUMBER OF ELECTRONS:       9+    8-    SPACE SYMMETRY=1    SPIN SYMMETRY: Doublet 
 CONVERGENCE THRESHOLDS:    1.00E-05 (Density)    1.00E-06 (Energy)
 MAX. NUMBER OF ITERATIONS:       60
 INTERPOLATION TYPE:            DIIS
 INTERPOLATION STEPS:              2 (START)      1 (STEP)
 LEVEL SHIFTS:                 -0.20 (ALPHA)  -0.20 (BETA) 



 Use fine grid record 1800.2 for energy threshold  1.0D-06
 Orbital guess generated from atomic densities. Full valence occupancy:    9

 Molecular orbital dump at record        2200.2

 Initial alpha occupation   9
 Initial beta  occupation   8

 ITERATION    DDIFF          GRAD             ENERGY        2-EL.EN.            DIPOLE MOMENTS         DIIS
    1      0.000D+00      0.000D+00       -78.96086440    147.361594   -0.11105   -0.27160    0.00000    0
    2      0.120D-01      0.643D-02       -79.02254652    141.931634   -0.06297   -0.16361    0.00000    1
    3      0.328D-02      0.216D-02       -79.02863259    142.963324   -0.06530   -0.14680    0.00000    2
    4      0.136D-02      0.429D-03       -79.02936831    142.913268   -0.06067   -0.12512    0.00000    3
    5      0.678D-03      0.214D-03       -79.02954601    142.897877   -0.05724   -0.11044    0.00000    4
    6      0.211D-03      0.723D-04       -79.02957646    142.900905   -0.05572   -0.10517    0.00000    5
    7      0.556D-04      0.277D-04       -79.02957935    142.899701   -0.05520   -0.10334    0.00000    6
    8      0.192D-04      0.589D-05       -79.02957948    142.900210   -0.05508   -0.10332    0.00000    7
    9      0.337D-05      0.113D-05       -79.02957948    142.900095   -0.05508   -0.10335    0.00000    6
   10      0.127D-05      0.441D-06       -79.02957948    142.900185   -0.05507   -0.10337    0.00000    7

 Final alpha occupancy:   9
 Final beta  occupancy:   8

 !UKS STATE 1.1 Energy                -79.029579484175
 Nuclear energy                        36.86300145
 One-electron energy                 -177.77485407
 Two-electron energy                   71.45009233
 Density functional                    -9.56781920     PBEX=-12.01005876 PW91C= -0.56027512
 Virial quotient                       -1.01258222
 !UKS STATE 1.1 Dipole moment          -0.05507392    -0.10336909     0.00000000
 Dipole moment /Debye                  -0.13997478    -0.26272081     0.00000000

 Orbital energies for positive spin:

         1.1          2.1          3.1          4.1          5.1          6.1          7.1          8.1          9.1         10.1
    -10.242114   -10.234601    -0.770149    -0.619070    -0.461813    -0.425353    -0.404470    -0.366248    -0.217230     0.085373

        11.1
      0.115574

 Orbital energies for negative spin:

         1.1          2.1          3.1          4.1          5.1          6.1          7.1          8.1          9.1         10.1
    -10.235762   -10.226234    -0.751399    -0.592048    -0.454489    -0.408371    -0.395752    -0.361380    -0.028909     0.088956

        11.1
      0.127516

 HOMO      9.1    -0.217230 =      -5.9111eV
 LUMO     -9.1    -0.028909 =      -0.7867eV
 LUMO-HOMO         0.188321 =       5.1245eV

 EXPECTATION VALUE OF S**2:             0.75460959

 Occupation number threshold for canonical orbitals:  1.999000 (occupied),  0.001000 (virtual)

 Number of pseudo-canonical orbitals per symmetry:    7
 Number of active natural orbitals per symmetry:      3

 Natural orbitals saved to record    2200.2 (Orbital set 3)

 Orbital spaces for UNO-CAS (Min. occupation: 0.020  Max. occupation: 1.980):

 Closed:        8
 Active:        1


 **********************************************************************************************************************************
 DATASETS  * FILE   NREC   LENGTH (MB)   RECORD NAMES
              1      20       35.18       500      610      700      900      950      970     1000      129      960     1100   
                                          VAR    BASINP    GEOM    SYMINP    ZMAT    AOBASIS   BASIS     P2S    ABASIS      S 
                                         1400     1410     1200     1210     1080     1600     1650     1300     1700     1800   
                                           T        V       H0       H01     AOSYM     SMH    MOLCAS    ERIS     OPER     GRID   

              2       5        2.98       700     1000      520     1800     2200   
                                         GEOM     BASIS   MCVARS    GRID      UKS  

 PROGRAMS   *        TOTAL       UKS       INT
 CPU TIMES  *         4.16      3.62      0.40
 REAL TIME  *         5.44 SEC
 DISK USED  *        48.39 MB      
 **********************************************************************************************************************************


 PROGRAM * Intrinsic Basis Bonding Analysis (IBBA)          Author: G. Knizia

 Molecular orbitals read from record     2200.2  Type=UKS/ALPHA (state 1.1)
 Fock matrix read from record            2200.2  Type=UKS/TOTAL (state 1.1)
 Orbital energies read from record       2200.2  Type=UKS/ALPHA (state 1.1)
 Density matrix read from record         2200.2  Type=UKS/CHARGE (state 1.1)

 Number of core orbitals:           2 (   2 )
 Number of closed-shell orbitals:   6 (   6 )
 Number of active  orbitals:        1 (   1 )

 Basis set MINAO-AUTO-PP generated.      Number of basis functions:   15 

 Polarized AO type:                A = (O Ot + (1-O)(1-Ot)) P12
 Orthogonalization method:         Symmetric (Loewdin)
 Localization functional:          L = sum[A,i] <i|n_A|i>^4 -> max

 Localization group 1:   8 orbitals, occupancy  2.000
 Iterative localization: IB/PM,    6 iter; Final gradient 0.54E-08

 Bond order analysis:       [THRPRINT= 0.020]

   CEN ATOM   CEN ATOM     WIBERG.BO      RENORM.BO
     1   C  -   2   C       1.263932       2.019651
     1   C  -   5   H       0.957292       0.983402
     1   C  -   4   H       0.957292       0.983402
     1   C  -   3   H       0.104579       0.617235
     1   C  -   6   H       0.024441       0.128584
     1   C  -   7   H       0.024441       0.128584

     2   C  -   1   C       1.263932       2.019651
     2   C  -   7   H       0.930465       0.988790
     2   C  -   6   H       0.930465       0.988790
     2   C  -   3   H       0.827237       0.998622

     3   H  -   2   C       0.827237       0.998622
     3   H  -   1   C       0.104579       0.617235

     4   H  -   1   C       0.957292       0.983402

     5   H  -   1   C       0.957292       0.983402

     6   H  -   2   C       0.930465       0.988790
     6   H  -   1   C       0.024441       0.128584

     7   H  -   2   C       0.930465       0.988790
     7   H  -   1   C       0.024441       0.128584


 Valency analysis:

   CEN ATOM   TOT.VALENCE
     1   C       3.331977
     2   C       3.954074
     3   H       0.945977
     4   H       0.971815
     5   H       0.971815
     6   H       0.973977
     7   H       0.973977
 Localization group 2:   1 orbitals, occupancy  1.000
 Iterative localization: IB/PM,    1 iter; Final gradient 0.00E+00

 Bond order analysis:       [THRPRINT= 0.020]

   CEN ATOM   CEN ATOM     WIBERG.BO      RENORM.BO
     1   C  -   3   H       0.130438       0.500000
     1   C  -   2   C       0.040695       0.500000
     1   C  -   6   H       0.028466       0.500000
     1   C  -   7   H       0.028466       0.500000

     2   C  -   1   C       0.040695       0.500000

     3   H  -   1   C       0.130438       0.500000



     6   H  -   1   C       0.028466       0.500000

     7   H  -   1   C       0.028466       0.500000


 Valency analysis:

   CEN ATOM   TOT.VALENCE
     1   C       0.229287
     2   C       0.045790
     3   H       0.138997
     4   H       0.000703
     5   H       0.000703
     6   H       0.032261
     7   H       0.032261

 Total charge composition:

   CEN ATOM         s          p       ELECTRONS ->P.CHARGE
     1   C       3.09844    3.35303      6.45147   -0.45147
     2   C       3.00413    3.32658      6.33071   -0.33071
     3   H       0.84272                 0.84272    0.15728
     4   H       0.83247                 0.83247    0.16753
     5   H       0.83247                 0.83247    0.16753
     6   H       0.85508                 0.85508    0.14492
     7   H       0.85508                 0.85508    0.14492

 Total charge composition, AO contributions:

   CEN ATOM SHL      SPHERICAL COMPONENTS
     1   C  1s       1.99213
     1   C  2s       1.10631
     1   C  2p       1.08585    1.08221    1.18497

     2   C  1s       1.99072
     2   C  2s       1.01341
     2   C  2p       1.11657    1.04641    1.16360

     3   H  1s       0.84272

     4   H  1s       0.83247

     5   H  1s       0.83247

     6   H  1s       0.85508

     7   H  1s       0.85508

 Active orbital charges:

   CEN ATOM         s          p       ELECTRONS ->SPIN.DEN
     1   C       0.00219    0.86572      0.86791    0.86791
     2   C       0.00005    0.02339      0.02344    0.02344
     3   H       0.07515                 0.07515    0.07515
     4   H       0.00035                 0.00035    0.00035
     5   H       0.00035                 0.00035    0.00035
     6   H       0.01640                 0.01640    0.01640
     7   H       0.01640                 0.01640    0.01640

 Active orbital charges, AO contributions:

   CEN ATOM SHL      SPHERICAL COMPONENTS
     1   C  1s       0.00000
     1   C  2s       0.00219
     1   C  2p       0.86207    0.00365    0.00000

     2   C  1s       0.00000
     2   C  2s       0.00005
     2   C  2p       0.02322    0.00018    0.00000

     3   H  1s       0.07515

     4   H  1s       0.00035

     5   H  1s       0.00035

     6   H  1s       0.01640

     7   H  1s       0.01640

 Summary of localized orbital composition:   [THRPRINT= 0.020]

   ORB  GRP  ORB.ENERGY      CENTERS/CHARGES
     1   1   -10.125262      C  1   2.000
     2   1   -10.119047      C  2   2.000
     3   1    -0.620286      C  1   1.023   C  2   0.975
     4   1    -0.535812      C  1   1.168   H  4   0.827
     5   1    -0.535812      C  1   1.168   H  5   0.827
     6   1    -0.511722      C  2   1.082   H  3   0.762   C  1   0.153
     7   1    -0.510342      C  2   1.122   H  6   0.834   C  1   0.036
     8   1    -0.510342      C  2   1.122   H  7   0.834   C  1   0.036
     9   2    -0.122730      C  1   0.868   H  3   0.075   C  2   0.023   (other: 0.034)

 Localized orbitals saved to record      2200.2  (orbital set 4)


 **********************************************************************************************************************************
 DATASETS  * FILE   NREC   LENGTH (MB)   RECORD NAMES
              1      20       35.18       500      610      700      900      950      970     1000      129      960     1100   
                                          VAR    BASINP    GEOM    SYMINP    ZMAT    AOBASIS   BASIS     P2S    ABASIS      S 
                                         1400     1410     1200     1210     1080     1600     1650     1300     1700     1800   
                                           T        V       H0       H01     AOSYM     SMH    MOLCAS    ERIS     OPER     GRID   

              2       5        3.00       700     1000      520     1800     2200   
                                         GEOM     BASIS   MCVARS    GRID      UKS  

 PROGRAMS   *        TOTAL      IBBA       UKS       INT
 CPU TIMES  *         4.18      0.02      3.62      0.40
 REAL TIME  *         5.53 SEC
 DISK USED  *        48.39 MB      
 **********************************************************************************************************************************
 Molecular orbitals read from record     2200.2  Type=UKS/LOCAL(IBO)  
 Occupation numbers read from record     2200.2  Type=UKS/LOCAL(IBO)  
 Orbital energies read from record       2200.2  Type=UKS/LOCAL(IBO)  
 Redundancy group numbers read from rec  2200.2  Type=UKS/BETA (state 1.1)

 IBBA/SVP energy=      0.000000000000

        UKS-SCF 
    -79.02957948
 **********************************************************************************************************************************
 Molpro calculation terminated
