
 Primary working directories    : /tmp/sb13343
 Secondary working directories  : /tmp/sb13343
 Wavefunction directory         : /panfs/panasas01/chem/sb13343/wfu/
 Main file repository           : /tmp/sb13343/

 SHA1      : b4a5b34a9e711420743f49e6833241d17c61fb3c
 NAME      : 2099.9.b4a5b34
 ARCHNAME  : linux/x86_64_openmp
 FC        : /cm/shared/languages/GCC-6.1/bin/gfortran
 BLASLIB   : -lblas
 id        : simonbennie

 Nodes     nprocs
 node35-048    1

 Using customized tuning parameters: mindgm=1; mindgv=20; mindgc=4; mindgr=1; noblas=0; minvec=7
 default implementation of scratch files=df  

 memory,500,m
 geomtyp=xyz
 nosym
 noorient
 geometry={
 C         -0.00146        0.79548        0.00000
 C          0.02225       -0.69390        0.00000
 H         -0.99481       -1.12636        0.00000
 H         -0.09300        1.35197        0.92746
 H         -0.09300        1.35197       -0.92746
 H          0.52802       -1.09351        0.88764
 H          0.52802       -1.09351       -0.88764
 }
 basis={ default,svp }
 {ks,M06-HF,direct;wf,17,1,1}
 {ibba,bonds=1}

 Variables initialized (895), CPU time= 0.00 sec
 Commands  initialized (725), CPU time= 0.01 sec, 591 directives.
 Default parameters read. Elapsed time= 0.12 sec

 Checking input...
 Passed
1


                                         ***  PROGRAM SYSTEM MOLPRO  ***
                                       Copyright, TTI GmbH Stuttgart, 2015
                                    Version 2099.9 linked May 26 2017 16:03:21


 **********************************************************************************************************************************
 LABEL *                                                                                 
  64 bit serial version                                                                  DATE: 08-Jun-17          TIME: 05:05:49  
 **********************************************************************************************************************************

 SHA1:             b4a5b34a9e711420743f49e6833241d17c61fb3c
 **********************************************************************************************************************************
 SETTING GEOMTYP        =    XYZ

 Variable memory set to  500000000 words,  buffer space 

 ZSYMEL=NOSYM

 SETTING BASIS          =    SVP


 Recomputing integrals since basis changed


 Using spherical harmonics

 Library entry C      S def2-SVP             selected for orbital group  1
 Library entry C      P def2-SVP             selected for orbital group  1
 Library entry C      D def2-SVP             selected for orbital group  1
 Library entry H      S def2-SVP             selected for orbital group  2
 Library entry H      P def2-SVP             selected for orbital group  2


 PROGRAM * SEWARD (Integral evaluation for generally contracted gaussian basis sets)     Author: Roland Lindh, 1990

 Geometry written to block  1 of record 700


 Point group  C1  



 ATOMIC COORDINATES

 NR  ATOM    CHARGE       X              Y              Z

   1  C       6.00   -0.002759000    1.503239338    0.000000000
   2  C       6.00    0.042046406   -1.311280958    0.000000000
   3  H       1.00   -1.879918446   -2.128511918    0.000000000
   4  H       1.00   -0.175744530    2.554853029    1.752645391
   5  H       1.00   -0.175744530    2.554853029   -1.752645391
   6  H       1.00    0.997813188   -2.066434414    1.677396497
   7  H       1.00    0.997813188   -2.066434414   -1.677396497

 Bond lengths in Bohr (Angstrom)

 1-2  2.814876910  1-4  2.051238947  1-5  2.051238947  2-3  2.088495950  2-6  2.073018546
     ( 1.489568712)     ( 1.085468905)     ( 1.085468905)     ( 1.105184462)     ( 1.096994173)

 2-7  2.073018546
     ( 1.096994173)

 Bond angles

  1-2-3  112.12345176   1-2-6  111.81246303   1-2-7  111.81246303   2-1-4  120.92728687

  2-1-5  120.92728687   3-2-6  106.36442052   3-2-7  106.36442052   4-1-5  117.39421083

  6-2-7  108.02720793

 NUCLEAR CHARGE:                   17
 NUMBER OF PRIMITIVE AOS:          85
 NUMBER OF SYMMETRY AOS:           83
 NUMBER OF CONTRACTIONS:           53   (  53A   )
 NUMBER OF CORE ORBITALS:           2   (   2A   )
 NUMBER OF VALENCE ORBITALS:       13   (  13A   )


 NUCLEAR REPULSION ENERGY   36.86300145


 Eigenvalues of metric

         1 0.525E-02 0.232E-01 0.271E-01 0.397E-01 0.503E-01 0.635E-01 0.102E+00 0.110E+00


 Contracted 2-electron integrals neglected if value below      1.0D-11
 AO integral compression algorithm  1   Integral accuracy      1.0D-11

     5.243 MB (compressed) written to integral file ( 52.3%)


 NUMBER OF SORTED TWO-ELECTRON INTEGRALS:    1024596.     BUFFER LENGTH:  32768
 NUMBER OF SEGMENTS:   1  SEGMENT LENGTH:    1024596      RECORD LENGTH: 524288

 Memory used in sort:       1.58 MW

 SORT1 READ     1206537. AND WROTE      940164. INTEGRALS IN      3 RECORDS. CPU TIME:     0.02 SEC, REAL TIME:     0.12 SEC
 SORT2 READ      940164. AND WROTE     1024596. INTEGRALS IN     20 RECORDS. CPU TIME:     0.05 SEC, REAL TIME:     0.09 SEC

 FILE SIZES:   FILE 1:    35.4 MBYTE,  FILE 4:    12.6 MBYTE,   TOTAL:     48.0 MBYTE

 OPERATOR DM      FOR CENTER  0  COORDINATES:    0.000000    0.000000    0.000000


 **********************************************************************************************************************************
 DATASETS  * FILE   NREC   LENGTH (MB)   RECORD NAMES
              1      19       34.42       500      610      700      900      950      970     1000      129      960     1100   
                                          VAR    BASINP    GEOM    SYMINP    ZMAT    AOBASIS   BASIS     P2S    ABASIS      S 
                                         1400     1410     1200     1210     1080     1600     1650     1300     1700   
                                           T        V       H0       H01     AOSYM     SMH    MOLCAS    ERIS     OPER   

 PROGRAMS   *        TOTAL       INT
 CPU TIMES  *         0.50      0.36
 REAL TIME  *         1.47 SEC
 DISK USED  *        48.39 MB      
 **********************************************************************************************************************************

 Density functional group M06-HF=XC-M06-HF
 Functional: XC-M06-HF(via MFM 1.6)                                            Gradient terms: 1
 Use grid at  1800.2


 Exact exchange will be calculated, factor:  1.0000

 Functional: XC-M06-HF                 Factor:  1.0000

 Generated new metagrid on record  1800.2 with target accuracy 1.0D-06 and 23794 points in CPU time    0.5
 Computed new grid on record 1800.1 in CPU time    0.6
   46013 words reserved for DFT integration

 PROGRAM * RKS-SCF (Restricted open shell Kohn-Sham)     Authors: W. Meyer, H.-J. Werner, P.J. Knowles, 1993

 NUMBER OF ELECTRONS:       9+    8-    SPACE SYMMETRY=1    SPIN SYMMETRY: Doublet 
 CONVERGENCE THRESHOLDS:    1.00E-05 (Density)    1.00E-06 (Energy)
 MAX. NUMBER OF ITERATIONS:       60
 INTERPOLATION TYPE:            DIIS
 INTERPOLATION STEPS:              2 (START)      1 (STEP)
 LEVEL SHIFTS:                 -0.60 (CLOSED) -0.30 (OPEN) 



 Use fine grid record 1800.2 for energy threshold  1.0D-06
 Orbital guess generated from atomic densities. Full valence occupancy:    9

 Molecular orbital dump at record        2100.2

 Initial alpha occupancy:   9
 Initial beta  occupancy:   8
 Wave function symmetry:    1

 ITERATION    DDIFF          GRAD             ENERGY        2-EL.EN.            DIPOLE MOMENTS         DIIS   ORB.
    1      0.000D+00      0.000D+00       -79.01672065    125.965375   -0.11560   -0.35942   -0.00000    0    start
    2      0.000D+00      0.618D-02       -79.04011535    124.555200   -0.08043   -0.20605    0.00000    1    diag,B
    3      0.464D-02      0.226D-02       -79.04511694    124.646285   -0.07279   -0.14539    0.00000    2    diag,B
    4      0.169D-02      0.111D-02       -79.04720773    124.633142   -0.06611   -0.09943    0.00000    3    diag,B
    5      0.168D-02      0.290D-03       -79.04740314    124.621953   -0.06373   -0.09139    0.00000    4    diag,B
    6      0.711D-03      0.947D-04       -79.04742621    124.617838   -0.06281   -0.08965    0.00000    5    diag,B
    7      0.286D-03      0.260D-04       -79.04742764    124.617009   -0.06260   -0.08964    0.00000    6    fixocc
    8      0.618D-04      0.115D-04       -79.04742801    124.617083   -0.06254   -0.08978    0.00000    7    diag,B
    9      0.380D-04      0.448D-05       -79.04742809    124.617221   -0.06254   -0.08992    0.00000    8    diag,B
   10      0.206D-04      0.172D-05       -79.04742810    124.617209   -0.06252   -0.08996    0.00000    9    orth
   11      0.106D-04      0.598D-06       -79.04742810    124.617193   -0.06250   -0.08995    0.00000    9    diag,B
   12      0.410D-05      0.171D-06       -79.04742810    124.617193   -0.06250   -0.08995    0.00000    0    orth

 Final alpha occupancy:   9
 Final beta  occupancy:   8

 !RKS STATE 1.1 Energy                -79.047428101348
 Nuclear energy                        36.86300145
 One-electron energy                 -177.70492385
 Two-electron energy                   62.30859646
 Density functional                    -0.51410215     XC-M06-HF=-0.51410215
 Virial quotient                       -1.01306003
 !RKS STATE 1.1 Dipole moment          -0.06249861    -0.08994673     0.00000000
 Dipole moment /Debye                  -0.15884522    -0.22860681     0.00000000

 Orbital energies:

         1.1          2.1          3.1          4.1          5.1          6.1          7.1          8.1          9.1         10.1
    -10.979733   -10.974866    -0.940172    -0.770538    -0.607589    -0.552477    -0.529376    -0.501285    -0.320074     0.144758

        11.1
      0.187319

 HOMO      9.1    -0.320074 =      -8.7096eV
 LUMO     10.1     0.144758 =       3.9391eV
 LUMO-HOMO         0.464832 =      12.6487eV


 **********************************************************************************************************************************
 DATASETS  * FILE   NREC   LENGTH (MB)   RECORD NAMES
              1      20       35.18       500      610      700      900      950      970     1000      129      960     1100   
                                          VAR    BASINP    GEOM    SYMINP    ZMAT    AOBASIS   BASIS     P2S    ABASIS      S 
                                         1400     1410     1200     1210     1080     1600     1650     1300     1700     1800   
                                           T        V       H0       H01     AOSYM     SMH    MOLCAS    ERIS     OPER     GRID   

              2       5        2.94       700     1000      520     1800     2100   
                                         GEOM     BASIS   MCVARS    GRID      RKS  

 PROGRAMS   *        TOTAL        KS       INT
 CPU TIMES  *        10.94     10.44      0.36
 REAL TIME  *        17.66 SEC
 DISK USED  *        48.39 MB      
 **********************************************************************************************************************************


 PROGRAM * Intrinsic Basis Bonding Analysis (IBBA)          Author: G. Knizia

 Molecular orbitals read from record     2100.2  Type=RKS/CANONICAL (state 1.1)
 Fock matrix read from record            2100.2  Type=RKS/TOTAL (state 1.1)
 Orbital energies read from record       2100.2  Type=RKS/CANONICAL (state 1.1)
 Density matrix read from record         2100.2  Type=RKS/CHARGE (state 1.1)

 Number of core orbitals:           2 (   2 )
 Number of closed-shell orbitals:   6 (   6 )
 Number of active  orbitals:        1 (   1 )

 Basis set MINAO-AUTO-PP generated.      Number of basis functions:   15 

 Polarized AO type:                A = (O Ot + (1-O)(1-Ot)) P12
 Orthogonalization method:         Symmetric (Loewdin)
 Localization functional:          L = sum[A,i] <i|n_A|i>^4 -> max

 Localization group 1:   8 orbitals, occupancy  2.000
 Iterative localization: IB/PM,    6 iter; Final gradient 0.40E-08

 Bond order analysis:       [THRPRINT= 0.020]

   CEN ATOM   CEN ATOM     WIBERG.BO      RENORM.BO
     1   C  -   2   C       1.087650       2.015661
     1   C  -   5   H       0.969027       0.986971
     1   C  -   4   H       0.969027       0.986971
     1   C  -   3   H       0.034469       0.646687

     2   C  -   1   C       1.087650       2.015661
     2   C  -   6   H       0.956352       0.991702
     2   C  -   7   H       0.956352       0.991702
     2   C  -   3   H       0.930668       0.999133

     3   H  -   2   C       0.930668       0.999133
     3   H  -   1   C       0.034469       0.646687

     4   H  -   1   C       0.969027       0.986971

     5   H  -   1   C       0.969027       0.986971

     6   H  -   2   C       0.956352       0.991702

     7   H  -   2   C       0.956352       0.991702


 Valency analysis:

   CEN ATOM   TOT.VALENCE
     1   C       3.077447
     2   C       3.934010
     3   H       0.972439
     4   H       0.982525
     5   H       0.982525
     6   H       0.979623
     7   H       0.979623
 Localization group 2:   1 orbitals, occupancy  1.000
 Iterative localization: IB/PM,    1 iter; Final gradient 0.00E+00

 Bond order analysis:       [THRPRINT= 0.020]

   CEN ATOM   CEN ATOM     WIBERG.BO      RENORM.BO
     1   C  -   3   H       0.065871       0.500000


     3   H  -   1   C       0.065871       0.500000






 Valency analysis:

   CEN ATOM   TOT.VALENCE
     1   C       0.097829
     2   C       0.003231
     3   H       0.067041
     4   H       0.000414
     5   H       0.000414
     6   H       0.014707
     7   H       0.014707

 Total charge composition:

   CEN ATOM         s          p       ELECTRONS ->P.CHARGE
     1   C       3.02538    3.25390      6.27928   -0.27928
     2   C       2.98199    3.40467      6.38665   -0.38665
     3   H       0.86871                 0.86871    0.13129
     4   H       0.86801                 0.86801    0.13199
     5   H       0.86801                 0.86801    0.13199
     6   H       0.86466                 0.86466    0.13534
     7   H       0.86466                 0.86466    0.13534

 Total charge composition, AO contributions:

   CEN ATOM SHL      SPHERICAL COMPONENTS
     1   C  1s       1.99179
     1   C  2s       1.03359
     1   C  2p       1.00838    1.07168    1.17384

     2   C  1s       1.99015
     2   C  2s       0.99183
     2   C  2p       1.16229    1.06894    1.17344

     3   H  1s       0.86871

     4   H  1s       0.86801

     5   H  1s       0.86801

     6   H  1s       0.86466

     7   H  1s       0.86466

 Active orbital charges:

   CEN ATOM         s          p       ELECTRONS ->SPIN.DEN
     1   C       0.00402    0.94440      0.94843    0.94843
     2   C       0.00003    0.00159      0.00162    0.00162
     3   H       0.03473                 0.03473    0.03473
     4   H       0.00021                 0.00021    0.00021
     5   H       0.00021                 0.00021    0.00021
     6   H       0.00741                 0.00741    0.00741
     7   H       0.00741                 0.00741    0.00741

 Active orbital charges, AO contributions:

   CEN ATOM SHL      SPHERICAL COMPONENTS
     1   C  1s       0.00000
     1   C  2s       0.00402
     1   C  2p       0.94058    0.00383    0.00000

     2   C  1s       0.00000
     2   C  2s       0.00003
     2   C  2p       0.00153    0.00006    0.00000

     3   H  1s       0.03473

     4   H  1s       0.00021

     5   H  1s       0.00021

     6   H  1s       0.00741

     7   H  1s       0.00741

 Summary of localized orbital composition:   [THRPRINT= 0.020]

   ORB  GRP  ORB.ENERGY      CENTERS/CHARGES
     1   1   -10.871183      C  1   2.000
     2   1   -10.853504      C  2   2.000
     3   1    -0.771581      C  1   0.999   C  2   0.997
     4   1    -0.688634      C  1   1.133   H  5   0.863
     5   1    -0.688634      C  1   1.133   H  4   0.863
     6   1    -0.661068      C  2   1.124   H  3   0.831   C  1   0.043
     7   1    -0.660717      C  2   1.130   H  7   0.853
     8   1    -0.660717      C  2   1.130   H  6   0.853
     9   2    -0.114853      C  1   0.948   H  3   0.035

 Localized orbitals saved to record      2100.2  (orbital set 2)


 **********************************************************************************************************************************
 DATASETS  * FILE   NREC   LENGTH (MB)   RECORD NAMES
              1      20       35.18       500      610      700      900      950      970     1000      129      960     1100   
                                          VAR    BASINP    GEOM    SYMINP    ZMAT    AOBASIS   BASIS     P2S    ABASIS      S 
                                         1400     1410     1200     1210     1080     1600     1650     1300     1700     1800   
                                           T        V       H0       H01     AOSYM     SMH    MOLCAS    ERIS     OPER     GRID   

              2       5        2.96       700     1000      520     1800     2100   
                                         GEOM     BASIS   MCVARS    GRID      RKS  

 PROGRAMS   *        TOTAL      IBBA        KS       INT
 CPU TIMES  *        10.96      0.02     10.44      0.36
 REAL TIME  *        17.99 SEC
 DISK USED  *        48.39 MB      
 **********************************************************************************************************************************
 Molecular orbitals read from record     2100.2  Type=RKS/LOCAL(IBO)  
 Occupation numbers read from record     2100.2  Type=RKS/LOCAL(IBO)  
 Orbital energies read from record       2100.2  Type=RKS/LOCAL(IBO)  
 Redundancy group numbers read from rec  2100.2  Type=RKS/LOCAL(IBO)  

 IBBA/SVP energy=      0.000000000000

        KS-SCF  
    -79.04742810
 **********************************************************************************************************************************
 Molpro calculation terminated
