
 Primary working directories    : /tmp/sb13343
 Secondary working directories  : /tmp/sb13343
 Wavefunction directory         : /panfs/panasas01/chem/sb13343/wfu/
 Main file repository           : /tmp/sb13343/

 SHA1      : b4a5b34a9e711420743f49e6833241d17c61fb3c
 NAME      : 2099.9.b4a5b34
 ARCHNAME  : linux/x86_64_openmp
 FC        : /cm/shared/languages/GCC-6.1/bin/gfortran
 BLASLIB   : -lblas
 id        : simonbennie

 Nodes     nprocs
 node35-048    1

 Using customized tuning parameters: mindgm=1; mindgv=20; mindgc=4; mindgr=1; noblas=0; minvec=7
 default implementation of scratch files=df  

 memory,500,m
 geomtyp=xyz
 nosym
 noorient
 geometry={
 C          0.00000        0.00000        0.58646
 H          0.87762        0.00000        1.24716
 H         -0.87762        0.00000        1.24716
 C          0.00000       -1.27718       -0.25989
 C          0.00000        1.27718       -0.25989
 H          0.00000       -2.17596        0.36762
 H         -0.88462       -1.32219       -0.90739
 H          0.88462       -1.32219       -0.90739
 H          0.00000        2.17596        0.36762
 H          0.88462        1.32219       -0.90739
 H         -0.88462        1.32219       -0.90739
 }
 basis={ default,svp }
 {uks,B-P,direct;wf,26,1,0}
 {ibba,bonds=1}

 Variables initialized (895), CPU time= 0.00 sec
 Commands  initialized (725), CPU time= 0.02 sec, 591 directives.
 Default parameters read. Elapsed time= 0.15 sec

 Checking input...
 Passed
1


                                         ***  PROGRAM SYSTEM MOLPRO  ***
                                       Copyright, TTI GmbH Stuttgart, 2015
                                    Version 2099.9 linked May 26 2017 16:03:21


 **********************************************************************************************************************************
 LABEL *                                                                                 
  64 bit serial version                                                                  DATE: 08-Jun-17          TIME: 06:35:58  
 **********************************************************************************************************************************

 SHA1:             b4a5b34a9e711420743f49e6833241d17c61fb3c
 **********************************************************************************************************************************
 SETTING GEOMTYP        =    XYZ

 Variable memory set to  500000000 words,  buffer space 

 ZSYMEL=NOSYM

 SETTING BASIS          =    SVP


 Recomputing integrals since basis changed


 Using spherical harmonics

 Library entry C      S def2-SVP             selected for orbital group  1
 Library entry C      P def2-SVP             selected for orbital group  1
 Library entry C      D def2-SVP             selected for orbital group  1
 Library entry H      S def2-SVP             selected for orbital group  2
 Library entry H      P def2-SVP             selected for orbital group  2


 PROGRAM * SEWARD (Integral evaluation for generally contracted gaussian basis sets)     Author: Roland Lindh, 1990

 Geometry written to block  1 of record 700


 Point group  C1  



 ATOMIC COORDINATES

 NR  ATOM    CHARGE       X              Y              Z

   1  C       6.00    0.000000000    0.000000000    1.108248783
   2  H       1.00    1.658461441    0.000000000    2.356790834
   3  H       1.00   -1.658461441    0.000000000    2.356790834
   4  C       6.00    0.000000000   -2.413520412   -0.491120923
   5  C       6.00    0.000000000    2.413520412   -0.491120923
   6  H       1.00    0.000000000   -4.111968458    0.694701118
   7  H       1.00   -1.671689524   -2.498576985   -1.714718588
   8  H       1.00    1.671689524   -2.498576985   -1.714718588
   9  H       1.00    0.000000000    4.111968458    0.694701118
  10  H       1.00    1.671689524    2.498576985   -1.714718588
  11  H       1.00   -1.671689524    2.498576985   -1.714718588

 Bond lengths in Bohr (Angstrom)

 1-2  2.075897783  1-3  2.075897783  1-4  2.895352178  1-5  2.895352178  4-6  2.071448690
     ( 1.098517799)     ( 1.098517799)     ( 1.532154390)     ( 1.532154390)     ( 1.096163441)

  4- 7  2.073396183   4- 8  2.073396183   5- 9  2.071448690   5-10  2.073396183   5-11  2.073396183
       ( 1.097194010)       ( 1.097194010)       ( 1.096163441)       ( 1.097194010)       ( 1.097194010)

 Bond angles

  1-4-6  111.54675740   1-4-7  111.11159726   1-4-8  111.11159726   1-5-9  111.54675740

  1- 5-10  111.11159726   1- 5-11  111.11159726   2- 1- 3  106.05282696   2- 1- 4  109.40445441

  2-1-5  109.40445441   3-1-4  109.40445441   3-1-5  109.40445441   4-1-5  112.93744570

  6- 4- 7  107.70984506   6- 4- 8  107.70984506   7- 4- 8  107.46358962   9- 5-10  107.70984506

  9- 5-11  107.70984506  10- 5-11  107.46358962

 NUCLEAR CHARGE:                   26
 NUMBER OF PRIMITIVE AOS:         131
 NUMBER OF SYMMETRY AOS:          128
 NUMBER OF CONTRACTIONS:           82   (  82A   )
 NUMBER OF CORE ORBITALS:           3   (   3A   )
 NUMBER OF VALENCE ORBITALS:       20   (  20A   )


 NUCLEAR REPULSION ENERGY   82.25558439


 Eigenvalues of metric

         1 0.304E-02 0.671E-02 0.221E-01 0.273E-01 0.277E-01 0.357E-01 0.407E-01 0.451E-01


 Contracted 2-electron integrals neglected if value below      1.0D-11
 AO integral compression algorithm  1   Integral accuracy      1.0D-11

     24.379 MB (compressed) written to integral file ( 46.8%)


 NUMBER OF SORTED TWO-ELECTRON INTEGRALS:    5791906.     BUFFER LENGTH:  32768
 NUMBER OF SEGMENTS:   1  SEGMENT LENGTH:    5791906      RECORD LENGTH: 524288

 Memory used in sort:       6.35 MW

 SORT1 READ     6460078. AND WROTE     5119384. INTEGRALS IN     15 RECORDS. CPU TIME:     0.08 SEC, REAL TIME:     0.31 SEC
 SORT2 READ     5119384. AND WROTE     5791906. INTEGRALS IN     93 RECORDS. CPU TIME:     0.16 SEC, REAL TIME:     0.25 SEC

 FILE SIZES:   FILE 1:    54.8 MBYTE,  FILE 4:    62.9 MBYTE,   TOTAL:    117.7 MBYTE

 OPERATOR DM      FOR CENTER  0  COORDINATES:    0.000000    0.000000    0.000000


 **********************************************************************************************************************************
 DATASETS  * FILE   NREC   LENGTH (MB)   RECORD NAMES
              1      19       51.35       500      610      700      900      950      970     1000      129      960     1100   
                                          VAR    BASINP    GEOM    SYMINP    ZMAT    AOBASIS   BASIS     P2S    ABASIS      S 
                                         1400     1410     1200     1210     1080     1600     1650     1300     1700   
                                           T        V       H0       H01     AOSYM     SMH    MOLCAS    ERIS     OPER   

 PROGRAMS   *        TOTAL       INT
 CPU TIMES  *         1.24      1.09
 REAL TIME  *         2.27 SEC
 DISK USED  *       118.16 MB      
 **********************************************************************************************************************************

 Density functional group B-P=B88+P86
 Functional: B88(Automatically generated (new) B88)                            Gradient terms: 1
 Functional: P86(Automatically generated (new) P86)                            Gradient terms: 1
 Use grid at  1800.2

 Functional: B88                       Factor:  1.0000
 Functional: P86                       Factor:  1.0000

 Generated new metagrid on record  1800.2 with target accuracy 1.0D-06 and 39228 points in CPU time    0.9
 Computed new grid on record 1800.1 in CPU time    1.0
   69171 words reserved for DFT integration

 PROGRAM * UKS-SCF (Unrestricted Kohn-Sham)     Authors: W. Meyer, H.-J. Werner, P.J. Knowles, 1993

 NUMBER OF ELECTRONS:      13+   13-    SPACE SYMMETRY=1    SPIN SYMMETRY: Singlet 
 CONVERGENCE THRESHOLDS:    1.00E-05 (Density)    1.00E-06 (Energy)
 MAX. NUMBER OF ITERATIONS:       60
 INTERPOLATION TYPE:            DIIS
 INTERPOLATION STEPS:              2 (START)      1 (STEP)
 LEVEL SHIFTS:                 -0.20 (ALPHA)  -0.20 (BETA) 



 Use fine grid record 1800.2 for energy threshold  1.0D-06
 Orbital guess generated from atomic densities. Full valence occupancy:   13

 Molecular orbital dump at record        2200.2

 Initial alpha occupation  13
 Initial beta  occupation  13

 ITERATION    DDIFF          GRAD             ENERGY        2-EL.EN.            DIPOLE MOMENTS         DIIS
    1      0.000D+00      0.000D+00      -118.83025721    289.419340    0.00000    0.00000   -0.01614    0
    2      0.167D-01      0.749D-02      -119.00760719    273.843222    0.00000    0.00000   -0.00615    1
    3      0.551D-02      0.367D-02      -119.05031970    278.135937    0.00000    0.00000    0.02177    2
    4      0.130D-02      0.305D-03      -119.05097406    277.983410    0.00000    0.00000    0.01926    3
    5      0.815D-03      0.120D-03      -119.05111514    277.931077    0.00000    0.00000    0.02090    4
    6      0.361D-03      0.432D-04      -119.05113350    277.908354    0.00000    0.00000    0.02314    5
    7      0.799D-04      0.175D-04      -119.05113512    277.910076    0.00000    0.00000    0.02168    6
    8      0.211D-04      0.320D-05      -119.05113521    277.909840    0.00000    0.00000    0.02232    6
    9      0.460D-05      0.640D-06      -119.05113521    277.909970    0.00000    0.00000    0.02220    6
   10      0.889D-06      0.141D-06      -119.05113521    277.909841    0.00000    0.00000    0.02223    6

 Final alpha occupancy:  13
 Final beta  occupancy:  13

 !UKS STATE 1.1 Energy               -119.051135213706
 Nuclear energy                        82.25558439
 One-electron energy                 -321.03234940
 Two-electron energy                  138.95492028
 Density functional                   -19.22929048     B88=-18.32741881 P86= -0.90187167
 Virial quotient                       -1.01412221
 !UKS STATE 1.1 Dipole moment           0.00000000     0.00000000     0.02222674
 Dipole moment /Debye                   0.00000000     0.00000000     0.05649104

 Orbital energies for positive spin:

         1.1          2.1          3.1          4.1          5.1          6.1          7.1          8.1          9.1         10.1
     -9.907100    -9.899902    -9.899883    -0.700238    -0.607052    -0.518566    -0.406531    -0.388295    -0.353320    -0.334807

        11.1         12.1         13.1         14.1         15.1
     -0.297594    -0.295139    -0.284816     0.043664     0.089096

 Orbital energies for negative spin:

         1.1          2.1          3.1          4.1          5.1          6.1          7.1          8.1          9.1         10.1
     -9.907100    -9.899902    -9.899883    -0.700238    -0.607052    -0.518566    -0.406531    -0.388295    -0.353320    -0.334807

        11.1         12.1         13.1         14.1         15.1
     -0.297594    -0.295139    -0.284816     0.043664     0.089096

 HOMO     13.1    -0.284816 =      -7.7502eV
 LUMO     14.1     0.043664 =       1.1881eV
 LUMO-HOMO         0.328480 =       8.9384eV

 EXPECTATION VALUE OF S**2:            -0.00000000

 Natural orbitals saved to record    2200.2 (Orbital set 3)

 Orbital spaces for UNO-CAS (Min. occupation: 0.020  Max. occupation: 1.980):

 Closed:       13
 Active:        0


 **********************************************************************************************************************************
 DATASETS  * FILE   NREC   LENGTH (MB)   RECORD NAMES
              1      20       52.60       500      610      700      900      950      970     1000      129      960     1100   
                                          VAR    BASINP    GEOM    SYMINP    ZMAT    AOBASIS   BASIS     P2S    ABASIS      S 
                                         1400     1410     1200     1210     1080     1600     1650     1300     1700     1800   
                                           T        V       H0       H01     AOSYM     SMH    MOLCAS    ERIS     OPER     GRID   

              2       5        3.21       700     1000      520     1800     2200   
                                         GEOM     BASIS   MCVARS    GRID      UKS  

 PROGRAMS   *        TOTAL       UKS       INT
 CPU TIMES  *        10.92      9.68      1.09
 REAL TIME  *        54.85 SEC
 DISK USED  *       118.16 MB      
 **********************************************************************************************************************************


 PROGRAM * Intrinsic Basis Bonding Analysis (IBBA)          Author: G. Knizia

 Molecular orbitals read from record     2200.2  Type=UKS/ALPHA (state 1.1)
 Fock matrix read from record            2200.2  Type=UKS/TOTAL (state 1.1)
 Orbital energies read from record       2200.2  Type=UKS/ALPHA (state 1.1)
 Density matrix read from record         2200.2  Type=UKS/CHARGE (state 1.1)

 Number of core orbitals:           3 (   3 )
 Number of closed-shell orbitals:  10 (  10 )

 Basis set MINAO-AUTO-PP generated.      Number of basis functions:   23 

 Polarized AO type:                A = (O Ot + (1-O)(1-Ot)) P12
 Orthogonalization method:         Symmetric (Loewdin)
 Localization functional:          L = sum[A,i] <i|n_A|i>^4 -> max

 Localization group 1:  13 orbitals, occupancy  2.000
 Iterative localization: IB/PM,    7 iter; Final gradient 0.17E-08

 Bond order analysis:       [THRPRINT= 0.020]

   CEN ATOM   CEN ATOM     WIBERG.BO      RENORM.BO
     1   C  -   4   C       1.031077       1.022606
     1   C  -   5   C       1.031077       1.022606
     1   C  -   3   H       0.947849       0.967890
     1   C  -   2   H       0.947849       0.967890

     2   H  -   1   C       0.947849       0.967890

     3   H  -   1   C       0.947849       0.967890

     4   C  -   1   C       1.031077       1.022606
     4   C  -   6   H       0.963595       0.984953
     4   C  -   8   H       0.962862       0.980220
     4   C  -   7   H       0.962862       0.980220

     5   C  -   1   C       1.031077       1.022606
     5   C  -   9   H       0.963595       0.984953
     5   C  -  10   H       0.962862       0.980220
     5   C  -  11   H       0.962862       0.980220

     6   H  -   4   C       0.963595       0.984953

     7   H  -   4   C       0.962862       0.980220

     8   H  -   4   C       0.962862       0.980220

     9   H  -   5   C       0.963595       0.984953

    10   H  -   5   C       0.962862       0.980220

    11   H  -   5   C       0.962862       0.980220


 Valency analysis:

   CEN ATOM   TOT.VALENCE
     1   C       3.963178
     2   H       0.984347
     3   H       0.984347
     4   C       3.940743
     5   C       3.940743
     6   H       0.982169
     7   H       0.983495
     8   H       0.983495
     9   H       0.982169
    10   H       0.983495
    11   H       0.983495

 Total charge composition:

   CEN ATOM         s          p       ELECTRONS ->P.CHARGE
     1   C       2.98391    3.24842      6.23232   -0.23232
     2   H       0.87489                 0.87489    0.12511
     3   H       0.87489                 0.87489    0.12511
     4   C       3.02104    3.37839      6.39943   -0.39943
     5   C       3.02104    3.37839      6.39943   -0.39943
     6   H       0.86647                 0.86647    0.13353
     7   H       0.87153                 0.87153    0.12847
     8   H       0.87153                 0.87153    0.12847
     9   H       0.86647                 0.86647    0.13353
    10   H       0.87153                 0.87153    0.12847
    11   H       0.87153                 0.87153    0.12847

 Total charge composition, AO contributions:

   CEN ATOM SHL      SPHERICAL COMPONENTS
     1   C  1s       1.99151
     1   C  2s       0.99240
     1   C  2p       1.15123    1.01109    1.08609

     2   H  1s       0.87489

     3   H  1s       0.87489

     4   C  1s       1.99123
     4   C  2s       1.02981
     4   C  2p       1.15935    1.09106    1.12798

     5   C  1s       1.99123
     5   C  2s       1.02981
     5   C  2p       1.15935    1.09106    1.12798

     6   H  1s       0.86647

     7   H  1s       0.87153

     8   H  1s       0.87153

     9   H  1s       0.86647

    10   H  1s       0.87153

    11   H  1s       0.87153

 Summary of localized orbital composition:   [THRPRINT= 0.020]

   ORB  GRP  ORB.ENERGY      CENTERS/CHARGES
     1   1    -9.801331      C  1   2.000
     2   1    -9.789105      C  5   2.000
     3   1    -9.789105      C  4   2.000
     4   1    -0.501741      C  4   1.004   C  1   0.988
     5   1    -0.501741      C  5   1.004   C  1   0.988
     6   1    -0.439835      C  5   1.131   H  9   0.860
     7   1    -0.439835      C  4   1.131   H  6   0.860
     8   1    -0.439428      C  4   1.126   H  8   0.865
     9   1    -0.439428      C  5   1.126   H 11   0.865
    10   1    -0.439428      C  5   1.126   H 10   0.865
    11   1    -0.439428      C  4   1.126   H  7   0.865
    12   1    -0.436440      C  1   1.116   H  2   0.865
    13   1    -0.436440      C  1   1.116   H  3   0.865

 Localized orbitals saved to record      2200.2  (orbital set 4)


 **********************************************************************************************************************************
 DATASETS  * FILE   NREC   LENGTH (MB)   RECORD NAMES
              1      20       52.60       500      610      700      900      950      970     1000      129      960     1100   
                                          VAR    BASINP    GEOM    SYMINP    ZMAT    AOBASIS   BASIS     P2S    ABASIS      S 
                                         1400     1410     1200     1210     1080     1600     1650     1300     1700     1800   
                                           T        V       H0       H01     AOSYM     SMH    MOLCAS    ERIS     OPER     GRID   

              2       5        3.26       700     1000      520     1800     2200   
                                         GEOM     BASIS   MCVARS    GRID      UKS  

 PROGRAMS   *        TOTAL      IBBA       UKS       INT
 CPU TIMES  *        10.94      0.02      9.68      1.09
 REAL TIME  *        55.14 SEC
 DISK USED  *       118.16 MB      
 **********************************************************************************************************************************
 Molecular orbitals read from record     2200.2  Type=UKS/LOCAL(IBO)  
 Occupation numbers read from record     2200.2  Type=UKS/LOCAL(IBO)  
 Orbital energies read from record       2200.2  Type=UKS/LOCAL(IBO)  
 Redundancy group numbers read from rec  2200.2  Type=UKS/BETA (state 1.1)

 IBBA/SVP energy=      0.000000000000

        UKS-SCF 
   -119.05113521
 **********************************************************************************************************************************
 Molpro calculation terminated
