
 Primary working directories    : /tmp/sb13343
 Secondary working directories  : /tmp/sb13343
 Wavefunction directory         : /panfs/panasas01/chem/sb13343/wfu/
 Main file repository           : /tmp/sb13343/

 SHA1      : b4a5b34a9e711420743f49e6833241d17c61fb3c
 NAME      : 2099.9.b4a5b34
 ARCHNAME  : linux/x86_64_openmp
 FC        : /cm/shared/languages/GCC-6.1/bin/gfortran
 BLASLIB   : -lblas
 id        : simonbennie

 Nodes     nprocs
 node35-048    1

 Using customized tuning parameters: mindgm=1; mindgv=20; mindgc=4; mindgr=1; noblas=0; minvec=7
 default implementation of scratch files=df  

 memory,500,m
 geomtyp=xyz
 nosym
 noorient
 geometry={
 C          0.00000        0.00000        0.58646
 H          0.87762        0.00000        1.24716
 H         -0.87762        0.00000        1.24716
 C          0.00000       -1.27718       -0.25989
 C          0.00000        1.27718       -0.25989
 H          0.00000       -2.17596        0.36762
 H         -0.88462       -1.32219       -0.90739
 H          0.88462       -1.32219       -0.90739
 H          0.00000        2.17596        0.36762
 H          0.88462        1.32219       -0.90739
 H         -0.88462        1.32219       -0.90739
 }
 basis={ default,svp }
 {uks,PW91,direct;wf,26,1,0}
 {ibba,bonds=1}

 Variables initialized (895), CPU time= 0.01 sec
 Commands  initialized (725), CPU time= 0.01 sec, 591 directives.
 Default parameters read. Elapsed time= 0.19 sec

 Checking input...
 Passed
1


                                         ***  PROGRAM SYSTEM MOLPRO  ***
                                       Copyright, TTI GmbH Stuttgart, 2015
                                    Version 2099.9 linked May 26 2017 16:03:21


 **********************************************************************************************************************************
 LABEL *                                                                                 
  64 bit serial version                                                                  DATE: 08-Jun-17          TIME: 06:47:47  
 **********************************************************************************************************************************

 SHA1:             b4a5b34a9e711420743f49e6833241d17c61fb3c
 **********************************************************************************************************************************
 SETTING GEOMTYP        =    XYZ

 Variable memory set to  500000000 words,  buffer space 

 ZSYMEL=NOSYM

 SETTING BASIS          =    SVP


 Recomputing integrals since basis changed


 Using spherical harmonics

 Library entry C      S def2-SVP             selected for orbital group  1
 Library entry C      P def2-SVP             selected for orbital group  1
 Library entry C      D def2-SVP             selected for orbital group  1
 Library entry H      S def2-SVP             selected for orbital group  2
 Library entry H      P def2-SVP             selected for orbital group  2


 PROGRAM * SEWARD (Integral evaluation for generally contracted gaussian basis sets)     Author: Roland Lindh, 1990

 Geometry written to block  1 of record 700


 Point group  C1  



 ATOMIC COORDINATES

 NR  ATOM    CHARGE       X              Y              Z

   1  C       6.00    0.000000000    0.000000000    1.108248783
   2  H       1.00    1.658461441    0.000000000    2.356790834
   3  H       1.00   -1.658461441    0.000000000    2.356790834
   4  C       6.00    0.000000000   -2.413520412   -0.491120923
   5  C       6.00    0.000000000    2.413520412   -0.491120923
   6  H       1.00    0.000000000   -4.111968458    0.694701118
   7  H       1.00   -1.671689524   -2.498576985   -1.714718588
   8  H       1.00    1.671689524   -2.498576985   -1.714718588
   9  H       1.00    0.000000000    4.111968458    0.694701118
  10  H       1.00    1.671689524    2.498576985   -1.714718588
  11  H       1.00   -1.671689524    2.498576985   -1.714718588

 Bond lengths in Bohr (Angstrom)

 1-2  2.075897783  1-3  2.075897783  1-4  2.895352178  1-5  2.895352178  4-6  2.071448690
     ( 1.098517799)     ( 1.098517799)     ( 1.532154390)     ( 1.532154390)     ( 1.096163441)

  4- 7  2.073396183   4- 8  2.073396183   5- 9  2.071448690   5-10  2.073396183   5-11  2.073396183
       ( 1.097194010)       ( 1.097194010)       ( 1.096163441)       ( 1.097194010)       ( 1.097194010)

 Bond angles

  1-4-6  111.54675740   1-4-7  111.11159726   1-4-8  111.11159726   1-5-9  111.54675740

  1- 5-10  111.11159726   1- 5-11  111.11159726   2- 1- 3  106.05282696   2- 1- 4  109.40445441

  2-1-5  109.40445441   3-1-4  109.40445441   3-1-5  109.40445441   4-1-5  112.93744570

  6- 4- 7  107.70984506   6- 4- 8  107.70984506   7- 4- 8  107.46358962   9- 5-10  107.70984506

  9- 5-11  107.70984506  10- 5-11  107.46358962

 NUCLEAR CHARGE:                   26
 NUMBER OF PRIMITIVE AOS:         131
 NUMBER OF SYMMETRY AOS:          128
 NUMBER OF CONTRACTIONS:           82   (  82A   )
 NUMBER OF CORE ORBITALS:           3   (   3A   )
 NUMBER OF VALENCE ORBITALS:       20   (  20A   )


 NUCLEAR REPULSION ENERGY   82.25558439


 Eigenvalues of metric

         1 0.304E-02 0.671E-02 0.221E-01 0.273E-01 0.277E-01 0.357E-01 0.407E-01 0.451E-01


 Contracted 2-electron integrals neglected if value below      1.0D-11
 AO integral compression algorithm  1   Integral accuracy      1.0D-11

     24.379 MB (compressed) written to integral file ( 46.8%)


 NUMBER OF SORTED TWO-ELECTRON INTEGRALS:    5791906.     BUFFER LENGTH:  32768
 NUMBER OF SEGMENTS:   1  SEGMENT LENGTH:    5791906      RECORD LENGTH: 524288

 Memory used in sort:       6.35 MW

 SORT1 READ     6460078. AND WROTE     5119384. INTEGRALS IN     15 RECORDS. CPU TIME:     0.08 SEC, REAL TIME:     0.39 SEC
 SORT2 READ     5119384. AND WROTE     5791906. INTEGRALS IN     93 RECORDS. CPU TIME:     0.18 SEC, REAL TIME:     0.58 SEC

 FILE SIZES:   FILE 1:    54.8 MBYTE,  FILE 4:    62.9 MBYTE,   TOTAL:    117.7 MBYTE

 OPERATOR DM      FOR CENTER  0  COORDINATES:    0.000000    0.000000    0.000000


 **********************************************************************************************************************************
 DATASETS  * FILE   NREC   LENGTH (MB)   RECORD NAMES
              1      19       51.35       500      610      700      900      950      970     1000      129      960     1100   
                                          VAR    BASINP    GEOM    SYMINP    ZMAT    AOBASIS   BASIS     P2S    ABASIS      S 
                                         1400     1410     1200     1210     1080     1600     1650     1300     1700   
                                           T        V       H0       H01     AOSYM     SMH    MOLCAS    ERIS     OPER   

 PROGRAMS   *        TOTAL       INT
 CPU TIMES  *         1.28      1.14
 REAL TIME  *         2.79 SEC
 DISK USED  *       118.16 MB      
 **********************************************************************************************************************************

 Density functional group PW91=PW91X+PW91C
 Functional: PW91X(Automatically generated (new) PW91X)                        Gradient terms: 1
 Functional: PW91C(Automatically generated (new) PW91C)                        Gradient terms: 1
 Use grid at  1800.2

 Functional: PW91X                     Factor:  1.0000
 Functional: PW91C                     Factor:  1.0000

 Generated new metagrid on record  1800.2 with target accuracy 1.0D-06 and 39228 points in CPU time    0.9
 Computed new grid on record 1800.1 in CPU time    1.0
   69171 words reserved for DFT integration

 PROGRAM * UKS-SCF (Unrestricted Kohn-Sham)     Authors: W. Meyer, H.-J. Werner, P.J. Knowles, 1993

 NUMBER OF ELECTRONS:      13+   13-    SPACE SYMMETRY=1    SPIN SYMMETRY: Singlet 
 CONVERGENCE THRESHOLDS:    1.00E-05 (Density)    1.00E-06 (Energy)
 MAX. NUMBER OF ITERATIONS:       60
 INTERPOLATION TYPE:            DIIS
 INTERPOLATION STEPS:              2 (START)      1 (STEP)
 LEVEL SHIFTS:                 -0.20 (ALPHA)  -0.20 (BETA) 



 Use fine grid record 1800.2 for energy threshold  1.0D-06
 Orbital guess generated from atomic densities. Full valence occupancy:   13

 Molecular orbital dump at record        2200.2

 Initial alpha occupation  13
 Initial beta  occupation  13

 ITERATION    DDIFF          GRAD             ENERGY        2-EL.EN.            DIPOLE MOMENTS         DIIS
    1      0.000D+00      0.000D+00      -118.75909476    289.556874    0.00000    0.00000   -0.01662    0
    2      0.168D-01      0.753D-02      -118.93886420    273.748019    0.00000    0.00000   -0.00460    1
    3      0.555D-02      0.373D-02      -118.98302117    278.142642    0.00000    0.00000    0.02308    2
    4      0.131D-02      0.295D-03      -118.98363215    278.010295    0.00000    0.00000    0.02018    3
    5      0.780D-03      0.113D-03      -118.98375944    277.967385    0.00000    0.00000    0.02140    4
    6      0.341D-03      0.411D-04      -118.98377647    277.948796    0.00000    0.00000    0.02330    5
    7      0.774D-04      0.167D-04      -118.98377801    277.950602    0.00000    0.00000    0.02185    6
    8      0.213D-04      0.315D-05      -118.98377809    277.950350    0.00000    0.00000    0.02245    6
    9      0.449D-05      0.620D-06      -118.98377810    277.950507    0.00000    0.00000    0.02232    6
   10      0.902D-06      0.144D-06      -118.98377810    277.950356    0.00000    0.00000    0.02235    7

 Final alpha occupancy:  13
 Final beta  occupancy:  13

 !UKS STATE 1.1 Energy               -118.983778096402
 Nuclear energy                        82.25558439
 One-electron energy                 -321.05225043
 Two-electron energy                  138.97517787
 Density functional                   -19.16228992     PW91X=-18.28329613 PW91C= -0.87899380
 Virial quotient                       -1.01354903
 !UKS STATE 1.1 Dipole moment           0.00000000     0.00000000     0.02234800
 Dipole moment /Debye                   0.00000000     0.00000000     0.05679924

 Orbital energies for positive spin:

         1.1          2.1          3.1          4.1          5.1          6.1          7.1          8.1          9.1         10.1
     -9.903508    -9.896009    -9.895989    -0.698359    -0.605198    -0.516786    -0.404952    -0.386746    -0.351847    -0.333194

        11.1         12.1         13.1         14.1         15.1
     -0.296190    -0.293670    -0.283206     0.035580     0.081636

 Orbital energies for negative spin:

         1.1          2.1          3.1          4.1          5.1          6.1          7.1          8.1          9.1         10.1
     -9.903508    -9.896009    -9.895989    -0.698359    -0.605198    -0.516786    -0.404952    -0.386746    -0.351847    -0.333194

        11.1         12.1         13.1         14.1         15.1
     -0.296190    -0.293670    -0.283206     0.035580     0.081636

 HOMO     13.1    -0.283206 =      -7.7064eV
 LUMO     14.1     0.035580 =       0.9682eV
 LUMO-HOMO         0.318786 =       8.6746eV

 EXPECTATION VALUE OF S**2:            -0.00000000

 Natural orbitals saved to record    2200.2 (Orbital set 3)

 Orbital spaces for UNO-CAS (Min. occupation: 0.020  Max. occupation: 1.980):

 Closed:       13
 Active:        0


 **********************************************************************************************************************************
 DATASETS  * FILE   NREC   LENGTH (MB)   RECORD NAMES
              1      20       52.60       500      610      700      900      950      970     1000      129      960     1100   
                                          VAR    BASINP    GEOM    SYMINP    ZMAT    AOBASIS   BASIS     P2S    ABASIS      S 
                                         1400     1410     1200     1210     1080     1600     1650     1300     1700     1800   
                                           T        V       H0       H01     AOSYM     SMH    MOLCAS    ERIS     OPER     GRID   

              2       5        3.21       700     1000      520     1800     2200   
                                         GEOM     BASIS   MCVARS    GRID      UKS  

 PROGRAMS   *        TOTAL       UKS       INT
 CPU TIMES  *        10.69      9.41      1.14
 REAL TIME  *        19.25 SEC
 DISK USED  *       118.16 MB      
 **********************************************************************************************************************************


 PROGRAM * Intrinsic Basis Bonding Analysis (IBBA)          Author: G. Knizia

 Molecular orbitals read from record     2200.2  Type=UKS/ALPHA (state 1.1)
 Fock matrix read from record            2200.2  Type=UKS/TOTAL (state 1.1)
 Orbital energies read from record       2200.2  Type=UKS/ALPHA (state 1.1)
 Density matrix read from record         2200.2  Type=UKS/CHARGE (state 1.1)

 Number of core orbitals:           3 (   3 )
 Number of closed-shell orbitals:  10 (  10 )

 Basis set MINAO-AUTO-PP generated.      Number of basis functions:   23 

 Polarized AO type:                A = (O Ot + (1-O)(1-Ot)) P12
 Orthogonalization method:         Symmetric (Loewdin)
 Localization functional:          L = sum[A,i] <i|n_A|i>^4 -> max

 Localization group 1:  13 orbitals, occupancy  2.000
 Iterative localization: IB/PM,    7 iter; Final gradient 0.18E-08

 Bond order analysis:       [THRPRINT= 0.020]

   CEN ATOM   CEN ATOM     WIBERG.BO      RENORM.BO
     1   C  -   4   C       1.031185       1.022635
     1   C  -   5   C       1.031185       1.022635
     1   C  -   3   H       0.947589       0.967874
     1   C  -   2   H       0.947589       0.967874

     2   H  -   1   C       0.947589       0.967874

     3   H  -   1   C       0.947589       0.967874

     4   C  -   1   C       1.031185       1.022635
     4   C  -   6   H       0.963471       0.984985
     4   C  -   8   H       0.962610       0.980031
     4   C  -   7   H       0.962610       0.980031

     5   C  -   1   C       1.031185       1.022635
     5   C  -   9   H       0.963471       0.984985
     5   C  -  10   H       0.962610       0.980031
     5   C  -  11   H       0.962610       0.980031

     6   H  -   4   C       0.963471       0.984985

     7   H  -   4   C       0.962610       0.980031

     8   H  -   4   C       0.962610       0.980031

     9   H  -   5   C       0.963471       0.984985

    10   H  -   5   C       0.962610       0.980031

    11   H  -   5   C       0.962610       0.980031


 Valency analysis:

   CEN ATOM   TOT.VALENCE
     1   C       3.962918
     2   H       0.984228
     3   H       0.984228
     4   C       3.940362
     5   C       3.940362
     6   H       0.982080
     7   H       0.983400
     8   H       0.983400
     9   H       0.982080
    10   H       0.983400
    11   H       0.983400

 Total charge composition:

   CEN ATOM         s          p       ELECTRONS ->P.CHARGE
     1   C       2.98364    3.24951      6.23315   -0.23315
     2   H       0.87441                 0.87441    0.12559
     3   H       0.87441                 0.87441    0.12559
     4   C       3.02098    3.37957      6.40055   -0.40055
     5   C       3.02098    3.37957      6.40055   -0.40055
     6   H       0.86614                 0.86614    0.13386
     7   H       0.87116                 0.87116    0.12884
     8   H       0.87116                 0.87116    0.12884
     9   H       0.86614                 0.86614    0.13386
    10   H       0.87116                 0.87116    0.12884
    11   H       0.87116                 0.87116    0.12884

 Total charge composition, AO contributions:

   CEN ATOM SHL      SPHERICAL COMPONENTS
     1   C  1s       1.99156
     1   C  2s       0.99208
     1   C  2p       1.15199    1.01137    1.08615

     2   H  1s       0.87441

     3   H  1s       0.87441

     4   C  1s       1.99128
     4   C  2s       1.02970
     4   C  2p       1.16005    1.09119    1.12834

     5   C  1s       1.99128
     5   C  2s       1.02970
     5   C  2p       1.16005    1.09119    1.12834

     6   H  1s       0.86614

     7   H  1s       0.87116

     8   H  1s       0.87116

     9   H  1s       0.86614

    10   H  1s       0.87116

    11   H  1s       0.87116

 Summary of localized orbital composition:   [THRPRINT= 0.020]

   ORB  GRP  ORB.ENERGY      CENTERS/CHARGES
     1   1    -9.797827      C  1   2.000
     2   1    -9.785297      C  5   2.000
     3   1    -9.785297      C  4   2.000
     4   1    -0.500368      C  4   1.003   C  1   0.988
     5   1    -0.500368      C  5   1.003   C  1   0.988
     6   1    -0.438092      C  5   1.131   H  9   0.859
     7   1    -0.438092      C  4   1.131   H  6   0.859
     8   1    -0.437703      C  4   1.127   H  8   0.864
     9   1    -0.437703      C  5   1.127   H 11   0.864
    10   1    -0.437703      C  5   1.127   H 10   0.864
    11   1    -0.437703      C  4   1.127   H  7   0.864
    12   1    -0.434772      C  1   1.116   H  2   0.864
    13   1    -0.434772      C  1   1.116   H  3   0.864

 Localized orbitals saved to record      2200.2  (orbital set 4)


 **********************************************************************************************************************************
 DATASETS  * FILE   NREC   LENGTH (MB)   RECORD NAMES
              1      20       52.60       500      610      700      900      950      970     1000      129      960     1100   
                                          VAR    BASINP    GEOM    SYMINP    ZMAT    AOBASIS   BASIS     P2S    ABASIS      S 
                                         1400     1410     1200     1210     1080     1600     1650     1300     1700     1800   
                                           T        V       H0       H01     AOSYM     SMH    MOLCAS    ERIS     OPER     GRID   

              2       5        3.26       700     1000      520     1800     2200   
                                         GEOM     BASIS   MCVARS    GRID      UKS  

 PROGRAMS   *        TOTAL      IBBA       UKS       INT
 CPU TIMES  *        10.73      0.03      9.41      1.14
 REAL TIME  *        19.98 SEC
 DISK USED  *       118.16 MB      
 **********************************************************************************************************************************
 Molecular orbitals read from record     2200.2  Type=UKS/LOCAL(IBO)  
 Occupation numbers read from record     2200.2  Type=UKS/LOCAL(IBO)  
 Orbital energies read from record       2200.2  Type=UKS/LOCAL(IBO)  
 Redundancy group numbers read from rec  2200.2  Type=UKS/BETA (state 1.1)

 IBBA/SVP energy=      0.000000000000

        UKS-SCF 
   -118.98377810
 **********************************************************************************************************************************
 Molpro calculation terminated
