
 Primary working directories    : /tmp/sb13343
 Secondary working directories  : /tmp/sb13343
 Wavefunction directory         : /panfs/panasas01/chem/sb13343/wfu/
 Main file repository           : /tmp/sb13343/

 SHA1      : b4a5b34a9e711420743f49e6833241d17c61fb3c
 NAME      : 2099.9.b4a5b34
 ARCHNAME  : linux/x86_64_openmp
 FC        : /cm/shared/languages/GCC-6.1/bin/gfortran
 BLASLIB   : -lblas
 id        : simonbennie

 Nodes     nprocs
 node35-048    1

 Using customized tuning parameters: mindgm=1; mindgv=20; mindgc=4; mindgr=1; noblas=0; minvec=7
 default implementation of scratch files=df  

 memory,500,m
 geomtyp=xyz
 nosym
 noorient
 geometry={
 C          0.00000        0.00000        0.58646
 H          0.87762        0.00000        1.24716
 H         -0.87762        0.00000        1.24716
 C          0.00000       -1.27718       -0.25989
 C          0.00000        1.27718       -0.25989
 H          0.00000       -2.17596        0.36762
 H         -0.88462       -1.32219       -0.90739
 H          0.88462       -1.32219       -0.90739
 H          0.00000        2.17596        0.36762
 H          0.88462        1.32219       -0.90739
 H         -0.88462        1.32219       -0.90739
 }
 basis={ default,svp }
 {uks,MM05,direct;wf,26,1,0}
 {ibba,bonds=1}

 Variables initialized (895), CPU time= 0.00 sec
 Commands  initialized (725), CPU time= 0.01 sec, 591 directives.
 Default parameters read. Elapsed time= 0.15 sec

 Checking input...
 Passed
1


                                         ***  PROGRAM SYSTEM MOLPRO  ***
                                       Copyright, TTI GmbH Stuttgart, 2015
                                    Version 2099.9 linked May 26 2017 16:03:21


 **********************************************************************************************************************************
 LABEL *                                                                                 
  64 bit serial version                                                                  DATE: 08-Jun-17          TIME: 06:42:55  
 **********************************************************************************************************************************

 SHA1:             b4a5b34a9e711420743f49e6833241d17c61fb3c
 **********************************************************************************************************************************
 SETTING GEOMTYP        =    XYZ

 Variable memory set to  500000000 words,  buffer space 

 ZSYMEL=NOSYM

 SETTING BASIS          =    SVP


 Recomputing integrals since basis changed


 Using spherical harmonics

 Library entry C      S def2-SVP             selected for orbital group  1
 Library entry C      P def2-SVP             selected for orbital group  1
 Library entry C      D def2-SVP             selected for orbital group  1
 Library entry H      S def2-SVP             selected for orbital group  2
 Library entry H      P def2-SVP             selected for orbital group  2


 PROGRAM * SEWARD (Integral evaluation for generally contracted gaussian basis sets)     Author: Roland Lindh, 1990

 Geometry written to block  1 of record 700


 Point group  C1  



 ATOMIC COORDINATES

 NR  ATOM    CHARGE       X              Y              Z

   1  C       6.00    0.000000000    0.000000000    1.108248783
   2  H       1.00    1.658461441    0.000000000    2.356790834
   3  H       1.00   -1.658461441    0.000000000    2.356790834
   4  C       6.00    0.000000000   -2.413520412   -0.491120923
   5  C       6.00    0.000000000    2.413520412   -0.491120923
   6  H       1.00    0.000000000   -4.111968458    0.694701118
   7  H       1.00   -1.671689524   -2.498576985   -1.714718588
   8  H       1.00    1.671689524   -2.498576985   -1.714718588
   9  H       1.00    0.000000000    4.111968458    0.694701118
  10  H       1.00    1.671689524    2.498576985   -1.714718588
  11  H       1.00   -1.671689524    2.498576985   -1.714718588

 Bond lengths in Bohr (Angstrom)

 1-2  2.075897783  1-3  2.075897783  1-4  2.895352178  1-5  2.895352178  4-6  2.071448690
     ( 1.098517799)     ( 1.098517799)     ( 1.532154390)     ( 1.532154390)     ( 1.096163441)

  4- 7  2.073396183   4- 8  2.073396183   5- 9  2.071448690   5-10  2.073396183   5-11  2.073396183
       ( 1.097194010)       ( 1.097194010)       ( 1.096163441)       ( 1.097194010)       ( 1.097194010)

 Bond angles

  1-4-6  111.54675740   1-4-7  111.11159726   1-4-8  111.11159726   1-5-9  111.54675740

  1- 5-10  111.11159726   1- 5-11  111.11159726   2- 1- 3  106.05282696   2- 1- 4  109.40445441

  2-1-5  109.40445441   3-1-4  109.40445441   3-1-5  109.40445441   4-1-5  112.93744570

  6- 4- 7  107.70984506   6- 4- 8  107.70984506   7- 4- 8  107.46358962   9- 5-10  107.70984506

  9- 5-11  107.70984506  10- 5-11  107.46358962

 NUCLEAR CHARGE:                   26
 NUMBER OF PRIMITIVE AOS:         131
 NUMBER OF SYMMETRY AOS:          128
 NUMBER OF CONTRACTIONS:           82   (  82A   )
 NUMBER OF CORE ORBITALS:           3   (   3A   )
 NUMBER OF VALENCE ORBITALS:       20   (  20A   )


 NUCLEAR REPULSION ENERGY   82.25558439


 Eigenvalues of metric

         1 0.304E-02 0.671E-02 0.221E-01 0.273E-01 0.277E-01 0.357E-01 0.407E-01 0.451E-01


 Contracted 2-electron integrals neglected if value below      1.0D-11
 AO integral compression algorithm  1   Integral accuracy      1.0D-11

     24.379 MB (compressed) written to integral file ( 46.8%)


 NUMBER OF SORTED TWO-ELECTRON INTEGRALS:    5791906.     BUFFER LENGTH:  32768
 NUMBER OF SEGMENTS:   1  SEGMENT LENGTH:    5791906      RECORD LENGTH: 524288

 Memory used in sort:       6.35 MW

 SORT1 READ     6460078. AND WROTE     5119384. INTEGRALS IN     15 RECORDS. CPU TIME:     0.08 SEC, REAL TIME:     0.36 SEC
 SORT2 READ     5119384. AND WROTE     5791906. INTEGRALS IN     93 RECORDS. CPU TIME:     0.18 SEC, REAL TIME:     0.25 SEC

 FILE SIZES:   FILE 1:    54.8 MBYTE,  FILE 4:    62.9 MBYTE,   TOTAL:    117.7 MBYTE

 OPERATOR DM      FOR CENTER  0  COORDINATES:    0.000000    0.000000    0.000000


 **********************************************************************************************************************************
 DATASETS  * FILE   NREC   LENGTH (MB)   RECORD NAMES
              1      19       51.35       500      610      700      900      950      970     1000      129      960     1100   
                                          VAR    BASINP    GEOM    SYMINP    ZMAT    AOBASIS   BASIS     P2S    ABASIS      S 
                                         1400     1410     1200     1210     1080     1600     1650     1300     1700   
                                           T        V       H0       H01     AOSYM     SMH    MOLCAS    ERIS     OPER   

 PROGRAMS   *        TOTAL       INT
 CPU TIMES  *         1.29      1.14
 REAL TIME  *         2.34 SEC
 DISK USED  *       118.16 MB      
 **********************************************************************************************************************************

 Density functional group MM05=M05X+M05C
 Functional: M05X(Automatically generated (new) M05X)                          Gradient terms: 2
 Functional: M05C(Automatically generated (new) M05C)                          Gradient terms: 2
 Use grid at  1800.2


 Exact exchange will be calculated, factor:  0.2800

 Functional: M05X                      Factor:  0.7200
 Functional: M05C                      Factor:  1.0000

 Generated new metagrid on record  1800.2 with target accuracy 1.0D-06 and 39228 points in CPU time    0.9
 Computed new grid on record 1800.1 in CPU time    0.9
  131655 words reserved for DFT integration

 PROGRAM * UKS-SCF (Unrestricted Kohn-Sham)     Authors: W. Meyer, H.-J. Werner, P.J. Knowles, 1993

 NUMBER OF ELECTRONS:      13+   13-    SPACE SYMMETRY=1    SPIN SYMMETRY: Singlet 
 CONVERGENCE THRESHOLDS:    1.00E-05 (Density)    1.00E-06 (Energy)
 MAX. NUMBER OF ITERATIONS:       60
 INTERPOLATION TYPE:            DIIS
 INTERPOLATION STEPS:              2 (START)      1 (STEP)
 LEVEL SHIFTS:                 -0.20 (ALPHA)  -0.20 (BETA) 



 Use fine grid record 1800.2 for energy threshold  1.0D-06
 Orbital guess generated from atomic densities. Full valence occupancy:   13

 Molecular orbital dump at record        2200.2

 Initial alpha occupation  13
 Initial beta  occupation  13

 ITERATION    DDIFF          GRAD             ENERGY        2-EL.EN.            DIPOLE MOMENTS         DIIS
    1      0.000D+00      0.000D+00      -118.81070420    276.021852    0.00000    0.00000   -0.01469    0
    2      0.107D-01      0.563D-02      -118.92614858    265.590227    0.00000    0.00000   -0.00360    1
    3      0.336D-02      0.215D-02      -118.94017946    267.807271    0.00000    0.00000    0.01961    2
    4      0.165D-02      0.332D-03      -118.94115639    267.680161    0.00000    0.00000    0.02110    3
    5      0.853D-03      0.124D-03      -118.94131803    267.647562    0.00000    0.00000    0.02218    4
    6      0.209D-03      0.295D-04      -118.94132628    267.638209    0.00000    0.00000    0.02259    5
    7      0.449D-04      0.921D-05      -118.94132682    267.638261    0.00000    0.00000    0.02178    6
    8      0.146D-04      0.202D-05      -118.94132687    267.638032    0.00000    0.00000    0.02201    6
    9      0.362D-05      0.496D-06      -118.94132687    267.638301    0.00000    0.00000    0.02194    6
   10      0.834D-06      0.162D-06      -118.94132687    267.638059    0.00000    0.00000    0.02194    6

 Final alpha occupancy:  13
 Final beta  occupancy:  13

 !UKS STATE 1.1 Energy               -118.941326869830
 Nuclear energy                        82.25558439
 One-electron energy                 -321.02419443
 Two-electron energy                  133.81902957
 Density functional                   -13.99174639     M05X=-18.30493074 M05C= -0.81219626
 Virial quotient                       -1.01239963
 !UKS STATE 1.1 Dipole moment           0.00000000     0.00000000     0.02194499
 Dipole moment /Debye                   0.00000000     0.00000000     0.05577494

 Orbital energies for positive spin:

         1.1          2.1          3.1          4.1          5.1          6.1          7.1          8.1          9.1         10.1
    -10.212645   -10.205179   -10.205160    -0.791841    -0.690212    -0.592103    -0.463995    -0.443950    -0.406641    -0.387729

        11.1         12.1         13.1         14.1         15.1
     -0.347133    -0.344357    -0.334264     0.063872     0.112537

 Orbital energies for negative spin:

         1.1          2.1          3.1          4.1          5.1          6.1          7.1          8.1          9.1         10.1
    -10.212645   -10.205179   -10.205160    -0.791841    -0.690212    -0.592103    -0.463995    -0.443950    -0.406641    -0.387729

        11.1         12.1         13.1         14.1         15.1
     -0.347133    -0.344357    -0.334264     0.063872     0.112537

 HOMO     13.1    -0.334264 =      -9.0958eV
 LUMO     14.1     0.063872 =       1.7380eV
 LUMO-HOMO         0.398136 =      10.8338eV

 EXPECTATION VALUE OF S**2:             0.00000000

 Natural orbitals saved to record    2200.2 (Orbital set 3)

 Orbital spaces for UNO-CAS (Min. occupation: 0.020  Max. occupation: 1.980):

 Closed:       13
 Active:        0


 **********************************************************************************************************************************
 DATASETS  * FILE   NREC   LENGTH (MB)   RECORD NAMES
              1      20       52.60       500      610      700      900      950      970     1000      129      960     1100   
                                          VAR    BASINP    GEOM    SYMINP    ZMAT    AOBASIS   BASIS     P2S    ABASIS      S 
                                         1400     1410     1200     1210     1080     1600     1650     1300     1700     1800   
                                           T        V       H0       H01     AOSYM     SMH    MOLCAS    ERIS     OPER     GRID   

              2       5        3.21       700     1000      520     1800     2200   
                                         GEOM     BASIS   MCVARS    GRID      UKS  

 PROGRAMS   *        TOTAL       UKS       INT
 CPU TIMES  *        39.77     38.48      1.14
 REAL TIME  *        44.41 SEC
 DISK USED  *       118.16 MB      
 **********************************************************************************************************************************


 PROGRAM * Intrinsic Basis Bonding Analysis (IBBA)          Author: G. Knizia

 Molecular orbitals read from record     2200.2  Type=UKS/ALPHA (state 1.1)
 Fock matrix read from record            2200.2  Type=UKS/TOTAL (state 1.1)
 Orbital energies read from record       2200.2  Type=UKS/ALPHA (state 1.1)
 Density matrix read from record         2200.2  Type=UKS/CHARGE (state 1.1)

 Number of core orbitals:           3 (   3 )
 Number of closed-shell orbitals:  10 (  10 )

 Basis set MINAO-AUTO-PP generated.      Number of basis functions:   23 

 Polarized AO type:                A = (O Ot + (1-O)(1-Ot)) P12
 Orthogonalization method:         Symmetric (Loewdin)
 Localization functional:          L = sum[A,i] <i|n_A|i>^4 -> max

 Localization group 1:  13 orbitals, occupancy  2.000
 Iterative localization: IB/PM,    7 iter; Final gradient 0.30E-09

 Bond order analysis:       [THRPRINT= 0.020]

   CEN ATOM   CEN ATOM     WIBERG.BO      RENORM.BO
     1   C  -   4   C       1.029422       1.021470
     1   C  -   5   C       1.029422       1.021470
     1   C  -   3   H       0.950500       0.969872
     1   C  -   2   H       0.950500       0.969872

     2   H  -   1   C       0.950500       0.969872

     3   H  -   1   C       0.950500       0.969872

     4   C  -   1   C       1.029422       1.021470
     4   C  -   6   H       0.965714       0.986390
     4   C  -   8   H       0.964639       0.981478
     4   C  -   7   H       0.964639       0.981478

     5   C  -   1   C       1.029422       1.021470
     5   C  -   9   H       0.965714       0.986390
     5   C  -  11   H       0.964639       0.981478
     5   C  -  10   H       0.964639       0.981478

     6   H  -   4   C       0.965714       0.986390

     7   H  -   4   C       0.964639       0.981478

     8   H  -   4   C       0.964639       0.981478

     9   H  -   5   C       0.965714       0.986390

    10   H  -   5   C       0.964639       0.981478

    11   H  -   5   C       0.964639       0.981478


 Valency analysis:

   CEN ATOM   TOT.VALENCE
     1   C       3.964446
     2   H       0.984571
     3   H       0.984571
     4   C       3.942716
     5   C       3.942716
     6   H       0.982511
     7   H       0.983757
     8   H       0.983757
     9   H       0.982511
    10   H       0.983757
    11   H       0.983757

 Total charge composition:

   CEN ATOM         s          p       ELECTRONS ->P.CHARGE
     1   C       2.98851    3.24233      6.23084   -0.23084
     2   H       0.87579                 0.87579    0.12421
     3   H       0.87579                 0.87579    0.12421
     4   C       3.02579    3.37015      6.39593   -0.39593
     5   C       3.02579    3.37015      6.39593   -0.39593
     6   H       0.86775                 0.86775    0.13225
     7   H       0.87255                 0.87255    0.12745
     8   H       0.87255                 0.87255    0.12745
     9   H       0.86775                 0.86775    0.13225
    10   H       0.87255                 0.87255    0.12745
    11   H       0.87255                 0.87255    0.12745

 Total charge composition, AO contributions:

   CEN ATOM SHL      SPHERICAL COMPONENTS
     1   C  1s       1.99117
     1   C  2s       0.99734
     1   C  2p       1.14913    1.00957    1.08363

     2   H  1s       0.87579

     3   H  1s       0.87579

     4   C  1s       1.99089
     4   C  2s       1.03490
     4   C  2p       1.15646    1.08850    1.12519

     5   C  1s       1.99089
     5   C  2s       1.03490
     5   C  2p       1.15646    1.08850    1.12519

     6   H  1s       0.86775

     7   H  1s       0.87255

     8   H  1s       0.87255

     9   H  1s       0.86775

    10   H  1s       0.87255

    11   H  1s       0.87255

 Summary of localized orbital composition:   [THRPRINT= 0.020]

   ORB  GRP  ORB.ENERGY      CENTERS/CHARGES
     1   1   -10.103004      C  1   2.000
     2   1   -10.090228      C  4   2.000
     3   1   -10.090228      C  5   2.000
     4   1    -0.569078      C  5   1.004   C  1   0.988
     5   1    -0.569078      C  4   1.004   C  1   0.988
     6   1    -0.501385      C  4   1.129   H  6   0.862
     7   1    -0.501385      C  5   1.129   H  9   0.862
     8   1    -0.501047      C  5   1.125   H 10   0.866
     9   1    -0.501047      C  4   1.125   H  7   0.866
    10   1    -0.501047      C  5   1.125   H 11   0.866
    11   1    -0.501047      C  4   1.125   H  8   0.866
    12   1    -0.498346      C  1   1.115   H  3   0.866
    13   1    -0.498346      C  1   1.115   H  2   0.866

 Localized orbitals saved to record      2200.2  (orbital set 4)


 **********************************************************************************************************************************
 DATASETS  * FILE   NREC   LENGTH (MB)   RECORD NAMES
              1      20       52.60       500      610      700      900      950      970     1000      129      960     1100   
                                          VAR    BASINP    GEOM    SYMINP    ZMAT    AOBASIS   BASIS     P2S    ABASIS      S 
                                         1400     1410     1200     1210     1080     1600     1650     1300     1700     1800   
                                           T        V       H0       H01     AOSYM     SMH    MOLCAS    ERIS     OPER     GRID   

              2       5        3.26       700     1000      520     1800     2200   
                                         GEOM     BASIS   MCVARS    GRID      UKS  

 PROGRAMS   *        TOTAL      IBBA       UKS       INT
 CPU TIMES  *        39.80      0.02     38.48      1.14
 REAL TIME  *        44.53 SEC
 DISK USED  *       118.16 MB      
 **********************************************************************************************************************************
 Molecular orbitals read from record     2200.2  Type=UKS/LOCAL(IBO)  
 Occupation numbers read from record     2200.2  Type=UKS/LOCAL(IBO)  
 Orbital energies read from record       2200.2  Type=UKS/LOCAL(IBO)  
 Redundancy group numbers read from rec  2200.2  Type=UKS/BETA (state 1.1)

 IBBA/SVP energy=      0.000000000000

        UKS-SCF 
   -118.94132687
 **********************************************************************************************************************************
 Molpro calculation terminated
