
 Primary working directories    : /tmp/sb13343
 Secondary working directories  : /tmp/sb13343
 Wavefunction directory         : /panfs/panasas01/chem/sb13343/wfu/
 Main file repository           : /tmp/sb13343/

 SHA1      : b4a5b34a9e711420743f49e6833241d17c61fb3c
 NAME      : 2099.9.b4a5b34
 ARCHNAME  : linux/x86_64_openmp
 FC        : /cm/shared/languages/GCC-6.1/bin/gfortran
 BLASLIB   : -lblas
 id        : simonbennie

 Nodes     nprocs
 node35-048    1

 Using customized tuning parameters: mindgm=1; mindgv=20; mindgc=4; mindgr=1; noblas=0; minvec=7
 default implementation of scratch files=df  

 memory,500,m
 geomtyp=xyz
 nosym
 noorient
 geometry={
 C          0.00000        0.00000        0.58646
 H          0.87762        0.00000        1.24716
 H         -0.87762        0.00000        1.24716
 C          0.00000       -1.27718       -0.25989
 C          0.00000        1.27718       -0.25989
 H          0.00000       -2.17596        0.36762
 H         -0.88462       -1.32219       -0.90739
 H          0.88462       -1.32219       -0.90739
 H          0.00000        2.17596        0.36762
 H          0.88462        1.32219       -0.90739
 H         -0.88462        1.32219       -0.90739
 }
 basis={ default,svp }
 {ks,SOGGA11,direct;wf,26,1,0}
 {ibba,bonds=1}

 Variables initialized (895), CPU time= 0.00 sec
 Commands  initialized (725), CPU time= 0.02 sec, 591 directives.
 Default parameters read. Elapsed time= 4.87 sec

 Checking input...
 Passed
1


                                         ***  PROGRAM SYSTEM MOLPRO  ***
                                       Copyright, TTI GmbH Stuttgart, 2015
                                    Version 2099.9 linked May 26 2017 16:03:21


 **********************************************************************************************************************************
 LABEL *                                                                                 
  64 bit serial version                                                                  DATE: 08-Jun-17          TIME: 06:54:43  
 **********************************************************************************************************************************

 SHA1:             b4a5b34a9e711420743f49e6833241d17c61fb3c
 **********************************************************************************************************************************
 SETTING GEOMTYP        =    XYZ

 Variable memory set to  500000000 words,  buffer space 

 ZSYMEL=NOSYM

 SETTING BASIS          =    SVP


 Recomputing integrals since basis changed


 Using spherical harmonics

 Library entry C      S def2-SVP             selected for orbital group  1
 Library entry C      P def2-SVP             selected for orbital group  1
 Library entry C      D def2-SVP             selected for orbital group  1
 Library entry H      S def2-SVP             selected for orbital group  2
 Library entry H      P def2-SVP             selected for orbital group  2


 PROGRAM * SEWARD (Integral evaluation for generally contracted gaussian basis sets)     Author: Roland Lindh, 1990

 Geometry written to block  1 of record 700


 Point group  C1  



 ATOMIC COORDINATES

 NR  ATOM    CHARGE       X              Y              Z

   1  C       6.00    0.000000000    0.000000000    1.108248783
   2  H       1.00    1.658461441    0.000000000    2.356790834
   3  H       1.00   -1.658461441    0.000000000    2.356790834
   4  C       6.00    0.000000000   -2.413520412   -0.491120923
   5  C       6.00    0.000000000    2.413520412   -0.491120923
   6  H       1.00    0.000000000   -4.111968458    0.694701118
   7  H       1.00   -1.671689524   -2.498576985   -1.714718588
   8  H       1.00    1.671689524   -2.498576985   -1.714718588
   9  H       1.00    0.000000000    4.111968458    0.694701118
  10  H       1.00    1.671689524    2.498576985   -1.714718588
  11  H       1.00   -1.671689524    2.498576985   -1.714718588

 Bond lengths in Bohr (Angstrom)

 1-2  2.075897783  1-3  2.075897783  1-4  2.895352178  1-5  2.895352178  4-6  2.071448690
     ( 1.098517799)     ( 1.098517799)     ( 1.532154390)     ( 1.532154390)     ( 1.096163441)

  4- 7  2.073396183   4- 8  2.073396183   5- 9  2.071448690   5-10  2.073396183   5-11  2.073396183
       ( 1.097194010)       ( 1.097194010)       ( 1.096163441)       ( 1.097194010)       ( 1.097194010)

 Bond angles

  1-4-6  111.54675740   1-4-7  111.11159726   1-4-8  111.11159726   1-5-9  111.54675740

  1- 5-10  111.11159726   1- 5-11  111.11159726   2- 1- 3  106.05282696   2- 1- 4  109.40445441

  2-1-5  109.40445441   3-1-4  109.40445441   3-1-5  109.40445441   4-1-5  112.93744570

  6- 4- 7  107.70984506   6- 4- 8  107.70984506   7- 4- 8  107.46358962   9- 5-10  107.70984506

  9- 5-11  107.70984506  10- 5-11  107.46358962

 NUCLEAR CHARGE:                   26
 NUMBER OF PRIMITIVE AOS:         131
 NUMBER OF SYMMETRY AOS:          128
 NUMBER OF CONTRACTIONS:           82   (  82A   )
 NUMBER OF CORE ORBITALS:           3   (   3A   )
 NUMBER OF VALENCE ORBITALS:       20   (  20A   )


 NUCLEAR REPULSION ENERGY   82.25558439


 Eigenvalues of metric

         1 0.304E-02 0.671E-02 0.221E-01 0.273E-01 0.277E-01 0.357E-01 0.407E-01 0.451E-01


 Contracted 2-electron integrals neglected if value below      1.0D-11
 AO integral compression algorithm  1   Integral accuracy      1.0D-11

     24.379 MB (compressed) written to integral file ( 46.8%)


 NUMBER OF SORTED TWO-ELECTRON INTEGRALS:    5791906.     BUFFER LENGTH:  32768
 NUMBER OF SEGMENTS:   1  SEGMENT LENGTH:    5791906      RECORD LENGTH: 524288

 Memory used in sort:       6.35 MW

 SORT1 READ     6460078. AND WROTE     5119384. INTEGRALS IN     15 RECORDS. CPU TIME:     0.07 SEC, REAL TIME:     0.16 SEC
 SORT2 READ     5119384. AND WROTE     5791906. INTEGRALS IN     93 RECORDS. CPU TIME:     0.17 SEC, REAL TIME:     0.23 SEC

 FILE SIZES:   FILE 1:    54.8 MBYTE,  FILE 4:    62.9 MBYTE,   TOTAL:    117.7 MBYTE

 OPERATOR DM      FOR CENTER  0  COORDINATES:    0.000000    0.000000    0.000000


 **********************************************************************************************************************************
 DATASETS  * FILE   NREC   LENGTH (MB)   RECORD NAMES
              1      19       51.35       500      610      700      900      950      970     1000      129      960     1100   
                                          VAR    BASINP    GEOM    SYMINP    ZMAT    AOBASIS   BASIS     P2S    ABASIS      S 
                                         1400     1410     1200     1210     1080     1600     1650     1300     1700   
                                           T        V       H0       H01     AOSYM     SMH    MOLCAS    ERIS     OPER   

 PROGRAMS   *        TOTAL       INT
 CPU TIMES  *         1.26      1.11
 REAL TIME  *         6.94 SEC
 DISK USED  *       118.16 MB      
 **********************************************************************************************************************************

 Density functional group SOGGA11=XC-SOGGA11
 Functional: XC-SOGGA11(via MFM 1.6)                                           Gradient terms: 1
 Use grid at  1800.2

 Functional: XC-SOGGA11                Factor:  1.0000

 Generated new metagrid on record  1800.2 with target accuracy 1.0D-06 and 39228 points in CPU time    0.8
 Computed new grid on record 1800.1 in CPU time    0.9
   69171 words reserved for DFT integration

 PROGRAM * RKS-SCF (Restricted closed shell Kohn-Sham)     Authors: W. Meyer, H.-J. Werner, P.J. Knowles, 1993

 NUMBER OF ELECTRONS:      13+   13-    SPACE SYMMETRY=1    SPIN SYMMETRY: Singlet 
 CONVERGENCE THRESHOLDS:    1.00E-05 (Density)    1.00E-06 (Energy)
 MAX. NUMBER OF ITERATIONS:       60
 INTERPOLATION TYPE:            DIIS
 INTERPOLATION STEPS:              2 (START)      1 (STEP)
 LEVEL SHIFTS:                  0.00 (CLOSED)  0.00 (OPEN) 



 Use fine grid record 1800.2 for energy threshold  1.0D-06
 Orbital guess generated from atomic densities. Full valence occupancy:   13

 Molecular orbital dump at record        2100.2

 Initial occupancy:  13

 ITERATION    DDIFF          GRAD             ENERGY        2-EL.EN.            DIPOLE MOMENTS         DIIS   ORB.
    1      0.000D+00      0.000D+00      -118.83163482    290.179512    0.00000    0.00000   -0.01967    0    start
    2      0.000D+00      0.152D-01      -118.57297696    262.058541   -0.00000    0.00000    0.01201    1    diag
    3      0.294D-01      0.218D-01      -119.05746238    278.597846    0.00000    0.00000    0.04485    2    diag
    4      0.174D-01      0.138D-02      -119.05922957    278.315484    0.00000    0.00000    0.02532    3    diag
    5      0.268D-02      0.679D-03      -119.05967912    278.357608    0.00000    0.00000    0.03123    4    diag
    6      0.114D-02      0.337D-03      -119.05981807    278.351704    0.00000    0.00000    0.05002    5    diag
    7      0.966D-03      0.137D-03      -119.05984261    278.372171    0.00000    0.00000    0.04063    6    diag
    8      0.483D-03      0.238D-04      -119.05984326    278.375548    0.00000    0.00000    0.04648    7    diag
    9      0.584D-04      0.682D-05      -119.05984331    278.376583    0.00000    0.00000    0.04552    8    diag
   10      0.139D-04      0.664D-06      -119.05984331    278.376514    0.00000    0.00000    0.04563    9    orth
   11      0.396D-05      0.235D-06      -119.05984331    278.376425    0.00000    0.00000    0.04563    0    orth

 Final occupancy:  13

 !RKS STATE 1.1 Energy               -119.059843311235
 Nuclear energy                        82.25558439
 One-electron energy                 -321.25543475
 Two-electron energy                  139.18821243
 Density functional                   -19.24820538     XC-SOGGA11=-19.24820538
 Virial quotient                       -1.01430415
 !RKS STATE 1.1 Dipole moment           0.00000000     0.00000000     0.04563411
 Dipole moment /Debye                   0.00000000     0.00000000     0.11598275

 Orbital energies:

         1.1          2.1          3.1          4.1          5.1          6.1          7.1          8.1          9.1         10.1
     -9.902577    -9.894047    -9.894017    -0.692597    -0.600559    -0.513017    -0.402783    -0.384577    -0.350516    -0.331726

        11.1         12.1         13.1         14.1         15.1
     -0.295036    -0.292426    -0.280785     0.039317     0.086550

 HOMO     13.1    -0.280785 =      -7.6405eV
 LUMO     14.1     0.039317 =       1.0699eV
 LUMO-HOMO         0.320101 =       8.7104eV


 **********************************************************************************************************************************
 DATASETS  * FILE   NREC   LENGTH (MB)   RECORD NAMES
              1      20       52.60       500      610      700      900      950      970     1000      129      960     1100   
                                          VAR    BASINP    GEOM    SYMINP    ZMAT    AOBASIS   BASIS     P2S    ABASIS      S 
                                         1400     1410     1200     1210     1080     1600     1650     1300     1700     1800   
                                           T        V       H0       H01     AOSYM     SMH    MOLCAS    ERIS     OPER     GRID   

              2       5        3.07       700     1000      520     1800     2100   
                                         GEOM     BASIS   MCVARS    GRID      RKS  

 PROGRAMS   *        TOTAL        KS       INT
 CPU TIMES  *         8.86      7.60      1.11
 REAL TIME  *        15.74 SEC
 DISK USED  *       118.16 MB      
 **********************************************************************************************************************************


 PROGRAM * Intrinsic Basis Bonding Analysis (IBBA)          Author: G. Knizia

 Molecular orbitals read from record     2100.2  Type=RKS/CANONICAL (state 1.1)
 Fock matrix read from record            2100.2  Type=RKS/TOTAL (state 1.1)
 Orbital energies read from record       2100.2  Type=RKS/CANONICAL (state 1.1)
 Density matrix read from record         2100.2  Type=RKS/CHARGE (state 1.1)

 Number of core orbitals:           3 (   3 )
 Number of closed-shell orbitals:  10 (  10 )

 Basis set MINAO-AUTO-PP generated.      Number of basis functions:   23 

 Polarized AO type:                A = (O Ot + (1-O)(1-Ot)) P12
 Orthogonalization method:         Symmetric (Loewdin)
 Localization functional:          L = sum[A,i] <i|n_A|i>^4 -> max

 Localization group 1:  13 orbitals, occupancy  2.000
 Iterative localization: IB/PM,    7 iter; Final gradient 0.20E-08

 Bond order analysis:       [THRPRINT= 0.020]

   CEN ATOM   CEN ATOM     WIBERG.BO      RENORM.BO
     1   C  -   4   C       1.029009       1.020237
     1   C  -   5   C       1.029009       1.020237
     1   C  -   3   H       0.946122       0.970035
     1   C  -   2   H       0.946122       0.970035

     2   H  -   1   C       0.946122       0.970035

     3   H  -   1   C       0.946122       0.970035

     4   C  -   1   C       1.029009       1.020237
     4   C  -   6   H       0.961070       0.986391
     4   C  -   7   H       0.960333       0.980211
     4   C  -   8   H       0.960333       0.980211

     5   C  -   1   C       1.029009       1.020237
     5   C  -   9   H       0.961070       0.986391
     5   C  -  10   H       0.960333       0.980211
     5   C  -  11   H       0.960333       0.980211

     6   H  -   4   C       0.961070       0.986391

     7   H  -   4   C       0.960333       0.980211

     8   H  -   4   C       0.960333       0.980211

     9   H  -   5   C       0.961070       0.986391

    10   H  -   5   C       0.960333       0.980211

    11   H  -   5   C       0.960333       0.980211


 Valency analysis:

   CEN ATOM   TOT.VALENCE
     1   C       3.956654
     2   H       0.981686
     3   H       0.981686
     4   C       3.931210
     5   C       3.931210
     6   H       0.979511
     7   H       0.981316
     8   H       0.981316
     9   H       0.979511
    10   H       0.981316
    11   H       0.981316

 Total charge composition:

   CEN ATOM         s          p       ELECTRONS ->P.CHARGE
     1   C       2.97954    3.26783      6.24736   -0.24736
     2   H       0.86467                 0.86467    0.13533
     3   H       0.86467                 0.86467    0.13533
     4   C       3.01763    3.41053      6.42816   -0.42816
     5   C       3.01763    3.41053      6.42816   -0.42816
     6   H       0.85686                 0.85686    0.14314
     7   H       0.86331                 0.86331    0.13669
     8   H       0.86331                 0.86331    0.13669
     9   H       0.85686                 0.85686    0.14314
    10   H       0.86331                 0.86331    0.13669
    11   H       0.86331                 0.86331    0.13669

 Total charge composition, AO contributions:

   CEN ATOM SHL      SPHERICAL COMPONENTS
     1   C  1s       1.99183
     1   C  2s       0.98771
     1   C  2p       1.16551    1.01058    1.09174

     2   H  1s       0.86467

     3   H  1s       0.86467

     4   C  1s       1.99155
     4   C  2s       1.02608
     4   C  2p       1.17308    1.09926    1.13819

     5   C  1s       1.99155
     5   C  2s       1.02608
     5   C  2p       1.17308    1.09926    1.13819

     6   H  1s       0.85686

     7   H  1s       0.86331

     8   H  1s       0.86331

     9   H  1s       0.85686

    10   H  1s       0.86331

    11   H  1s       0.86331

 Summary of localized orbital composition:   [THRPRINT= 0.020]

   ORB  GRP  ORB.ENERGY      CENTERS/CHARGES
     1   1    -9.797425      C  1   2.000
     2   1    -9.783948      C  5   2.000
     3   1    -9.783948      C  4   2.000
     4   1    -0.498775      C  5   1.006   C  1   0.985
     5   1    -0.498775      C  4   1.006   C  1   0.985
     6   1    -0.434923      C  5   1.140   H  9   0.850
     7   1    -0.434923      C  4   1.140   H  6   0.850
     8   1    -0.434674      C  4   1.135   H  8   0.856
     9   1    -0.434674      C  5   1.135   H 11   0.856
    10   1    -0.434674      C  4   1.135   H  7   0.856
    11   1    -0.434674      C  5   1.135   H 10   0.856
    12   1    -0.431625      C  1   1.126   H  2   0.855
    13   1    -0.431625      C  1   1.126   H  3   0.855

 Localized orbitals saved to record      2100.2  (orbital set 2)


 **********************************************************************************************************************************
 DATASETS  * FILE   NREC   LENGTH (MB)   RECORD NAMES
              1      20       52.60       500      610      700      900      950      970     1000      129      960     1100   
                                          VAR    BASINP    GEOM    SYMINP    ZMAT    AOBASIS   BASIS     P2S    ABASIS      S 
                                         1400     1410     1200     1210     1080     1600     1650     1300     1700     1800   
                                           T        V       H0       H01     AOSYM     SMH    MOLCAS    ERIS     OPER     GRID   

              2       5        3.12       700     1000      520     1800     2100   
                                         GEOM     BASIS   MCVARS    GRID      RKS  

 PROGRAMS   *        TOTAL      IBBA        KS       INT
 CPU TIMES  *         8.89      0.03      7.60      1.11
 REAL TIME  *        15.84 SEC
 DISK USED  *       118.16 MB      
 **********************************************************************************************************************************
 Molecular orbitals read from record     2100.2  Type=RKS/LOCAL(IBO)  
 Occupation numbers read from record     2100.2  Type=RKS/LOCAL(IBO)  
 Orbital energies read from record       2100.2  Type=RKS/LOCAL(IBO)  
 Redundancy group numbers read from rec  2100.2  Type=RKS/LOCAL(IBO)  

 IBBA/SVP energy=      0.000000000000

        KS-SCF  
   -119.05984331
 **********************************************************************************************************************************
 Molpro calculation terminated
