
 Primary working directories    : /tmp/sb13343
 Secondary working directories  : /tmp/sb13343
 Wavefunction directory         : /panfs/panasas01/chem/sb13343/wfu/
 Main file repository           : /tmp/sb13343/

 SHA1      : b4a5b34a9e711420743f49e6833241d17c61fb3c
 NAME      : 2099.9.b4a5b34
 ARCHNAME  : linux/x86_64_openmp
 FC        : /cm/shared/languages/GCC-6.1/bin/gfortran
 BLASLIB   : -lblas
 id        : simonbennie

 Nodes     nprocs
 node35-048    1

 Using customized tuning parameters: mindgm=1; mindgv=20; mindgc=4; mindgr=1; noblas=0; minvec=7
 default implementation of scratch files=df  

 memory,500,m
 geomtyp=xyz
 nosym
 noorient
 geometry={
 C          0.00000        0.00000        0.58646
 H          0.87762        0.00000        1.24716
 H         -0.87762        0.00000        1.24716
 C          0.00000       -1.27718       -0.25989
 C          0.00000        1.27718       -0.25989
 H          0.00000       -2.17596        0.36762
 H         -0.88462       -1.32219       -0.90739
 H          0.88462       -1.32219       -0.90739
 H          0.00000        2.17596        0.36762
 H          0.88462        1.32219       -0.90739
 H         -0.88462        1.32219       -0.90739
 }
 basis={ default,svp }
 {uks,M06,direct;wf,26,1,0}
 {ibba,bonds=1}

 Variables initialized (895), CPU time= 0.00 sec
 Commands  initialized (725), CPU time= 0.02 sec, 591 directives.
 Default parameters read. Elapsed time= 0.13 sec

 Checking input...
 Passed
1


                                         ***  PROGRAM SYSTEM MOLPRO  ***
                                       Copyright, TTI GmbH Stuttgart, 2015
                                    Version 2099.9 linked May 26 2017 16:03:21


 **********************************************************************************************************************************
 LABEL *                                                                                 
  64 bit serial version                                                                  DATE: 08-Jun-17          TIME: 06:51:31  
 **********************************************************************************************************************************

 SHA1:             b4a5b34a9e711420743f49e6833241d17c61fb3c
 **********************************************************************************************************************************
 SETTING GEOMTYP        =    XYZ

 Variable memory set to  500000000 words,  buffer space 

 ZSYMEL=NOSYM

 SETTING BASIS          =    SVP


 Recomputing integrals since basis changed


 Using spherical harmonics

 Library entry C      S def2-SVP             selected for orbital group  1
 Library entry C      P def2-SVP             selected for orbital group  1
 Library entry C      D def2-SVP             selected for orbital group  1
 Library entry H      S def2-SVP             selected for orbital group  2
 Library entry H      P def2-SVP             selected for orbital group  2


 PROGRAM * SEWARD (Integral evaluation for generally contracted gaussian basis sets)     Author: Roland Lindh, 1990

 Geometry written to block  1 of record 700


 Point group  C1  



 ATOMIC COORDINATES

 NR  ATOM    CHARGE       X              Y              Z

   1  C       6.00    0.000000000    0.000000000    1.108248783
   2  H       1.00    1.658461441    0.000000000    2.356790834
   3  H       1.00   -1.658461441    0.000000000    2.356790834
   4  C       6.00    0.000000000   -2.413520412   -0.491120923
   5  C       6.00    0.000000000    2.413520412   -0.491120923
   6  H       1.00    0.000000000   -4.111968458    0.694701118
   7  H       1.00   -1.671689524   -2.498576985   -1.714718588
   8  H       1.00    1.671689524   -2.498576985   -1.714718588
   9  H       1.00    0.000000000    4.111968458    0.694701118
  10  H       1.00    1.671689524    2.498576985   -1.714718588
  11  H       1.00   -1.671689524    2.498576985   -1.714718588

 Bond lengths in Bohr (Angstrom)

 1-2  2.075897783  1-3  2.075897783  1-4  2.895352178  1-5  2.895352178  4-6  2.071448690
     ( 1.098517799)     ( 1.098517799)     ( 1.532154390)     ( 1.532154390)     ( 1.096163441)

  4- 7  2.073396183   4- 8  2.073396183   5- 9  2.071448690   5-10  2.073396183   5-11  2.073396183
       ( 1.097194010)       ( 1.097194010)       ( 1.096163441)       ( 1.097194010)       ( 1.097194010)

 Bond angles

  1-4-6  111.54675740   1-4-7  111.11159726   1-4-8  111.11159726   1-5-9  111.54675740

  1- 5-10  111.11159726   1- 5-11  111.11159726   2- 1- 3  106.05282696   2- 1- 4  109.40445441

  2-1-5  109.40445441   3-1-4  109.40445441   3-1-5  109.40445441   4-1-5  112.93744570

  6- 4- 7  107.70984506   6- 4- 8  107.70984506   7- 4- 8  107.46358962   9- 5-10  107.70984506

  9- 5-11  107.70984506  10- 5-11  107.46358962

 NUCLEAR CHARGE:                   26
 NUMBER OF PRIMITIVE AOS:         131
 NUMBER OF SYMMETRY AOS:          128
 NUMBER OF CONTRACTIONS:           82   (  82A   )
 NUMBER OF CORE ORBITALS:           3   (   3A   )
 NUMBER OF VALENCE ORBITALS:       20   (  20A   )


 NUCLEAR REPULSION ENERGY   82.25558439


 Eigenvalues of metric

         1 0.304E-02 0.671E-02 0.221E-01 0.273E-01 0.277E-01 0.357E-01 0.407E-01 0.451E-01


 Contracted 2-electron integrals neglected if value below      1.0D-11
 AO integral compression algorithm  1   Integral accuracy      1.0D-11

     24.379 MB (compressed) written to integral file ( 46.8%)


 NUMBER OF SORTED TWO-ELECTRON INTEGRALS:    5791906.     BUFFER LENGTH:  32768
 NUMBER OF SEGMENTS:   1  SEGMENT LENGTH:    5791906      RECORD LENGTH: 524288

 Memory used in sort:       6.35 MW

 SORT1 READ     6460078. AND WROTE     5119384. INTEGRALS IN     15 RECORDS. CPU TIME:     0.08 SEC, REAL TIME:     0.22 SEC
 SORT2 READ     5119384. AND WROTE     5791906. INTEGRALS IN     93 RECORDS. CPU TIME:     0.19 SEC, REAL TIME:     0.24 SEC

 FILE SIZES:   FILE 1:    54.8 MBYTE,  FILE 4:    62.9 MBYTE,   TOTAL:    117.7 MBYTE

 OPERATOR DM      FOR CENTER  0  COORDINATES:    0.000000    0.000000    0.000000


 **********************************************************************************************************************************
 DATASETS  * FILE   NREC   LENGTH (MB)   RECORD NAMES
              1      19       51.35       500      610      700      900      950      970     1000      129      960     1100   
                                          VAR    BASINP    GEOM    SYMINP    ZMAT    AOBASIS   BASIS     P2S    ABASIS      S 
                                         1400     1410     1200     1210     1080     1600     1650     1300     1700   
                                           T        V       H0       H01     AOSYM     SMH    MOLCAS    ERIS     OPER   

 PROGRAMS   *        TOTAL       INT
 CPU TIMES  *         1.28      1.13
 REAL TIME  *         2.24 SEC
 DISK USED  *       118.16 MB      
 **********************************************************************************************************************************

 Density functional group M06=XC-M06
 Functional: XC-M06(via MFM 1.6)                                               Gradient terms: 1
 Use grid at  1800.2


 Exact exchange will be calculated, factor:  0.2700

 Functional: XC-M06                    Factor:  1.0000

 Generated new metagrid on record  1800.2 with target accuracy 1.0D-06 and 39228 points in CPU time    0.9
 Computed new grid on record 1800.1 in CPU time    1.0
   69171 words reserved for DFT integration

 PROGRAM * UKS-SCF (Unrestricted Kohn-Sham)     Authors: W. Meyer, H.-J. Werner, P.J. Knowles, 1993

 NUMBER OF ELECTRONS:      13+   13-    SPACE SYMMETRY=1    SPIN SYMMETRY: Singlet 
 CONVERGENCE THRESHOLDS:    1.00E-05 (Density)    1.00E-06 (Energy)
 MAX. NUMBER OF ITERATIONS:       60
 INTERPOLATION TYPE:            DIIS
 INTERPOLATION STEPS:              2 (START)      1 (STEP)
 LEVEL SHIFTS:                 -0.20 (ALPHA)  -0.20 (BETA) 



 Use fine grid record 1800.2 for energy threshold  1.0D-06
 Orbital guess generated from atomic densities. Full valence occupancy:   13

 Molecular orbital dump at record        2200.2

 Initial alpha occupation  13
 Initial beta  occupation  13

 ITERATION    DDIFF          GRAD             ENERGY        2-EL.EN.            DIPOLE MOMENTS         DIIS
    1      0.000D+00      0.000D+00      -118.80162933    276.856438    0.00000    0.00000   -0.01271    0
    2      0.120D-01      0.599D-02      -118.92844290    265.641737    0.00000    0.00000   -0.00361    1
    3      0.351D-02      0.226D-02      -118.94427030    268.132691    0.00000    0.00000    0.01964    2
    4      0.114D-02      0.255D-03      -118.94481808    268.013656    0.00000    0.00000    0.01985    3
    5      0.610D-03      0.996D-04      -118.94491863    267.989038    0.00000    0.00000    0.02077    4
    6      0.207D-03      0.283D-04      -118.94492629    267.978693    0.00000    0.00000    0.02154    5
    7      0.380D-04      0.835D-05      -118.94492668    267.979290    0.00000    0.00000    0.02076    6
    8      0.110D-04      0.157D-05      -118.94492671    267.979164    0.00000    0.00000    0.02094    6
    9      0.270D-05      0.384D-06      -118.94492671    267.979357    0.00000    0.00000    0.02088    6
   10      0.568D-06      0.118D-06      -118.94492671    267.979171    0.00000    0.00000    0.02088    6

 Final alpha occupancy:  13
 Final beta  occupancy:  13

 !UKS STATE 1.1 Energy               -118.944926710203
 Nuclear energy                        82.25558439
 One-electron energy                 -321.01520133
 Two-electron energy                  133.98958555
 Density functional                   -14.17489532     XC-M06=-14.17489532
 Virial quotient                       -1.01375966
 !UKS STATE 1.1 Dipole moment           0.00000000     0.00000000     0.02088030
 Dipole moment /Debye                   0.00000000     0.00000000     0.05306896

 Orbital energies for positive spin:

         1.1          2.1          3.1          4.1          5.1          6.1          7.1          8.1          9.1         10.1
    -10.241051   -10.233768   -10.233740    -0.779989    -0.679953    -0.583815    -0.461194    -0.441758    -0.405360    -0.385914

        11.1         12.1         13.1         14.1         15.1
     -0.347288    -0.343454    -0.332690     0.068392     0.112369

 Orbital energies for negative spin:

         1.1          2.1          3.1          4.1          5.1          6.1          7.1          8.1          9.1         10.1
    -10.241051   -10.233768   -10.233740    -0.779989    -0.679953    -0.583815    -0.461194    -0.441758    -0.405360    -0.385914

        11.1         12.1         13.1         14.1         15.1
     -0.347288    -0.343454    -0.332690     0.068392     0.112369

 HOMO     13.1    -0.332690 =      -9.0530eV
 LUMO     14.1     0.068392 =       1.8610eV
 LUMO-HOMO         0.401082 =      10.9140eV

 EXPECTATION VALUE OF S**2:            -0.00000000

 Natural orbitals saved to record    2200.2 (Orbital set 3)

 Orbital spaces for UNO-CAS (Min. occupation: 0.020  Max. occupation: 1.980):

 Closed:       13
 Active:        0


 **********************************************************************************************************************************
 DATASETS  * FILE   NREC   LENGTH (MB)   RECORD NAMES
              1      20       52.60       500      610      700      900      950      970     1000      129      960     1100   
                                          VAR    BASINP    GEOM    SYMINP    ZMAT    AOBASIS   BASIS     P2S    ABASIS      S 
                                         1400     1410     1200     1210     1080     1600     1650     1300     1700     1800   
                                           T        V       H0       H01     AOSYM     SMH    MOLCAS    ERIS     OPER     GRID   

              2       5        3.21       700     1000      520     1800     2200   
                                         GEOM     BASIS   MCVARS    GRID      UKS  

 PROGRAMS   *        TOTAL       UKS       INT
 CPU TIMES  *        26.47     25.19      1.13
 REAL TIME  *        31.08 SEC
 DISK USED  *       118.16 MB      
 **********************************************************************************************************************************


 PROGRAM * Intrinsic Basis Bonding Analysis (IBBA)          Author: G. Knizia

 Molecular orbitals read from record     2200.2  Type=UKS/ALPHA (state 1.1)
 Fock matrix read from record            2200.2  Type=UKS/TOTAL (state 1.1)
 Orbital energies read from record       2200.2  Type=UKS/ALPHA (state 1.1)
 Density matrix read from record         2200.2  Type=UKS/CHARGE (state 1.1)

 Number of core orbitals:           3 (   3 )
 Number of closed-shell orbitals:  10 (  10 )

 Basis set MINAO-AUTO-PP generated.      Number of basis functions:   23 

 Polarized AO type:                A = (O Ot + (1-O)(1-Ot)) P12
 Orthogonalization method:         Symmetric (Loewdin)
 Localization functional:          L = sum[A,i] <i|n_A|i>^4 -> max

 Localization group 1:  13 orbitals, occupancy  2.000
 Iterative localization: IB/PM,    7 iter; Final gradient 0.74E-09

 Bond order analysis:       [THRPRINT= 0.020]

   CEN ATOM   CEN ATOM     WIBERG.BO      RENORM.BO
     1   C  -   5   C       1.028869       1.022035
     1   C  -   4   C       1.028869       1.022035
     1   C  -   3   H       0.950271       0.969143
     1   C  -   2   H       0.950271       0.969143

     2   H  -   1   C       0.950271       0.969143

     3   H  -   1   C       0.950271       0.969143

     4   C  -   1   C       1.028869       1.022035
     4   C  -   6   H       0.965469       0.986098
     4   C  -   8   H       0.964629       0.981671
     4   C  -   7   H       0.964629       0.981671

     5   C  -   1   C       1.028869       1.022035
     5   C  -   9   H       0.965469       0.986098
     5   C  -  11   H       0.964629       0.981671
     5   C  -  10   H       0.964629       0.981671

     6   H  -   4   C       0.965469       0.986098

     7   H  -   4   C       0.964629       0.981671

     8   H  -   4   C       0.964629       0.981671

     9   H  -   5   C       0.965469       0.986098

    10   H  -   5   C       0.964629       0.981671

    11   H  -   5   C       0.964629       0.981671


 Valency analysis:

   CEN ATOM   TOT.VALENCE
     1   C       3.963853
     2   H       0.985174
     3   H       0.985174
     4   C       3.942013
     5   C       3.942013
     6   H       0.982686
     7   H       0.984095
     8   H       0.984095
     9   H       0.982686
    10   H       0.984095
    11   H       0.984095

 Total charge composition:

   CEN ATOM         s          p       ELECTRONS ->P.CHARGE
     1   C       2.97823    3.24735      6.22557   -0.22557
     2   H       0.87824                 0.87824    0.12176
     3   H       0.87824                 0.87824    0.12176
     4   C       3.01649    3.37630      6.39279   -0.39279
     5   C       3.01649    3.37630      6.39279   -0.39279
     6   H       0.86842                 0.86842    0.13158
     7   H       0.87388                 0.87388    0.12612
     8   H       0.87388                 0.87388    0.12612
     9   H       0.86842                 0.86842    0.13158
    10   H       0.87388                 0.87388    0.12612
    11   H       0.87388                 0.87388    0.12612

 Total charge composition, AO contributions:

   CEN ATOM SHL      SPHERICAL COMPONENTS
     1   C  1s       1.99159
     1   C  2s       0.98664
     1   C  2p       1.14741    1.01377    1.08616

     2   H  1s       0.87824

     3   H  1s       0.87824

     4   C  1s       1.99130
     4   C  2s       1.02519
     4   C  2p       1.15627    1.09300    1.12703

     5   C  1s       1.99130
     5   C  2s       1.02519
     5   C  2p       1.15627    1.09300    1.12703

     6   H  1s       0.86842

     7   H  1s       0.87388

     8   H  1s       0.87388

     9   H  1s       0.86842

    10   H  1s       0.87388

    11   H  1s       0.87388

 Summary of localized orbital composition:   [THRPRINT= 0.020]

   ORB  GRP  ORB.ENERGY      CENTERS/CHARGES
     1   1   -10.132481      C  1   2.000
     2   1   -10.119906      C  4   2.000
     3   1   -10.119906      C  5   2.000
     4   1    -0.565805      C  4   1.004   C  1   0.987
     5   1    -0.565805      C  5   1.004   C  1   0.987
     6   1    -0.496769      C  5   1.129   H  9   0.862
     7   1    -0.496769      C  4   1.129   H  6   0.862
     8   1    -0.496567      C  5   1.124   H 10   0.867
     9   1    -0.496567      C  4   1.124   H  7   0.867
    10   1    -0.496567      C  5   1.124   H 11   0.867
    11   1    -0.496567      C  4   1.124   H  8   0.867
    12   1    -0.493156      C  1   1.113   H  2   0.868
    13   1    -0.493156      C  1   1.113   H  3   0.868

 Localized orbitals saved to record      2200.2  (orbital set 4)


 **********************************************************************************************************************************
 DATASETS  * FILE   NREC   LENGTH (MB)   RECORD NAMES
              1      20       52.60       500      610      700      900      950      970     1000      129      960     1100   
                                          VAR    BASINP    GEOM    SYMINP    ZMAT    AOBASIS   BASIS     P2S    ABASIS      S 
                                         1400     1410     1200     1210     1080     1600     1650     1300     1700     1800   
                                           T        V       H0       H01     AOSYM     SMH    MOLCAS    ERIS     OPER     GRID   

              2       5        3.26       700     1000      520     1800     2200   
                                         GEOM     BASIS   MCVARS    GRID      UKS  

 PROGRAMS   *        TOTAL      IBBA       UKS       INT
 CPU TIMES  *        26.50      0.03     25.19      1.13
 REAL TIME  *        31.21 SEC
 DISK USED  *       118.16 MB      
 **********************************************************************************************************************************
 Molecular orbitals read from record     2200.2  Type=UKS/LOCAL(IBO)  
 Occupation numbers read from record     2200.2  Type=UKS/LOCAL(IBO)  
 Orbital energies read from record       2200.2  Type=UKS/LOCAL(IBO)  
 Redundancy group numbers read from rec  2200.2  Type=UKS/BETA (state 1.1)

 IBBA/SVP energy=      0.000000000000

        UKS-SCF 
   -118.94492671
 **********************************************************************************************************************************
 Molpro calculation terminated
