
 Primary working directories    : /tmp/sb13343
 Secondary working directories  : /tmp/sb13343
 Wavefunction directory         : /panfs/panasas01/chem/sb13343/wfu/
 Main file repository           : /tmp/sb13343/

 SHA1      : b4a5b34a9e711420743f49e6833241d17c61fb3c
 NAME      : 2099.9.b4a5b34
 ARCHNAME  : linux/x86_64_openmp
 FC        : /cm/shared/languages/GCC-6.1/bin/gfortran
 BLASLIB   : -lblas
 id        : simonbennie

 Nodes     nprocs
 node35-048    1

 Using customized tuning parameters: mindgm=1; mindgv=20; mindgc=4; mindgr=1; noblas=0; minvec=7
 default implementation of scratch files=df  

 memory,500,m
 geomtyp=xyz
 nosym
 noorient
 geometry={
 C          0.00000        0.00000        0.58646
 H          0.87762        0.00000        1.24716
 H         -0.87762        0.00000        1.24716
 C          0.00000       -1.27718       -0.25989
 C          0.00000        1.27718       -0.25989
 H          0.00000       -2.17596        0.36762
 H         -0.88462       -1.32219       -0.90739
 H          0.88462       -1.32219       -0.90739
 H          0.00000        2.17596        0.36762
 H          0.88462        1.32219       -0.90739
 H         -0.88462        1.32219       -0.90739
 }
 basis={ default,sto-3g }
 {uks,CS,direct;wf,26,1,0}
 {ibba,bonds=1}

 Variables initialized (895), CPU time= 0.00 sec
 Commands  initialized (725), CPU time= 0.02 sec, 591 directives.
 Default parameters read. Elapsed time= 0.14 sec

 Checking input...
 Passed
1


                                         ***  PROGRAM SYSTEM MOLPRO  ***
                                       Copyright, TTI GmbH Stuttgart, 2015
                                    Version 2099.9 linked May 26 2017 16:03:21


 **********************************************************************************************************************************
 LABEL *                                                                                 
  64 bit serial version                                                                  DATE: 08-Jun-17          TIME: 06:22:07  
 **********************************************************************************************************************************

 SHA1:             b4a5b34a9e711420743f49e6833241d17c61fb3c
 **********************************************************************************************************************************
 SETTING GEOMTYP        =    XYZ

 Variable memory set to  500000000 words,  buffer space 

 ZSYMEL=NOSYM

 SETTING BASIS          =    STO-3G


 Recomputing integrals since basis changed


 Using spherical harmonics

 Library entry C      S STO-3G               selected for orbital group  1
 Library entry C      P STO-3G               selected for orbital group  1
 Library entry H      S STO-3G               selected for orbital group  2


 PROGRAM * SEWARD (Integral evaluation for generally contracted gaussian basis sets)     Author: Roland Lindh, 1990

 Geometry written to block  1 of record 700


 Point group  C1  



 ATOMIC COORDINATES

 NR  ATOM    CHARGE       X              Y              Z

   1  C       6.00    0.000000000    0.000000000    1.108248783
   2  H       1.00    1.658461441    0.000000000    2.356790834
   3  H       1.00   -1.658461441    0.000000000    2.356790834
   4  C       6.00    0.000000000   -2.413520412   -0.491120923
   5  C       6.00    0.000000000    2.413520412   -0.491120923
   6  H       1.00    0.000000000   -4.111968458    0.694701118
   7  H       1.00   -1.671689524   -2.498576985   -1.714718588
   8  H       1.00    1.671689524   -2.498576985   -1.714718588
   9  H       1.00    0.000000000    4.111968458    0.694701118
  10  H       1.00    1.671689524    2.498576985   -1.714718588
  11  H       1.00   -1.671689524    2.498576985   -1.714718588

 Bond lengths in Bohr (Angstrom)

 1-2  2.075897783  1-3  2.075897783  1-4  2.895352178  1-5  2.895352178  4-6  2.071448690
     ( 1.098517799)     ( 1.098517799)     ( 1.532154390)     ( 1.532154390)     ( 1.096163441)

  4- 7  2.073396183   4- 8  2.073396183   5- 9  2.071448690   5-10  2.073396183   5-11  2.073396183
       ( 1.097194010)       ( 1.097194010)       ( 1.096163441)       ( 1.097194010)       ( 1.097194010)

 Bond angles

  1-4-6  111.54675740   1-4-7  111.11159726   1-4-8  111.11159726   1-5-9  111.54675740

  1- 5-10  111.11159726   1- 5-11  111.11159726   2- 1- 3  106.05282696   2- 1- 4  109.40445441

  2-1-5  109.40445441   3-1-4  109.40445441   3-1-5  109.40445441   4-1-5  112.93744570

  6- 4- 7  107.70984506   6- 4- 8  107.70984506   7- 4- 8  107.46358962   9- 5-10  107.70984506

  9- 5-11  107.70984506  10- 5-11  107.46358962

 NUCLEAR CHARGE:                   26
 NUMBER OF PRIMITIVE AOS:          69
 NUMBER OF SYMMETRY AOS:           69
 NUMBER OF CONTRACTIONS:           23   (  23A   )
 NUMBER OF CORE ORBITALS:           3   (   3A   )
 NUMBER OF VALENCE ORBITALS:       20   (  20A   )


 NUCLEAR REPULSION ENERGY   82.25558439


 Eigenvalues of metric

         1 0.205E+00 0.229E+00 0.269E+00 0.347E+00 0.363E+00 0.365E+00 0.371E+00 0.404E+00


 Contracted 2-electron integrals neglected if value below      1.0D-11
 AO integral compression algorithm  1   Integral accuracy      1.0D-11

     0.524 MB (compressed) written to integral file ( 99.9%)


 NUMBER OF SORTED TWO-ELECTRON INTEGRALS:      38226.     BUFFER LENGTH:  32768
 NUMBER OF SEGMENTS:   1  SEGMENT LENGTH:      38226      RECORD LENGTH: 524288

 Memory used in sort:       0.60 MW

 SORT1 READ       45011. AND WROTE       32610. INTEGRALS IN      1 RECORDS. CPU TIME:     0.00 SEC, REAL TIME:     0.01 SEC
 SORT2 READ       32610. AND WROTE       38226. INTEGRALS IN      2 RECORDS. CPU TIME:     0.01 SEC, REAL TIME:     0.01 SEC

 FILE SIZES:   FILE 1:    30.7 MBYTE,  FILE 4:     4.2 MBYTE,   TOTAL:     34.9 MBYTE

 OPERATOR DM      FOR CENTER  0  COORDINATES:    0.000000    0.000000    0.000000


 **********************************************************************************************************************************
 DATASETS  * FILE   NREC   LENGTH (MB)   RECORD NAMES
              1      19       30.30       500      610      700      900      950      970     1000      129      960     1100   
                                          VAR    BASINP    GEOM    SYMINP    ZMAT    AOBASIS   BASIS     P2S    ABASIS      S 
                                         1400     1410     1200     1210     1080     1600     1650     1300     1700   
                                           T        V       H0       H01     AOSYM     SMH    MOLCAS    ERIS     OPER   

 PROGRAMS   *        TOTAL       INT
 CPU TIMES  *         0.39      0.25
 REAL TIME  *         1.04 SEC
 DISK USED  *        35.33 MB      
 **********************************************************************************************************************************

 Density functional group CS=CS1
 Functional: CS1(Colle-Salvetti (Gradient form))                               Gradient terms: 1
 Use grid at  1800.2

 Functional: CS1                       Factor:  1.0000

 Generated new metagrid on record  1800.2 with target accuracy 1.0D-06 and 39228 points in CPU time    0.8
 Computed new grid on record 1800.1 in CPU time    0.9
   22549 words reserved for DFT integration

 PROGRAM * UKS-SCF (Unrestricted Kohn-Sham)     Authors: W. Meyer, H.-J. Werner, P.J. Knowles, 1993

 NUMBER OF ELECTRONS:      13+   13-    SPACE SYMMETRY=1    SPIN SYMMETRY: Singlet 
 CONVERGENCE THRESHOLDS:    1.00E-05 (Density)    1.00E-06 (Energy)
 MAX. NUMBER OF ITERATIONS:       60
 INTERPOLATION TYPE:            DIIS
 INTERPOLATION STEPS:              2 (START)      1 (STEP)
 LEVEL SHIFTS:                 -0.20 (ALPHA)  -0.20 (BETA) 



 Use fine grid record 1800.2 for energy threshold  1.0D-06
 Orbital guess generated from atomic densities. Full valence occupancy:   13

 Molecular orbital dump at record        2200.2

 Initial alpha occupation  13
 Initial beta  occupation  13

 ITERATION    DDIFF          GRAD             ENERGY        2-EL.EN.            DIPOLE MOMENTS         DIIS
    1      0.000D+00      0.000D+00       -99.30862175    278.147213    0.00000    0.00000    0.01671    0
    2      0.340D-01      0.116D-01       -99.34054766    273.353940    0.00000    0.00000    0.00621    1
    3      0.106D-01      0.518D-02       -99.34817585    274.820681    0.00000    0.00000    0.01633    2
    4      0.403D-03      0.159D-03       -99.34818812    274.807603    0.00000    0.00000    0.01956    3
    5      0.128D-03      0.488D-04       -99.34818905    274.808678    0.00000    0.00000    0.01995    4
    6      0.547D-04      0.207D-04       -99.34818922    274.808277    0.00000    0.00000    0.02005    5
    7      0.941D-05      0.280D-05       -99.34818922    274.808323    0.00000    0.00000    0.02010    5
    8      0.691D-06      0.191D-06       -99.34818922    274.808320    0.00000    0.00000    0.02008    5

 Final alpha occupancy:  13
 Final beta  occupancy:  13

 !UKS STATE 1.1 Energy                -99.348189220120
 Nuclear energy                        82.25558439
 One-electron energy                 -318.21503387
 Two-electron energy                  137.40415985
 Density functional                    -0.79289959     CS1=-0.79289959
 Virial quotient                       -0.87800388
 !UKS STATE 1.1 Dipole moment           0.00000000     0.00000000     0.02008274
 Dipole moment /Debye                   0.00000000     0.00000000     0.05104188

 Orbital energies for positive spin:

         1.1          2.1          3.1          4.1          5.1          6.1          7.1          8.1          9.1         10.1
     -7.688825    -7.682936    -7.678859    -0.178383    -0.083369    -0.003897     0.074734     0.103204     0.148496     0.168431

        11.1         12.1         13.1         14.1         15.1
      0.219995     0.221846     0.228680     0.808393     0.816904

 Orbital energies for negative spin:

         1.1          2.1          3.1          4.1          5.1          6.1          7.1          8.1          9.1         10.1
     -7.688825    -7.682936    -7.678859    -0.178383    -0.083369    -0.003897     0.074734     0.103204     0.148496     0.168431

        11.1         12.1         13.1         14.1         15.1
      0.219995     0.221846     0.228680     0.808393     0.816904

 HOMO     13.1     0.228680 =       6.2227eV
 LUMO     14.1     0.808393 =      21.9975eV
 LUMO-HOMO         0.579713 =      15.7748eV

 EXPECTATION VALUE OF S**2:            -0.00000000

 Natural orbitals saved to record    2200.2 (Orbital set 3)

 Orbital spaces for UNO-CAS (Min. occupation: 0.020  Max. occupation: 1.980):

 Closed:       13
 Active:        0


 **********************************************************************************************************************************
 DATASETS  * FILE   NREC   LENGTH (MB)   RECORD NAMES
              1      20       31.56       500      610      700      900      950      970     1000      129      960     1100   
                                          VAR    BASINP    GEOM    SYMINP    ZMAT    AOBASIS   BASIS     P2S    ABASIS      S 
                                         1400     1410     1200     1210     1080     1600     1650     1300     1700     1800   
                                           T        V       H0       H01     AOSYM     SMH    MOLCAS    ERIS     OPER     GRID   

              2       5        2.95       700     1000      520     1800     2200   
                                         GEOM     BASIS   MCVARS    GRID      UKS  

 PROGRAMS   *        TOTAL       UKS       INT
 CPU TIMES  *         3.61      3.22      0.25
 REAL TIME  *         5.47 SEC
 DISK USED  *        35.33 MB      
 **********************************************************************************************************************************


 PROGRAM * Intrinsic Basis Bonding Analysis (IBBA)          Author: G. Knizia

 Molecular orbitals read from record     2200.2  Type=UKS/ALPHA (state 1.1)
 Fock matrix read from record            2200.2  Type=UKS/TOTAL (state 1.1)
 Orbital energies read from record       2200.2  Type=UKS/ALPHA (state 1.1)
 Density matrix read from record         2200.2  Type=UKS/CHARGE (state 1.1)

 Number of core orbitals:           3 (   3 )
 Number of closed-shell orbitals:  10 (  10 )

 Basis set MINAO-AUTO-PP generated.      Number of basis functions:   23 

 Polarized AO type:                A = (O Ot + (1-O)(1-Ot)) P12
 Orthogonalization method:         Symmetric (Loewdin)
 Localization functional:          L = sum[A,i] <i|n_A|i>^4 -> max

 Localization group 1:  13 orbitals, occupancy  2.000
 Iterative localization: IB/PM,    7 iter; Final gradient 0.24E-08

 Bond order analysis:       [THRPRINT= 0.020]

   CEN ATOM   CEN ATOM     WIBERG.BO      RENORM.BO
     1   C  -   4   C       1.017008       1.025296
     1   C  -   5   C       1.017008       1.025296
     1   C  -   3   H       0.953118       0.970077
     1   C  -   2   H       0.953118       0.970077

     2   H  -   1   C       0.953118       0.970077

     3   H  -   1   C       0.953118       0.970077

     4   C  -   1   C       1.017008       1.025296
     4   C  -   6   H       0.969237       0.984468
     4   C  -   8   H       0.968649       0.982330
     4   C  -   7   H       0.968649       0.982330

     5   C  -   1   C       1.017008       1.025296
     5   C  -   9   H       0.969237       0.984468
     5   C  -  11   H       0.968649       0.982330
     5   C  -  10   H       0.968649       0.982330

     6   H  -   4   C       0.969237       0.984468

     7   H  -   4   C       0.968649       0.982330

     8   H  -   4   C       0.968649       0.982330

     9   H  -   5   C       0.969237       0.984468

    10   H  -   5   C       0.968649       0.982330

    11   H  -   5   C       0.968649       0.982330


 Valency analysis:

   CEN ATOM   TOT.VALENCE
     1   C       3.957163
     2   H       0.995658
     3   H       0.995658
     4   C       3.947902
     5   C       3.947902
     6   H       0.995236
     7   H       0.995736
     8   H       0.995736
     9   H       0.995236
    10   H       0.995736
    11   H       0.995736

 Total charge composition:

   CEN ATOM         s          p       ELECTRONS ->P.CHARGE
     1   C       2.86816    3.25526      6.12343   -0.12343
     2   H       0.93411                 0.93411    0.06589
     3   H       0.93411                 0.93411    0.06589
     4   C       2.88064    3.32315      6.20379   -0.20379
     5   C       2.88064    3.32315      6.20379   -0.20379
     6   H       0.93098                 0.93098    0.06902
     7   H       0.93470                 0.93470    0.06530
     8   H       0.93470                 0.93470    0.06530
     9   H       0.93098                 0.93098    0.06902
    10   H       0.93470                 0.93470    0.06530
    11   H       0.93470                 0.93470    0.06530

 Total charge composition, AO contributions:

   CEN ATOM SHL      SPHERICAL COMPONENTS
     1   C  1s       1.99824
     1   C  2s       0.86992
     1   C  2p       1.12465    1.04614    1.08448

     2   H  1s       0.93411

     3   H  1s       0.93411

     4   C  1s       1.99818
     4   C  2s       0.88246
     4   C  2p       1.12736    1.08597    1.10981

     5   C  1s       1.99818
     5   C  2s       0.88246
     5   C  2p       1.12736    1.08597    1.10981

     6   H  1s       0.93098

     7   H  1s       0.93470

     8   H  1s       0.93470

     9   H  1s       0.93098

    10   H  1s       0.93470

    11   H  1s       0.93470

 Summary of localized orbital composition:   [THRPRINT= 0.020]

   ORB  GRP  ORB.ENERGY      CENTERS/CHARGES
     1   1    -7.603573      C  1   2.000
     2   1    -7.600197      C  4   2.000
     3   1    -7.600197      C  5   2.000
     4   1     0.038969      C  4   0.994   C  1   0.991
     5   1     0.038969      C  5   0.994   C  1   0.991
     6   1     0.071282      C  5   1.064   H 10   0.926
     7   1     0.071282      C  5   1.064   H 11   0.926
     8   1     0.071282      C  4   1.064   H  7   0.926
     9   1     0.071282      C  4   1.064   H  8   0.926
    10   1     0.071311      C  5   1.068   H  9   0.922
    11   1     0.071311      C  4   1.068   H  6   0.922
    12   1     0.073696      C  1   1.059   H  2   0.922
    13   1     0.073696      C  1   1.059   H  3   0.922

 Localized orbitals saved to record      2200.2  (orbital set 4)


 **********************************************************************************************************************************
 DATASETS  * FILE   NREC   LENGTH (MB)   RECORD NAMES
              1      20       31.56       500      610      700      900      950      970     1000      129      960     1100   
                                          VAR    BASINP    GEOM    SYMINP    ZMAT    AOBASIS   BASIS     P2S    ABASIS      S 
                                         1400     1410     1200     1210     1080     1600     1650     1300     1700     1800   
                                           T        V       H0       H01     AOSYM     SMH    MOLCAS    ERIS     OPER     GRID   

              2       5        2.96       700     1000      520     1800     2200   
                                         GEOM     BASIS   MCVARS    GRID      UKS  

 PROGRAMS   *        TOTAL      IBBA       UKS       INT
 CPU TIMES  *         3.63      0.02      3.22      0.25
 REAL TIME  *         5.57 SEC
 DISK USED  *        35.33 MB      
 **********************************************************************************************************************************
 Molecular orbitals read from record     2200.2  Type=UKS/LOCAL(IBO)  
 Occupation numbers read from record     2200.2  Type=UKS/LOCAL(IBO)  
 Orbital energies read from record       2200.2  Type=UKS/LOCAL(IBO)  
 Redundancy group numbers read from rec  2200.2  Type=UKS/BETA (state 1.1)

 IBBA/STO-3G energy=      0.000000000000

        UKS-SCF 
    -99.34818922
 **********************************************************************************************************************************
 Molpro calculation terminated
