
 Primary working directories    : /tmp/sb13343
 Secondary working directories  : /tmp/sb13343
 Wavefunction directory         : /panfs/panasas01/chem/sb13343/wfu/
 Main file repository           : /tmp/sb13343/

 SHA1      : b4a5b34a9e711420743f49e6833241d17c61fb3c
 NAME      : 2099.9.b4a5b34
 ARCHNAME  : linux/x86_64_openmp
 FC        : /cm/shared/languages/GCC-6.1/bin/gfortran
 BLASLIB   : -lblas
 id        : simonbennie

 Nodes     nprocs
 node35-048    1

 Using customized tuning parameters: mindgm=1; mindgv=20; mindgc=4; mindgr=1; noblas=0; minvec=7
 default implementation of scratch files=df  

 memory,500,m
 geomtyp=xyz
 nosym
 noorient
 geometry={
 C          0.00000        0.00000        0.58646
 H          0.87762        0.00000        1.24716
 H         -0.87762        0.00000        1.24716
 C          0.00000       -1.27718       -0.25989
 C          0.00000        1.27718       -0.25989
 H          0.00000       -2.17596        0.36762
 H         -0.88462       -1.32219       -0.90739
 H          0.88462       -1.32219       -0.90739
 H          0.00000        2.17596        0.36762
 H          0.88462        1.32219       -0.90739
 H         -0.88462        1.32219       -0.90739
 }
 basis={ default,svp }
 {uks,VWN80,direct;wf,26,1,0}
 {ibba,bonds=1}

 Variables initialized (895), CPU time= 0.00 sec
 Commands  initialized (725), CPU time= 0.01 sec, 591 directives.
 Default parameters read. Elapsed time= 0.16 sec

 Checking input...
 Passed
1


                                         ***  PROGRAM SYSTEM MOLPRO  ***
                                       Copyright, TTI GmbH Stuttgart, 2015
                                    Version 2099.9 linked May 26 2017 16:03:21


 **********************************************************************************************************************************
 LABEL *                                                                                 
  64 bit serial version                                                                  DATE: 08-Jun-17          TIME: 06:41:18  
 **********************************************************************************************************************************

 SHA1:             b4a5b34a9e711420743f49e6833241d17c61fb3c
 **********************************************************************************************************************************
 SETTING GEOMTYP        =    XYZ

 Variable memory set to  500000000 words,  buffer space 

 ZSYMEL=NOSYM

 SETTING BASIS          =    SVP


 Recomputing integrals since basis changed


 Using spherical harmonics

 Library entry C      S def2-SVP             selected for orbital group  1
 Library entry C      P def2-SVP             selected for orbital group  1
 Library entry C      D def2-SVP             selected for orbital group  1
 Library entry H      S def2-SVP             selected for orbital group  2
 Library entry H      P def2-SVP             selected for orbital group  2


 PROGRAM * SEWARD (Integral evaluation for generally contracted gaussian basis sets)     Author: Roland Lindh, 1990

 Geometry written to block  1 of record 700


 Point group  C1  



 ATOMIC COORDINATES

 NR  ATOM    CHARGE       X              Y              Z

   1  C       6.00    0.000000000    0.000000000    1.108248783
   2  H       1.00    1.658461441    0.000000000    2.356790834
   3  H       1.00   -1.658461441    0.000000000    2.356790834
   4  C       6.00    0.000000000   -2.413520412   -0.491120923
   5  C       6.00    0.000000000    2.413520412   -0.491120923
   6  H       1.00    0.000000000   -4.111968458    0.694701118
   7  H       1.00   -1.671689524   -2.498576985   -1.714718588
   8  H       1.00    1.671689524   -2.498576985   -1.714718588
   9  H       1.00    0.000000000    4.111968458    0.694701118
  10  H       1.00    1.671689524    2.498576985   -1.714718588
  11  H       1.00   -1.671689524    2.498576985   -1.714718588

 Bond lengths in Bohr (Angstrom)

 1-2  2.075897783  1-3  2.075897783  1-4  2.895352178  1-5  2.895352178  4-6  2.071448690
     ( 1.098517799)     ( 1.098517799)     ( 1.532154390)     ( 1.532154390)     ( 1.096163441)

  4- 7  2.073396183   4- 8  2.073396183   5- 9  2.071448690   5-10  2.073396183   5-11  2.073396183
       ( 1.097194010)       ( 1.097194010)       ( 1.096163441)       ( 1.097194010)       ( 1.097194010)

 Bond angles

  1-4-6  111.54675740   1-4-7  111.11159726   1-4-8  111.11159726   1-5-9  111.54675740

  1- 5-10  111.11159726   1- 5-11  111.11159726   2- 1- 3  106.05282696   2- 1- 4  109.40445441

  2-1-5  109.40445441   3-1-4  109.40445441   3-1-5  109.40445441   4-1-5  112.93744570

  6- 4- 7  107.70984506   6- 4- 8  107.70984506   7- 4- 8  107.46358962   9- 5-10  107.70984506

  9- 5-11  107.70984506  10- 5-11  107.46358962

 NUCLEAR CHARGE:                   26
 NUMBER OF PRIMITIVE AOS:         131
 NUMBER OF SYMMETRY AOS:          128
 NUMBER OF CONTRACTIONS:           82   (  82A   )
 NUMBER OF CORE ORBITALS:           3   (   3A   )
 NUMBER OF VALENCE ORBITALS:       20   (  20A   )


 NUCLEAR REPULSION ENERGY   82.25558439


 Eigenvalues of metric

         1 0.304E-02 0.671E-02 0.221E-01 0.273E-01 0.277E-01 0.357E-01 0.407E-01 0.451E-01


 Contracted 2-electron integrals neglected if value below      1.0D-11
 AO integral compression algorithm  1   Integral accuracy      1.0D-11

     24.379 MB (compressed) written to integral file ( 46.8%)


 NUMBER OF SORTED TWO-ELECTRON INTEGRALS:    5791906.     BUFFER LENGTH:  32768
 NUMBER OF SEGMENTS:   1  SEGMENT LENGTH:    5791906      RECORD LENGTH: 524288

 Memory used in sort:       6.35 MW

 SORT1 READ     6460078. AND WROTE     5119384. INTEGRALS IN     15 RECORDS. CPU TIME:     0.07 SEC, REAL TIME:     0.21 SEC
 SORT2 READ     5119384. AND WROTE     5791906. INTEGRALS IN     93 RECORDS. CPU TIME:     0.18 SEC, REAL TIME:     0.31 SEC

 FILE SIZES:   FILE 1:    54.8 MBYTE,  FILE 4:    62.9 MBYTE,   TOTAL:    117.7 MBYTE

 OPERATOR DM      FOR CENTER  0  COORDINATES:    0.000000    0.000000    0.000000


 **********************************************************************************************************************************
 DATASETS  * FILE   NREC   LENGTH (MB)   RECORD NAMES
              1      19       51.35       500      610      700      900      950      970     1000      129      960     1100   
                                          VAR    BASINP    GEOM    SYMINP    ZMAT    AOBASIS   BASIS     P2S    ABASIS      S 
                                         1400     1410     1200     1210     1080     1600     1650     1300     1700   
                                           T        V       H0       H01     AOSYM     SMH    MOLCAS    ERIS     OPER   

 PROGRAMS   *        TOTAL       INT
 CPU TIMES  *         1.29      1.15
 REAL TIME  *         2.21 SEC
 DISK USED  *       118.16 MB      
 **********************************************************************************************************************************

 Density functional group VWN80=VWN5
 Functional: VWN5(Automatically generated (new) VWN5)                          Gradient terms: 0
 Use grid at  1800.2

 Functional: VWN5                      Factor:  1.0000

 Generated new metagrid on record  1800.2 with target accuracy 1.0D-06 and 39228 points in CPU time    0.9
 Computed new grid on record 1800.1 in CPU time    1.0
   37929 words reserved for DFT integration

 PROGRAM * UKS-SCF (Unrestricted Kohn-Sham)     Authors: W. Meyer, H.-J. Werner, P.J. Knowles, 1993

 NUMBER OF ELECTRONS:      13+   13-    SPACE SYMMETRY=1    SPIN SYMMETRY: Singlet 
 CONVERGENCE THRESHOLDS:    1.00E-05 (Density)    1.00E-06 (Energy)
 MAX. NUMBER OF ITERATIONS:       60
 INTERPOLATION TYPE:            DIIS
 INTERPOLATION STEPS:              2 (START)      1 (STEP)
 LEVEL SHIFTS:                 -0.20 (ALPHA)  -0.20 (BETA) 



 Use fine grid record 1800.2 for energy threshold  1.0D-06
 Orbital guess generated from atomic densities. Full valence occupancy:   13

 Molecular orbital dump at record        2200.2

 Initial alpha occupation  13
 Initial beta  occupation  13

 ITERATION    DDIFF          GRAD             ENERGY        2-EL.EN.            DIPOLE MOMENTS         DIIS
    1      0.000D+00      0.000D+00      -101.82183651    258.295512    0.00000    0.00000    0.10452    0
    2      0.120D-01      0.453D-02      -101.85446461    267.553197    0.00000    0.00000    0.09736    1
    3      0.431D-02      0.310D-02      -101.88344575    263.648070    0.00000    0.00000    0.08783    2
    4      0.620D-03      0.106D-03      -101.88352674    263.768932    0.00000    0.00000    0.08666    3
    5      0.335D-03      0.420D-04      -101.88354165    263.777877    0.00000    0.00000    0.08624    4
    6      0.189D-03      0.196D-04      -101.88354505    263.779544   -0.00000    0.00000    0.08568    5
    7      0.957D-04      0.605D-05      -101.88354560    263.780615    0.00000    0.00000    0.08606    6
    8      0.272D-04      0.163D-05      -101.88354564    263.782073    0.00000    0.00000    0.08564    5
    9      0.711D-05      0.831D-06      -101.88354565    263.781428    0.00000    0.00000    0.08582    6
   10      0.330D-05      0.184D-06      -101.88354565    263.781579   -0.00000    0.00000    0.08580    7

 Final alpha occupancy:  13
 Final beta  occupancy:  13

 !UKS STATE 1.1 Energy               -101.883545648062
 Nuclear energy                        82.25558439
 One-electron energy                 -314.48947560
 Two-electron energy                  131.89078951
 Density functional                    -1.54044395     VWN5=-1.54044395
 Virial quotient                       -0.92341200
 !UKS STATE 1.1 Dipole moment          -0.00000000     0.00000000     0.08580065
 Dipole moment /Debye                  -0.00000000     0.00000000     0.21806922

 Orbital energies for positive spin:

         1.1          2.1          3.1          4.1          5.1          6.1          7.1          8.1          9.1         10.1
     -8.250080    -8.248675    -8.246618    -0.409309    -0.308004    -0.225829    -0.157742    -0.135901    -0.094277    -0.068012

        11.1         12.1         13.1         14.1         15.1
     -0.031959    -0.031930    -0.014131     0.174009     0.223168

 Orbital energies for negative spin:

         1.1          2.1          3.1          4.1          5.1          6.1          7.1          8.1          9.1         10.1
     -8.250080    -8.248675    -8.246618    -0.409309    -0.308004    -0.225829    -0.157742    -0.135901    -0.094277    -0.068012

        11.1         12.1         13.1         14.1         15.1
     -0.031959    -0.031930    -0.014131     0.174009     0.223168

 HOMO     13.1    -0.014131 =      -0.3845eV
 LUMO     14.1     0.174009 =       4.7350eV
 LUMO-HOMO         0.188140 =       5.1196eV

 EXPECTATION VALUE OF S**2:            -0.00000000

 Natural orbitals saved to record    2200.2 (Orbital set 3)

 Orbital spaces for UNO-CAS (Min. occupation: 0.020  Max. occupation: 1.980):

 Closed:       13
 Active:        0


 **********************************************************************************************************************************
 DATASETS  * FILE   NREC   LENGTH (MB)   RECORD NAMES
              1      20       52.60       500      610      700      900      950      970     1000      129      960     1100   
                                          VAR    BASINP    GEOM    SYMINP    ZMAT    AOBASIS   BASIS     P2S    ABASIS      S 
                                         1400     1410     1200     1210     1080     1600     1650     1300     1700     1800   
                                           T        V       H0       H01     AOSYM     SMH    MOLCAS    ERIS     OPER     GRID   

              2       5        3.21       700     1000      520     1800     2200   
                                         GEOM     BASIS   MCVARS    GRID      UKS  

 PROGRAMS   *        TOTAL       UKS       INT
 CPU TIMES  *         6.77      5.48      1.15
 REAL TIME  *        13.68 SEC
 DISK USED  *       118.16 MB      
 **********************************************************************************************************************************


 PROGRAM * Intrinsic Basis Bonding Analysis (IBBA)          Author: G. Knizia

 Molecular orbitals read from record     2200.2  Type=UKS/ALPHA (state 1.1)
 Fock matrix read from record            2200.2  Type=UKS/TOTAL (state 1.1)
 Orbital energies read from record       2200.2  Type=UKS/ALPHA (state 1.1)
 Density matrix read from record         2200.2  Type=UKS/CHARGE (state 1.1)

 Number of core orbitals:           3 (   3 )
 Number of closed-shell orbitals:  10 (  10 )

 Basis set MINAO-AUTO-PP generated.      Number of basis functions:   23 

 Polarized AO type:                A = (O Ot + (1-O)(1-Ot)) P12
 Orthogonalization method:         Symmetric (Loewdin)
 Localization functional:          L = sum[A,i] <i|n_A|i>^4 -> max

 Localization group 1:  13 orbitals, occupancy  2.000
 Iterative localization: IB/PM,    8 iter; Final gradient 0.45E-09

 Bond order analysis:       [THRPRINT= 0.020]

   CEN ATOM   CEN ATOM     WIBERG.BO      RENORM.BO
     1   C  -   5   C       1.044756       1.046908
     1   C  -   4   C       1.044756       1.046908
     1   C  -   3   H       0.933504       0.952428
     1   C  -   2   H       0.933504       0.952428

     2   H  -   1   C       0.933504       0.952428
     2   H  -   7   H       0.026271       0.028086
     2   H  -  11   H       0.026271       0.028086

     3   H  -   1   C       0.933504       0.952428
     3   H  -  10   H       0.026271       0.028086
     3   H  -   8   H       0.026271       0.028086

     4   C  -   1   C       1.044756       1.046908
     4   C  -   6   H       0.963388       0.975690
     4   C  -   8   H       0.956290       0.962007
     4   C  -   7   H       0.956290       0.962007

     5   C  -   1   C       1.044756       1.046908
     5   C  -   9   H       0.963388       0.975690
     5   C  -  11   H       0.956290       0.962007
     5   C  -  10   H       0.956290       0.962007

     6   H  -   4   C       0.963388       0.975690

     7   H  -   4   C       0.956290       0.962007
     7   H  -   2   H       0.026271       0.028086

     8   H  -   4   C       0.956290       0.962007
     8   H  -   3   H       0.026271       0.028086

     9   H  -   5   C       0.963388       0.975690

    10   H  -   5   C       0.956290       0.962007
    10   H  -   3   H       0.026271       0.028086

    11   H  -   5   C       0.956290       0.962007
    11   H  -   2   H       0.026271       0.028086


 Valency analysis:

   CEN ATOM   TOT.VALENCE
     1   C       3.969693
     2   H       0.999152
     3   H       0.999152
     4   C       3.964408
     5   C       3.964408
     6   H       0.998074
     7   H       0.998662
     8   H       0.998662
     9   H       0.998074
    10   H       0.998662
    11   H       0.998662

 Total charge composition:

   CEN ATOM         s          p       ELECTRONS ->P.CHARGE
     1   C       2.85590    3.16012      6.01602   -0.01602
     2   H       0.97088                 0.97088    0.02912
     3   H       0.97088                 0.97088    0.02912
     4   C       2.88696    3.25117      6.13814   -0.13814
     5   C       2.88696    3.25117      6.13814   -0.13814
     6   H       0.95612                 0.95612    0.04388
     7   H       0.96343                 0.96343    0.03657
     8   H       0.96343                 0.96343    0.03657
     9   H       0.95612                 0.95612    0.04388
    10   H       0.96343                 0.96343    0.03657
    11   H       0.96343                 0.96343    0.03657

 Total charge composition, AO contributions:

   CEN ATOM SHL      SPHERICAL COMPONENTS
     1   C  1s       1.99794
     1   C  2s       0.85797
     1   C  2p       1.07804    1.03063    1.05145

     2   H  1s       0.97088

     3   H  1s       0.97088

     4   C  1s       1.99780
     4   C  2s       0.88917
     4   C  2p       1.09981    1.07110    1.08027

     5   C  1s       1.99780
     5   C  2s       0.88917
     5   C  2p       1.09981    1.07110    1.08027

     6   H  1s       0.95612

     7   H  1s       0.96343

     8   H  1s       0.96343

     9   H  1s       0.95612

    10   H  1s       0.96343

    11   H  1s       0.96343

 Summary of localized orbital composition:   [THRPRINT= 0.020]

   ORB  GRP  ORB.ENERGY      CENTERS/CHARGES
     1   1    -8.171643      C  1   2.000
     2   1    -8.169309      C  5   2.000
     3   1    -8.169309      C  4   2.000
     4   1    -0.226690      C  5   1.006   C  1   0.981
     5   1    -0.226690      C  4   1.006   C  1   0.981
     6   1    -0.158211      C  5   1.033   H 11   0.950
     7   1    -0.158211      C  4   1.033   H  7   0.950
     8   1    -0.158211      C  4   1.033   H  8   0.950
     9   1    -0.158211      C  5   1.033   H 10   0.950
    10   1    -0.156803      C  1   1.008   H  2   0.956   (other: 0.036)
    11   1    -0.156803      C  1   1.008   H  3   0.956   (other: 0.036)
    12   1    -0.156185      C  5   1.039   H  9   0.946
    13   1    -0.156185      C  4   1.039   H  6   0.946

 Localized orbitals saved to record      2200.2  (orbital set 4)


 **********************************************************************************************************************************
 DATASETS  * FILE   NREC   LENGTH (MB)   RECORD NAMES
              1      20       52.60       500      610      700      900      950      970     1000      129      960     1100   
                                          VAR    BASINP    GEOM    SYMINP    ZMAT    AOBASIS   BASIS     P2S    ABASIS      S 
                                         1400     1410     1200     1210     1080     1600     1650     1300     1700     1800   
                                           T        V       H0       H01     AOSYM     SMH    MOLCAS    ERIS     OPER     GRID   

              2       5        3.26       700     1000      520     1800     2200   
                                         GEOM     BASIS   MCVARS    GRID      UKS  

 PROGRAMS   *        TOTAL      IBBA       UKS       INT
 CPU TIMES  *         6.80      0.03      5.48      1.15
 REAL TIME  *        13.80 SEC
 DISK USED  *       118.16 MB      
 **********************************************************************************************************************************
 Molecular orbitals read from record     2200.2  Type=UKS/LOCAL(IBO)  
 Occupation numbers read from record     2200.2  Type=UKS/LOCAL(IBO)  
 Orbital energies read from record       2200.2  Type=UKS/LOCAL(IBO)  
 Redundancy group numbers read from rec  2200.2  Type=UKS/BETA (state 1.1)

 IBBA/SVP energy=      0.000000000000

        UKS-SCF 
   -101.88354565
 **********************************************************************************************************************************
 Molpro calculation terminated
