
 Primary working directories    : /tmp/sb13343
 Secondary working directories  : /tmp/sb13343
 Wavefunction directory         : /panfs/panasas01/chem/sb13343/wfu/
 Main file repository           : /tmp/sb13343/

 SHA1      : b4a5b34a9e711420743f49e6833241d17c61fb3c
 NAME      : 2099.9.b4a5b34
 ARCHNAME  : linux/x86_64_openmp
 FC        : /cm/shared/languages/GCC-6.1/bin/gfortran
 BLASLIB   : -lblas
 id        : simonbennie

 Nodes     nprocs
 node35-048    1

 Using customized tuning parameters: mindgm=1; mindgv=20; mindgc=4; mindgr=1; noblas=0; minvec=7
 default implementation of scratch files=df  

 memory,500,m
 geomtyp=xyz
 nosym
 noorient
 geometry={
 C          0.00000        0.00000        0.58646
 H          0.87762        0.00000        1.24716
 H         -0.87762        0.00000        1.24716
 C          0.00000       -1.27718       -0.25989
 C          0.00000        1.27718       -0.25989
 H          0.00000       -2.17596        0.36762
 H         -0.88462       -1.32219       -0.90739
 H          0.88462       -1.32219       -0.90739
 H          0.00000        2.17596        0.36762
 H          0.88462        1.32219       -0.90739
 H         -0.88462        1.32219       -0.90739
 }
 basis={ default,svp }
 {uks,MM05-2X,direct;wf,26,1,0}
 {ibba,bonds=1}

 Variables initialized (895), CPU time= 0.00 sec
 Commands  initialized (725), CPU time= 0.01 sec, 591 directives.
 Default parameters read. Elapsed time= 0.10 sec

 Checking input...
 Passed
1


                                         ***  PROGRAM SYSTEM MOLPRO  ***
                                       Copyright, TTI GmbH Stuttgart, 2015
                                    Version 2099.9 linked May 26 2017 16:03:21


 **********************************************************************************************************************************
 LABEL *                                                                                 
  64 bit serial version                                                                  DATE: 08-Jun-17          TIME: 06:43:26  
 **********************************************************************************************************************************

 SHA1:             b4a5b34a9e711420743f49e6833241d17c61fb3c
 **********************************************************************************************************************************
 SETTING GEOMTYP        =    XYZ

 Variable memory set to  500000000 words,  buffer space 

 ZSYMEL=NOSYM

 SETTING BASIS          =    SVP


 Recomputing integrals since basis changed


 Using spherical harmonics

 Library entry C      S def2-SVP             selected for orbital group  1
 Library entry C      P def2-SVP             selected for orbital group  1
 Library entry C      D def2-SVP             selected for orbital group  1
 Library entry H      S def2-SVP             selected for orbital group  2
 Library entry H      P def2-SVP             selected for orbital group  2


 PROGRAM * SEWARD (Integral evaluation for generally contracted gaussian basis sets)     Author: Roland Lindh, 1990

 Geometry written to block  1 of record 700


 Point group  C1  



 ATOMIC COORDINATES

 NR  ATOM    CHARGE       X              Y              Z

   1  C       6.00    0.000000000    0.000000000    1.108248783
   2  H       1.00    1.658461441    0.000000000    2.356790834
   3  H       1.00   -1.658461441    0.000000000    2.356790834
   4  C       6.00    0.000000000   -2.413520412   -0.491120923
   5  C       6.00    0.000000000    2.413520412   -0.491120923
   6  H       1.00    0.000000000   -4.111968458    0.694701118
   7  H       1.00   -1.671689524   -2.498576985   -1.714718588
   8  H       1.00    1.671689524   -2.498576985   -1.714718588
   9  H       1.00    0.000000000    4.111968458    0.694701118
  10  H       1.00    1.671689524    2.498576985   -1.714718588
  11  H       1.00   -1.671689524    2.498576985   -1.714718588

 Bond lengths in Bohr (Angstrom)

 1-2  2.075897783  1-3  2.075897783  1-4  2.895352178  1-5  2.895352178  4-6  2.071448690
     ( 1.098517799)     ( 1.098517799)     ( 1.532154390)     ( 1.532154390)     ( 1.096163441)

  4- 7  2.073396183   4- 8  2.073396183   5- 9  2.071448690   5-10  2.073396183   5-11  2.073396183
       ( 1.097194010)       ( 1.097194010)       ( 1.096163441)       ( 1.097194010)       ( 1.097194010)

 Bond angles

  1-4-6  111.54675740   1-4-7  111.11159726   1-4-8  111.11159726   1-5-9  111.54675740

  1- 5-10  111.11159726   1- 5-11  111.11159726   2- 1- 3  106.05282696   2- 1- 4  109.40445441

  2-1-5  109.40445441   3-1-4  109.40445441   3-1-5  109.40445441   4-1-5  112.93744570

  6- 4- 7  107.70984506   6- 4- 8  107.70984506   7- 4- 8  107.46358962   9- 5-10  107.70984506

  9- 5-11  107.70984506  10- 5-11  107.46358962

 NUCLEAR CHARGE:                   26
 NUMBER OF PRIMITIVE AOS:         131
 NUMBER OF SYMMETRY AOS:          128
 NUMBER OF CONTRACTIONS:           82   (  82A   )
 NUMBER OF CORE ORBITALS:           3   (   3A   )
 NUMBER OF VALENCE ORBITALS:       20   (  20A   )


 NUCLEAR REPULSION ENERGY   82.25558439


 Eigenvalues of metric

         1 0.304E-02 0.671E-02 0.221E-01 0.273E-01 0.277E-01 0.357E-01 0.407E-01 0.451E-01


 Contracted 2-electron integrals neglected if value below      1.0D-11
 AO integral compression algorithm  1   Integral accuracy      1.0D-11

     24.379 MB (compressed) written to integral file ( 46.8%)


 NUMBER OF SORTED TWO-ELECTRON INTEGRALS:    5791906.     BUFFER LENGTH:  32768
 NUMBER OF SEGMENTS:   1  SEGMENT LENGTH:    5791906      RECORD LENGTH: 524288

 Memory used in sort:       6.35 MW

 SORT1 READ     6460078. AND WROTE     5119384. INTEGRALS IN     15 RECORDS. CPU TIME:     0.07 SEC, REAL TIME:     0.19 SEC
 SORT2 READ     5119384. AND WROTE     5791906. INTEGRALS IN     93 RECORDS. CPU TIME:     0.19 SEC, REAL TIME:     0.26 SEC

 FILE SIZES:   FILE 1:    54.8 MBYTE,  FILE 4:    62.9 MBYTE,   TOTAL:    117.7 MBYTE

 OPERATOR DM      FOR CENTER  0  COORDINATES:    0.000000    0.000000    0.000000


 **********************************************************************************************************************************
 DATASETS  * FILE   NREC   LENGTH (MB)   RECORD NAMES
              1      19       51.35       500      610      700      900      950      970     1000      129      960     1100   
                                          VAR    BASINP    GEOM    SYMINP    ZMAT    AOBASIS   BASIS     P2S    ABASIS      S 
                                         1400     1410     1200     1210     1080     1600     1650     1300     1700   
                                           T        V       H0       H01     AOSYM     SMH    MOLCAS    ERIS     OPER   

 PROGRAMS   *        TOTAL       INT
 CPU TIMES  *         1.30      1.17
 REAL TIME  *         2.04 SEC
 DISK USED  *       118.16 MB      
 **********************************************************************************************************************************

 Density functional group MM05-2X=M052XX+M052XC
 Functional: M052XX(Automatically generated (new) M052XX)                      Gradient terms: 2
 Functional: M052XC(Automatically generated (new) M052XC)                      Gradient terms: 2
 Use grid at  1800.2


 Exact exchange will be calculated, factor:  0.5600

 Functional: M052XX                    Factor:  0.4400
 Functional: M052XC                    Factor:  1.0000

 Generated new metagrid on record  1800.2 with target accuracy 1.0D-06 and 39228 points in CPU time    0.8
 Computed new grid on record 1800.1 in CPU time    0.9
  131655 words reserved for DFT integration

 PROGRAM * UKS-SCF (Unrestricted Kohn-Sham)     Authors: W. Meyer, H.-J. Werner, P.J. Knowles, 1993

 NUMBER OF ELECTRONS:      13+   13-    SPACE SYMMETRY=1    SPIN SYMMETRY: Singlet 
 CONVERGENCE THRESHOLDS:    1.00E-05 (Density)    1.00E-06 (Energy)
 MAX. NUMBER OF ITERATIONS:       60
 INTERPOLATION TYPE:            DIIS
 INTERPOLATION STEPS:              2 (START)      1 (STEP)
 LEVEL SHIFTS:                 -0.20 (ALPHA)  -0.20 (BETA) 



 Use fine grid record 1800.2 for energy threshold  1.0D-06
 Orbital guess generated from atomic densities. Full valence occupancy:   13

 Molecular orbital dump at record        2200.2

 Initial alpha occupation  13
 Initial beta  occupation  13

 ITERATION    DDIFF          GRAD             ENERGY        2-EL.EN.            DIPOLE MOMENTS         DIIS
    1      0.000D+00      0.000D+00      -118.93758753    263.142079    0.00000    0.00000   -0.00861    0
    2      0.814D-02      0.447D-02      -119.00884579    256.216833    0.00000    0.00000    0.00071    1
    3      0.199D-02      0.131D-02      -119.01441897    257.430549    0.00000    0.00000    0.01754    2
    4      0.120D-02      0.322D-03      -119.01532381    257.343345    0.00000    0.00000    0.02134    3
    5      0.474D-03      0.805D-04      -119.01539000    257.326605    0.00000    0.00000    0.02154    4
    6      0.156D-03      0.200D-04      -119.01539398    257.316867    0.00000    0.00000    0.02150    5
    7      0.315D-04      0.600D-05      -119.01539423    257.317380    0.00000    0.00000    0.02103    6
    8      0.995D-05      0.146D-05      -119.01539425    257.317300    0.00000    0.00000    0.02105    6
    9      0.216D-05      0.302D-06      -119.01539425    257.317216    0.00000    0.00000    0.02101    6

 Final alpha occupancy:  13
 Final beta  occupancy:  13

 !UKS STATE 1.1 Energy               -119.015394249385
 Nuclear energy                        82.25558439
 One-electron energy                 -321.01249297
 Two-electron energy                  128.65860818
 Density functional                    -8.91709384     M052XX=-18.28329422 M052XC= -0.87244439
 Virial quotient                       -1.01394773
 !UKS STATE 1.1 Dipole moment           0.00000000     0.00000000     0.02101227
 Dipole moment /Debye                   0.00000000     0.00000000     0.05340437

 Orbital energies for positive spin:

         1.1          2.1          3.1          4.1          5.1          6.1          7.1          8.1          9.1         10.1
    -10.569352   -10.562899   -10.562873    -0.874884    -0.767533    -0.664319    -0.529254    -0.506690    -0.465212    -0.446280

        11.1         12.1         13.1         14.1         15.1
     -0.398842    -0.397797    -0.388820     0.109159     0.159330

 Orbital energies for negative spin:

         1.1          2.1          3.1          4.1          5.1          6.1          7.1          8.1          9.1         10.1
    -10.569352   -10.562899   -10.562873    -0.874884    -0.767533    -0.664319    -0.529254    -0.506690    -0.465212    -0.446280

        11.1         12.1         13.1         14.1         15.1
     -0.398842    -0.397797    -0.388820     0.109159     0.159330

 HOMO     13.1    -0.388820 =     -10.5803eV
 LUMO     14.1     0.109159 =       2.9704eV
 LUMO-HOMO         0.497979 =      13.5507eV

 EXPECTATION VALUE OF S**2:            -0.00000000

 Natural orbitals saved to record    2200.2 (Orbital set 3)

 Orbital spaces for UNO-CAS (Min. occupation: 0.020  Max. occupation: 1.980):

 Closed:       13
 Active:        0


 **********************************************************************************************************************************
 DATASETS  * FILE   NREC   LENGTH (MB)   RECORD NAMES
              1      20       52.60       500      610      700      900      950      970     1000      129      960     1100   
                                          VAR    BASINP    GEOM    SYMINP    ZMAT    AOBASIS   BASIS     P2S    ABASIS      S 
                                         1400     1410     1200     1210     1080     1600     1650     1300     1700     1800   
                                           T        V       H0       H01     AOSYM     SMH    MOLCAS    ERIS     OPER     GRID   

              2       5        3.21       700     1000      520     1800     2200   
                                         GEOM     BASIS   MCVARS    GRID      UKS  

 PROGRAMS   *        TOTAL       UKS       INT
 CPU TIMES  *        36.71     35.41      1.17
 REAL TIME  *        43.77 SEC
 DISK USED  *       118.16 MB      
 **********************************************************************************************************************************


 PROGRAM * Intrinsic Basis Bonding Analysis (IBBA)          Author: G. Knizia

 Molecular orbitals read from record     2200.2  Type=UKS/ALPHA (state 1.1)
 Fock matrix read from record            2200.2  Type=UKS/TOTAL (state 1.1)
 Orbital energies read from record       2200.2  Type=UKS/ALPHA (state 1.1)
 Density matrix read from record         2200.2  Type=UKS/CHARGE (state 1.1)

 Number of core orbitals:           3 (   3 )
 Number of closed-shell orbitals:  10 (  10 )

 Basis set MINAO-AUTO-PP generated.      Number of basis functions:   23 

 Polarized AO type:                A = (O Ot + (1-O)(1-Ot)) P12
 Orthogonalization method:         Symmetric (Loewdin)
 Localization functional:          L = sum[A,i] <i|n_A|i>^4 -> max

 Localization group 1:  13 orbitals, occupancy  2.000
 Iterative localization: IB/PM,    7 iter; Final gradient 0.59E-09

 Bond order analysis:       [THRPRINT= 0.020]

   CEN ATOM   CEN ATOM     WIBERG.BO      RENORM.BO
     1   C  -   4   C       1.025267       1.019189
     1   C  -   5   C       1.025267       1.019189
     1   C  -   3   H       0.952218       0.972421
     1   C  -   2   H       0.952218       0.972421

     2   H  -   1   C       0.952218       0.972421

     3   H  -   1   C       0.952218       0.972421

     4   C  -   1   C       1.025267       1.019189
     4   C  -   6   H       0.965565       0.987240
     4   C  -   8   H       0.965273       0.983378
     4   C  -   7   H       0.965273       0.983378

     5   C  -   1   C       1.025267       1.019189
     5   C  -   9   H       0.965565       0.987240
     5   C  -  11   H       0.965273       0.983378
     5   C  -  10   H       0.965273       0.983378

     6   H  -   4   C       0.965565       0.987240

     7   H  -   4   C       0.965273       0.983378

     8   H  -   4   C       0.965273       0.983378

     9   H  -   5   C       0.965565       0.987240

    10   H  -   5   C       0.965273       0.983378

    11   H  -   5   C       0.965273       0.983378


 Valency analysis:

   CEN ATOM   TOT.VALENCE
     1   C       3.960720
     2   H       0.984323
     3   H       0.984323
     4   C       3.939061
     5   C       3.939061
     6   H       0.982358
     7   H       0.983713
     8   H       0.983713
     9   H       0.982358
    10   H       0.983713
    11   H       0.983713

 Total charge composition:

   CEN ATOM         s          p       ELECTRONS ->P.CHARGE
     1   C       2.97492    3.26030      6.23522   -0.23522
     2   H       0.87479                 0.87479    0.12521
     3   H       0.87479                 0.87479    0.12521
     4   C       3.00947    3.38619      6.39566   -0.39566
     5   C       3.00947    3.38619      6.39566   -0.39566
     6   H       0.86718                 0.86718    0.13282
     7   H       0.87238                 0.87238    0.12762
     8   H       0.87238                 0.87238    0.12762
     9   H       0.86718                 0.86718    0.13282
    10   H       0.87238                 0.87238    0.12762
    11   H       0.87238                 0.87238    0.12762

 Total charge composition, AO contributions:

   CEN ATOM SHL      SPHERICAL COMPONENTS
     1   C  1s       1.99106
     1   C  2s       0.98386
     1   C  2p       1.15628    1.01405    1.08997

     2   H  1s       0.87479

     3   H  1s       0.87479

     4   C  1s       1.99077
     4   C  2s       1.01870
     4   C  2p       1.16211    1.09333    1.13075

     5   C  1s       1.99077
     5   C  2s       1.01870
     5   C  2p       1.16211    1.09333    1.13075

     6   H  1s       0.86718

     7   H  1s       0.87238

     8   H  1s       0.87238

     9   H  1s       0.86718

    10   H  1s       0.87238

    11   H  1s       0.87238

 Summary of localized orbital composition:   [THRPRINT= 0.020]

   ORB  GRP  ORB.ENERGY      CENTERS/CHARGES
     1   1   -10.457410      C  1   2.000
     2   1   -10.445861      C  4   2.000
     3   1   -10.445861      C  5   2.000
     4   1    -0.631951      C  4   1.003   C  1   0.989
     5   1    -0.631951      C  5   1.003   C  1   0.989
     6   1    -0.566412      C  5   1.131   H  9   0.861
     7   1    -0.566412      C  4   1.131   H  6   0.861
     8   1    -0.565842      C  5   1.126   H 10   0.866
     9   1    -0.565842      C  4   1.126   H  7   0.866
    10   1    -0.565842      C  5   1.126   H 11   0.866
    11   1    -0.565842      C  4   1.126   H  8   0.866
    12   1    -0.562779      C  1   1.118   H  2   0.866
    13   1    -0.562779      C  1   1.118   H  3   0.866

 Localized orbitals saved to record      2200.2  (orbital set 4)


 **********************************************************************************************************************************
 DATASETS  * FILE   NREC   LENGTH (MB)   RECORD NAMES
              1      20       52.60       500      610      700      900      950      970     1000      129      960     1100   
                                          VAR    BASINP    GEOM    SYMINP    ZMAT    AOBASIS   BASIS     P2S    ABASIS      S 
                                         1400     1410     1200     1210     1080     1600     1650     1300     1700     1800   
                                           T        V       H0       H01     AOSYM     SMH    MOLCAS    ERIS     OPER     GRID   

              2       5        3.26       700     1000      520     1800     2200   
                                         GEOM     BASIS   MCVARS    GRID      UKS  

 PROGRAMS   *        TOTAL      IBBA       UKS       INT
 CPU TIMES  *        36.74      0.03     35.41      1.17
 REAL TIME  *        51.95 SEC
 DISK USED  *       118.16 MB      
 **********************************************************************************************************************************
 Molecular orbitals read from record     2200.2  Type=UKS/LOCAL(IBO)  
 Occupation numbers read from record     2200.2  Type=UKS/LOCAL(IBO)  
 Orbital energies read from record       2200.2  Type=UKS/LOCAL(IBO)  
 Redundancy group numbers read from rec  2200.2  Type=UKS/BETA (state 1.1)

 IBBA/SVP energy=      0.000000000000

        UKS-SCF 
   -119.01539425
 **********************************************************************************************************************************
 Molpro calculation terminated
