
 Primary working directories    : /tmp/sb13343
 Secondary working directories  : /tmp/sb13343
 Wavefunction directory         : /panfs/panasas01/chem/sb13343/wfu/
 Main file repository           : /tmp/sb13343/

 SHA1      : b4a5b34a9e711420743f49e6833241d17c61fb3c
 NAME      : 2099.9.b4a5b34
 ARCHNAME  : linux/x86_64_openmp
 FC        : /cm/shared/languages/GCC-6.1/bin/gfortran
 BLASLIB   : -lblas
 id        : simonbennie

 Nodes     nprocs
 node35-048    1

 Using customized tuning parameters: mindgm=1; mindgv=20; mindgc=4; mindgr=1; noblas=0; minvec=7
 default implementation of scratch files=df  

 memory,500,m
 geomtyp=xyz
 nosym
 noorient
 geometry={
 C          0.00000        0.00000        0.58646
 H          0.87762        0.00000        1.24716
 H         -0.87762        0.00000        1.24716
 C          0.00000       -1.27718       -0.25989
 C          0.00000        1.27718       -0.25989
 H          0.00000       -2.17596        0.36762
 H         -0.88462       -1.32219       -0.90739
 H          0.88462       -1.32219       -0.90739
 H          0.00000        2.17596        0.36762
 H          0.88462        1.32219       -0.90739
 H         -0.88462        1.32219       -0.90739
 }
 basis={ default,svp }
 {uks,CS,direct;wf,26,1,0}
 {ibba,bonds=1}

 Variables initialized (895), CPU time= 0.01 sec
 Commands  initialized (725), CPU time= 0.01 sec, 591 directives.
 Default parameters read. Elapsed time= 0.18 sec

 Checking input...
 Passed
1


                                         ***  PROGRAM SYSTEM MOLPRO  ***
                                       Copyright, TTI GmbH Stuttgart, 2015
                                    Version 2099.9 linked May 26 2017 16:03:21


 **********************************************************************************************************************************
 LABEL *                                                                                 
  64 bit serial version                                                                  DATE: 08-Jun-17          TIME: 06:40:14  
 **********************************************************************************************************************************

 SHA1:             b4a5b34a9e711420743f49e6833241d17c61fb3c
 **********************************************************************************************************************************
 SETTING GEOMTYP        =    XYZ

 Variable memory set to  500000000 words,  buffer space 

 ZSYMEL=NOSYM

 SETTING BASIS          =    SVP


 Recomputing integrals since basis changed


 Using spherical harmonics

 Library entry C      S def2-SVP             selected for orbital group  1
 Library entry C      P def2-SVP             selected for orbital group  1
 Library entry C      D def2-SVP             selected for orbital group  1
 Library entry H      S def2-SVP             selected for orbital group  2
 Library entry H      P def2-SVP             selected for orbital group  2


 PROGRAM * SEWARD (Integral evaluation for generally contracted gaussian basis sets)     Author: Roland Lindh, 1990

 Geometry written to block  1 of record 700


 Point group  C1  



 ATOMIC COORDINATES

 NR  ATOM    CHARGE       X              Y              Z

   1  C       6.00    0.000000000    0.000000000    1.108248783
   2  H       1.00    1.658461441    0.000000000    2.356790834
   3  H       1.00   -1.658461441    0.000000000    2.356790834
   4  C       6.00    0.000000000   -2.413520412   -0.491120923
   5  C       6.00    0.000000000    2.413520412   -0.491120923
   6  H       1.00    0.000000000   -4.111968458    0.694701118
   7  H       1.00   -1.671689524   -2.498576985   -1.714718588
   8  H       1.00    1.671689524   -2.498576985   -1.714718588
   9  H       1.00    0.000000000    4.111968458    0.694701118
  10  H       1.00    1.671689524    2.498576985   -1.714718588
  11  H       1.00   -1.671689524    2.498576985   -1.714718588

 Bond lengths in Bohr (Angstrom)

 1-2  2.075897783  1-3  2.075897783  1-4  2.895352178  1-5  2.895352178  4-6  2.071448690
     ( 1.098517799)     ( 1.098517799)     ( 1.532154390)     ( 1.532154390)     ( 1.096163441)

  4- 7  2.073396183   4- 8  2.073396183   5- 9  2.071448690   5-10  2.073396183   5-11  2.073396183
       ( 1.097194010)       ( 1.097194010)       ( 1.096163441)       ( 1.097194010)       ( 1.097194010)

 Bond angles

  1-4-6  111.54675740   1-4-7  111.11159726   1-4-8  111.11159726   1-5-9  111.54675740

  1- 5-10  111.11159726   1- 5-11  111.11159726   2- 1- 3  106.05282696   2- 1- 4  109.40445441

  2-1-5  109.40445441   3-1-4  109.40445441   3-1-5  109.40445441   4-1-5  112.93744570

  6- 4- 7  107.70984506   6- 4- 8  107.70984506   7- 4- 8  107.46358962   9- 5-10  107.70984506

  9- 5-11  107.70984506  10- 5-11  107.46358962

 NUCLEAR CHARGE:                   26
 NUMBER OF PRIMITIVE AOS:         131
 NUMBER OF SYMMETRY AOS:          128
 NUMBER OF CONTRACTIONS:           82   (  82A   )
 NUMBER OF CORE ORBITALS:           3   (   3A   )
 NUMBER OF VALENCE ORBITALS:       20   (  20A   )


 NUCLEAR REPULSION ENERGY   82.25558439


 Eigenvalues of metric

         1 0.304E-02 0.671E-02 0.221E-01 0.273E-01 0.277E-01 0.357E-01 0.407E-01 0.451E-01


 Contracted 2-electron integrals neglected if value below      1.0D-11
 AO integral compression algorithm  1   Integral accuracy      1.0D-11

     24.379 MB (compressed) written to integral file ( 46.8%)


 NUMBER OF SORTED TWO-ELECTRON INTEGRALS:    5791906.     BUFFER LENGTH:  32768
 NUMBER OF SEGMENTS:   1  SEGMENT LENGTH:    5791906      RECORD LENGTH: 524288

 Memory used in sort:       6.35 MW

 SORT1 READ     6460078. AND WROTE     5119384. INTEGRALS IN     15 RECORDS. CPU TIME:     0.08 SEC, REAL TIME:     0.38 SEC
 SORT2 READ     5119384. AND WROTE     5791906. INTEGRALS IN     93 RECORDS. CPU TIME:     0.19 SEC, REAL TIME:     0.25 SEC

 FILE SIZES:   FILE 1:    54.8 MBYTE,  FILE 4:    62.9 MBYTE,   TOTAL:    117.7 MBYTE

 OPERATOR DM      FOR CENTER  0  COORDINATES:    0.000000    0.000000    0.000000


 **********************************************************************************************************************************
 DATASETS  * FILE   NREC   LENGTH (MB)   RECORD NAMES
              1      19       51.35       500      610      700      900      950      970     1000      129      960     1100   
                                          VAR    BASINP    GEOM    SYMINP    ZMAT    AOBASIS   BASIS     P2S    ABASIS      S 
                                         1400     1410     1200     1210     1080     1600     1650     1300     1700   
                                           T        V       H0       H01     AOSYM     SMH    MOLCAS    ERIS     OPER   

 PROGRAMS   *        TOTAL       INT
 CPU TIMES  *         1.30      1.16
 REAL TIME  *         2.47 SEC
 DISK USED  *       118.16 MB      
 **********************************************************************************************************************************

 Density functional group CS=CS1
 Functional: CS1(Colle-Salvetti (Gradient form))                               Gradient terms: 1
 Use grid at  1800.2

 Functional: CS1                       Factor:  1.0000

 Generated new metagrid on record  1800.2 with target accuracy 1.0D-06 and 39228 points in CPU time    0.9
 Computed new grid on record 1800.1 in CPU time    1.0
   69171 words reserved for DFT integration

 PROGRAM * UKS-SCF (Unrestricted Kohn-Sham)     Authors: W. Meyer, H.-J. Werner, P.J. Knowles, 1993

 NUMBER OF ELECTRONS:      13+   13-    SPACE SYMMETRY=1    SPIN SYMMETRY: Singlet 
 CONVERGENCE THRESHOLDS:    1.00E-05 (Density)    1.00E-06 (Energy)
 MAX. NUMBER OF ITERATIONS:       60
 INTERPOLATION TYPE:            DIIS
 INTERPOLATION STEPS:              2 (START)      1 (STEP)
 LEVEL SHIFTS:                 -0.20 (ALPHA)  -0.20 (BETA) 



 Use fine grid record 1800.2 for energy threshold  1.0D-06
 Orbital guess generated from atomic densities. Full valence occupancy:   13

 Molecular orbital dump at record        2200.2

 Initial alpha occupation  13
 Initial beta  occupation  13

 ITERATION    DDIFF          GRAD             ENERGY        2-EL.EN.            DIPOLE MOMENTS         DIIS
    1      0.000D+00      0.000D+00      -101.04842198    257.187232    0.00000    0.00000    0.12368    0
    2      0.148D-01      0.493D-02      -101.08515133    267.828974    0.00000    0.00000    0.10377    1
    3      0.498D-02      0.360D-02      -101.12397701    263.354299    0.00000    0.00000    0.09468    2
    4      0.964D-03      0.121D-03      -101.12410348    263.464105    0.00000    0.00000    0.09264    3
    5      0.518D-03      0.514D-04      -101.12412950    263.478607   -0.00000    0.00000    0.09139    4
    6      0.307D-03      0.249D-04      -101.12413626    263.481673   -0.00000    0.00000    0.09038    5
    7      0.162D-03      0.938D-05      -101.12413763    263.483316    0.00000   -0.00000    0.09077    6
    8      0.451D-04      0.295D-05      -101.12413776    263.485357   -0.00000    0.00000    0.09020    6
    9      0.199D-04      0.110D-05      -101.12413778    263.485060   -0.00000    0.00000    0.09030    6
   10      0.633D-05      0.329D-06      -101.12413778    263.485341    0.00000   -0.00000    0.09027    7
   11      0.728D-06      0.617D-07      -101.12413778    263.485295    0.00000    0.00000    0.09028    7

 Final alpha occupancy:  13
 Final beta  occupancy:  13

 !UKS STATE 1.1 Energy               -101.124137782618
 Nuclear energy                        82.25558439
 One-electron energy                 -314.34221348
 Two-electron energy                  131.74264774
 Density functional                    -0.78015643     CS1=-0.78015643
 Virial quotient                       -0.91760520
 !UKS STATE 1.1 Dipole moment           0.00000000     0.00000000     0.09027504
 Dipole moment /Debye                   0.00000000     0.00000000     0.22944122

 Orbital energies for positive spin:

         1.1          2.1          3.1          4.1          5.1          6.1          7.1          8.1          9.1         10.1
     -8.199690    -8.198047    -8.196098    -0.385938    -0.285119    -0.203983    -0.138131    -0.116544    -0.075186    -0.048241

        11.1         12.1         13.1         14.1         15.1
     -0.013157    -0.013146     0.005433     0.183019     0.232625

 Orbital energies for negative spin:

         1.1          2.1          3.1          4.1          5.1          6.1          7.1          8.1          9.1         10.1
     -8.199690    -8.198047    -8.196098    -0.385938    -0.285119    -0.203983    -0.138131    -0.116544    -0.075186    -0.048241

        11.1         12.1         13.1         14.1         15.1
     -0.013157    -0.013146     0.005433     0.183019     0.232625

 HOMO     13.1     0.005433 =       0.1478eV
 LUMO     14.1     0.183019 =       4.9802eV
 LUMO-HOMO         0.177586 =       4.8324eV

 EXPECTATION VALUE OF S**2:            -0.00000000

 Natural orbitals saved to record    2200.2 (Orbital set 3)

 Orbital spaces for UNO-CAS (Min. occupation: 0.020  Max. occupation: 1.980):

 Closed:       13
 Active:        0


 **********************************************************************************************************************************
 DATASETS  * FILE   NREC   LENGTH (MB)   RECORD NAMES
              1      20       52.60       500      610      700      900      950      970     1000      129      960     1100   
                                          VAR    BASINP    GEOM    SYMINP    ZMAT    AOBASIS   BASIS     P2S    ABASIS      S 
                                         1400     1410     1200     1210     1080     1600     1650     1300     1700     1800   
                                           T        V       H0       H01     AOSYM     SMH    MOLCAS    ERIS     OPER     GRID   

              2       5        3.21       700     1000      520     1800     2200   
                                         GEOM     BASIS   MCVARS    GRID      UKS  

 PROGRAMS   *        TOTAL       UKS       INT
 CPU TIMES  *        19.22     17.92      1.16
 REAL TIME  *        22.76 SEC
 DISK USED  *       118.16 MB      
 **********************************************************************************************************************************


 PROGRAM * Intrinsic Basis Bonding Analysis (IBBA)          Author: G. Knizia

 Molecular orbitals read from record     2200.2  Type=UKS/ALPHA (state 1.1)
 Fock matrix read from record            2200.2  Type=UKS/TOTAL (state 1.1)
 Orbital energies read from record       2200.2  Type=UKS/ALPHA (state 1.1)
 Density matrix read from record         2200.2  Type=UKS/CHARGE (state 1.1)

 Number of core orbitals:           3 (   3 )
 Number of closed-shell orbitals:  10 (  10 )

 Basis set MINAO-AUTO-PP generated.      Number of basis functions:   23 

 Polarized AO type:                A = (O Ot + (1-O)(1-Ot)) P12
 Orthogonalization method:         Symmetric (Loewdin)
 Localization functional:          L = sum[A,i] <i|n_A|i>^4 -> max

 Localization group 1:  13 orbitals, occupancy  2.000
 Iterative localization: IB/PM,    8 iter; Final gradient 0.49E-09

 Bond order analysis:       [THRPRINT= 0.020]

   CEN ATOM   CEN ATOM     WIBERG.BO      RENORM.BO
     1   C  -   4   C       1.045432       1.047416
     1   C  -   5   C       1.045432       1.047416
     1   C  -   3   H       0.931816       0.951693
     1   C  -   2   H       0.931816       0.951693

     2   H  -   1   C       0.931816       0.951693
     2   H  -   7   H       0.026890       0.028839
     2   H  -  11   H       0.026890       0.028839

     3   H  -   1   C       0.931816       0.951693
     3   H  -  10   H       0.026890       0.028839
     3   H  -   8   H       0.026890       0.028839

     4   C  -   1   C       1.045432       1.047416
     4   C  -   6   H       0.962152       0.975252
     4   C  -   8   H       0.954619       0.960617
     4   C  -   7   H       0.954619       0.960617

     5   C  -   1   C       1.045432       1.047416
     5   C  -   9   H       0.962152       0.975252
     5   C  -  11   H       0.954619       0.960617
     5   C  -  10   H       0.954619       0.960617

     6   H  -   4   C       0.962152       0.975252

     7   H  -   4   C       0.954619       0.960617
     7   H  -   2   H       0.026890       0.028839

     8   H  -   4   C       0.954619       0.960617
     8   H  -   3   H       0.026890       0.028839

     9   H  -   5   C       0.962152       0.975252

    10   H  -   5   C       0.954619       0.960617
    10   H  -   3   H       0.026890       0.028839

    11   H  -   5   C       0.954619       0.960617
    11   H  -   2   H       0.026890       0.028839


 Valency analysis:

   CEN ATOM   TOT.VALENCE
     1   C       3.968248
     2   H       0.999063
     3   H       0.999063
     4   C       3.962559
     5   C       3.962559
     6   H       0.997881
     7   H       0.998544
     8   H       0.998544
     9   H       0.997881
    10   H       0.998544
    11   H       0.998544

 Total charge composition:

   CEN ATOM         s          p       ELECTRONS ->P.CHARGE
     1   C       2.85311    3.16510      6.01821   -0.01821
     2   H       0.96938                 0.96938    0.03062
     3   H       0.96938                 0.96938    0.03062
     4   C       2.88524    3.25864      6.14387   -0.14387
     5   C       2.88524    3.25864      6.14387   -0.14387
     6   H       0.95397                 0.95397    0.04603
     7   H       0.96184                 0.96184    0.03816
     8   H       0.96184                 0.96184    0.03816
     9   H       0.95397                 0.95397    0.04603
    10   H       0.96184                 0.96184    0.03816
    11   H       0.96184                 0.96184    0.03816

 Total charge composition, AO contributions:

   CEN ATOM SHL      SPHERICAL COMPONENTS
     1   C  1s       1.99800
     1   C  2s       0.85511
     1   C  2p       1.08073    1.03170    1.05267

     2   H  1s       0.96938

     3   H  1s       0.96938

     4   C  1s       1.99786
     4   C  2s       0.88738
     4   C  2p       1.10322    1.07300    1.08241

     5   C  1s       1.99786
     5   C  2s       0.88738
     5   C  2p       1.10322    1.07300    1.08241

     6   H  1s       0.95397

     7   H  1s       0.96184

     8   H  1s       0.96184

     9   H  1s       0.95397

    10   H  1s       0.96184

    11   H  1s       0.96184

 Summary of localized orbital composition:   [THRPRINT= 0.020]

   ORB  GRP  ORB.ENERGY      CENTERS/CHARGES
     1   1    -8.122027      C  1   2.000
     2   1    -8.119317      C  5   2.000
     3   1    -8.119317      C  4   2.000
     4   1    -0.207110      C  5   1.006   C  1   0.980
     5   1    -0.207110      C  4   1.006   C  1   0.980
     6   1    -0.137421      C  5   1.034   H 11   0.948
     7   1    -0.137421      C  4   1.034   H  7   0.948
     8   1    -0.137421      C  4   1.034   H  8   0.948
     9   1    -0.137421      C  5   1.034   H 10   0.948
    10   1    -0.136217      C  1   1.009   H  2   0.954   (other: 0.037)
    11   1    -0.136217      C  1   1.009   H  3   0.954   (other: 0.037)
    12   1    -0.135428      C  5   1.041   H  9   0.943
    13   1    -0.135428      C  4   1.041   H  6   0.943

 Localized orbitals saved to record      2200.2  (orbital set 4)


 **********************************************************************************************************************************
 DATASETS  * FILE   NREC   LENGTH (MB)   RECORD NAMES
              1      20       52.60       500      610      700      900      950      970     1000      129      960     1100   
                                          VAR    BASINP    GEOM    SYMINP    ZMAT    AOBASIS   BASIS     P2S    ABASIS      S 
                                         1400     1410     1200     1210     1080     1600     1650     1300     1700     1800   
                                           T        V       H0       H01     AOSYM     SMH    MOLCAS    ERIS     OPER     GRID   

              2       5        3.26       700     1000      520     1800     2200   
                                         GEOM     BASIS   MCVARS    GRID      UKS  

 PROGRAMS   *        TOTAL      IBBA       UKS       INT
 CPU TIMES  *        19.25      0.03     17.92      1.16
 REAL TIME  *        22.87 SEC
 DISK USED  *       118.16 MB      
 **********************************************************************************************************************************
 Molecular orbitals read from record     2200.2  Type=UKS/LOCAL(IBO)  
 Occupation numbers read from record     2200.2  Type=UKS/LOCAL(IBO)  
 Orbital energies read from record       2200.2  Type=UKS/LOCAL(IBO)  
 Redundancy group numbers read from rec  2200.2  Type=UKS/BETA (state 1.1)

 IBBA/SVP energy=      0.000000000000

        UKS-SCF 
   -101.12413778
 **********************************************************************************************************************************
 Molpro calculation terminated
