
 Primary working directories    : /tmp/sb13343
 Secondary working directories  : /tmp/sb13343
 Wavefunction directory         : /panfs/panasas01/chem/sb13343/wfu/
 Main file repository           : /tmp/sb13343/

 SHA1      : b4a5b34a9e711420743f49e6833241d17c61fb3c
 NAME      : 2099.9.b4a5b34
 ARCHNAME  : linux/x86_64_openmp
 FC        : /cm/shared/languages/GCC-6.1/bin/gfortran
 BLASLIB   : -lblas
 id        : simonbennie

 Nodes     nprocs
 node35-048    1

 Using customized tuning parameters: mindgm=1; mindgv=20; mindgc=4; mindgr=1; noblas=0; minvec=7
 default implementation of scratch files=df  

 memory,500,m
 geomtyp=xyz
 nosym
 noorient
 geometry={
 C          0.00000        0.00000        0.58646
 H          0.87762        0.00000        1.24716
 H         -0.87762        0.00000        1.24716
 C          0.00000       -1.27718       -0.25989
 C          0.00000        1.27718       -0.25989
 H          0.00000       -2.17596        0.36762
 H         -0.88462       -1.32219       -0.90739
 H          0.88462       -1.32219       -0.90739
 H          0.00000        2.17596        0.36762
 H          0.88462        1.32219       -0.90739
 H         -0.88462        1.32219       -0.90739
 }
 basis={ default,svp }
 {ks,VWN,direct;wf,26,1,0}
 {ibba,bonds=1}

 Variables initialized (895), CPU time= 0.00 sec
 Commands  initialized (725), CPU time= 0.02 sec, 591 directives.
 Default parameters read. Elapsed time= 5.05 sec

 Checking input...
 Passed
1


                                         ***  PROGRAM SYSTEM MOLPRO  ***
                                       Copyright, TTI GmbH Stuttgart, 2015
                                    Version 2099.9 linked May 26 2017 16:03:21


 **********************************************************************************************************************************
 LABEL *                                                                                 
  64 bit serial version                                                                  DATE: 08-Jun-17          TIME: 06:49:58  
 **********************************************************************************************************************************

 SHA1:             b4a5b34a9e711420743f49e6833241d17c61fb3c
 **********************************************************************************************************************************
 SETTING GEOMTYP        =    XYZ

 Variable memory set to  500000000 words,  buffer space 

 ZSYMEL=NOSYM

 SETTING BASIS          =    SVP


 Recomputing integrals since basis changed


 Using spherical harmonics

 Library entry C      S def2-SVP             selected for orbital group  1
 Library entry C      P def2-SVP             selected for orbital group  1
 Library entry C      D def2-SVP             selected for orbital group  1
 Library entry H      S def2-SVP             selected for orbital group  2
 Library entry H      P def2-SVP             selected for orbital group  2


 PROGRAM * SEWARD (Integral evaluation for generally contracted gaussian basis sets)     Author: Roland Lindh, 1990

 Geometry written to block  1 of record 700


 Point group  C1  



 ATOMIC COORDINATES

 NR  ATOM    CHARGE       X              Y              Z

   1  C       6.00    0.000000000    0.000000000    1.108248783
   2  H       1.00    1.658461441    0.000000000    2.356790834
   3  H       1.00   -1.658461441    0.000000000    2.356790834
   4  C       6.00    0.000000000   -2.413520412   -0.491120923
   5  C       6.00    0.000000000    2.413520412   -0.491120923
   6  H       1.00    0.000000000   -4.111968458    0.694701118
   7  H       1.00   -1.671689524   -2.498576985   -1.714718588
   8  H       1.00    1.671689524   -2.498576985   -1.714718588
   9  H       1.00    0.000000000    4.111968458    0.694701118
  10  H       1.00    1.671689524    2.498576985   -1.714718588
  11  H       1.00   -1.671689524    2.498576985   -1.714718588

 Bond lengths in Bohr (Angstrom)

 1-2  2.075897783  1-3  2.075897783  1-4  2.895352178  1-5  2.895352178  4-6  2.071448690
     ( 1.098517799)     ( 1.098517799)     ( 1.532154390)     ( 1.532154390)     ( 1.096163441)

  4- 7  2.073396183   4- 8  2.073396183   5- 9  2.071448690   5-10  2.073396183   5-11  2.073396183
       ( 1.097194010)       ( 1.097194010)       ( 1.096163441)       ( 1.097194010)       ( 1.097194010)

 Bond angles

  1-4-6  111.54675740   1-4-7  111.11159726   1-4-8  111.11159726   1-5-9  111.54675740

  1- 5-10  111.11159726   1- 5-11  111.11159726   2- 1- 3  106.05282696   2- 1- 4  109.40445441

  2-1-5  109.40445441   3-1-4  109.40445441   3-1-5  109.40445441   4-1-5  112.93744570

  6- 4- 7  107.70984506   6- 4- 8  107.70984506   7- 4- 8  107.46358962   9- 5-10  107.70984506

  9- 5-11  107.70984506  10- 5-11  107.46358962

 NUCLEAR CHARGE:                   26
 NUMBER OF PRIMITIVE AOS:         131
 NUMBER OF SYMMETRY AOS:          128
 NUMBER OF CONTRACTIONS:           82   (  82A   )
 NUMBER OF CORE ORBITALS:           3   (   3A   )
 NUMBER OF VALENCE ORBITALS:       20   (  20A   )


 NUCLEAR REPULSION ENERGY   82.25558439


 Eigenvalues of metric

         1 0.304E-02 0.671E-02 0.221E-01 0.273E-01 0.277E-01 0.357E-01 0.407E-01 0.451E-01


 Contracted 2-electron integrals neglected if value below      1.0D-11
 AO integral compression algorithm  1   Integral accuracy      1.0D-11

     24.379 MB (compressed) written to integral file ( 46.8%)


 NUMBER OF SORTED TWO-ELECTRON INTEGRALS:    5791906.     BUFFER LENGTH:  32768
 NUMBER OF SEGMENTS:   1  SEGMENT LENGTH:    5791906      RECORD LENGTH: 524288

 Memory used in sort:       6.35 MW

 SORT1 READ     6460078. AND WROTE     5119384. INTEGRALS IN     15 RECORDS. CPU TIME:     0.08 SEC, REAL TIME:     0.29 SEC
 SORT2 READ     5119384. AND WROTE     5791906. INTEGRALS IN     93 RECORDS. CPU TIME:     0.17 SEC, REAL TIME:     0.25 SEC

 FILE SIZES:   FILE 1:    54.8 MBYTE,  FILE 4:    62.9 MBYTE,   TOTAL:    117.7 MBYTE

 OPERATOR DM      FOR CENTER  0  COORDINATES:    0.000000    0.000000    0.000000


 **********************************************************************************************************************************
 DATASETS  * FILE   NREC   LENGTH (MB)   RECORD NAMES
              1      19       51.35       500      610      700      900      950      970     1000      129      960     1100   
                                          VAR    BASINP    GEOM    SYMINP    ZMAT    AOBASIS   BASIS     P2S    ABASIS      S 
                                         1400     1410     1200     1210     1080     1600     1650     1300     1700   
                                           T        V       H0       H01     AOSYM     SMH    MOLCAS    ERIS     OPER   

 PROGRAMS   *        TOTAL       INT
 CPU TIMES  *         1.27      1.13
 REAL TIME  *         7.58 SEC
 DISK USED  *       118.16 MB      
 **********************************************************************************************************************************

 Density functional group VWN=VWN5
 Functional: VWN5(Automatically generated (new) VWN5)                          Gradient terms: 0
 Use grid at  1800.2

 Functional: VWN5                      Factor:  1.0000

 Generated new metagrid on record  1800.2 with target accuracy 1.0D-06 and 39228 points in CPU time    0.9
 Computed new grid on record 1800.1 in CPU time    1.0
   37929 words reserved for DFT integration

 PROGRAM * RKS-SCF (Restricted closed shell Kohn-Sham)     Authors: W. Meyer, H.-J. Werner, P.J. Knowles, 1993

 NUMBER OF ELECTRONS:      13+   13-    SPACE SYMMETRY=1    SPIN SYMMETRY: Singlet 
 CONVERGENCE THRESHOLDS:    1.00E-05 (Density)    1.00E-06 (Energy)
 MAX. NUMBER OF ITERATIONS:       60
 INTERPOLATION TYPE:            DIIS
 INTERPOLATION STEPS:              2 (START)      1 (STEP)
 LEVEL SHIFTS:                  0.00 (CLOSED)  0.00 (OPEN) 



 Use fine grid record 1800.2 for energy threshold  1.0D-06
 Orbital guess generated from atomic densities. Full valence occupancy:   13

 Molecular orbital dump at record        2100.2

 Initial occupancy:  13

 ITERATION    DDIFF          GRAD             ENERGY        2-EL.EN.            DIPOLE MOMENTS         DIIS   ORB.
    1      0.000D+00      0.000D+00      -101.82183651    258.295512    0.00000    0.00000    0.10452    0    start
    2      0.000D+00      0.882D-02      -101.60481473    276.574930    0.00000    0.00000    0.06519    1    diag
    3      0.273D-01      0.175D-01      -101.88192029    262.809064    0.00000    0.00000    0.08448    2    diag
    4      0.210D-01      0.122D-02      -101.88346193    263.963990    0.00000    0.00000    0.08411    3    diag
    5      0.288D-02      0.264D-03      -101.88353807    263.788399    0.00000    0.00000    0.08811    4    diag
    6      0.663D-03      0.934D-04      -101.88354509    263.776292   -0.00000    0.00000    0.08588    5    diag
    7      0.112D-03      0.249D-04      -101.88354563    263.779321    0.00000    0.00000    0.08542    6    diag
    8      0.280D-04      0.371D-05      -101.88354565    263.781191   -0.00000    0.00000    0.08601    7    diag
    9      0.716D-05      0.101D-05      -101.88354565    263.782371    0.00000   -0.00000    0.08557    0    orth

 Final occupancy:  13

 !RKS STATE 1.1 Energy               -101.883545645909
 Nuclear energy                        82.25558439
 One-electron energy                 -314.48986954
 Two-electron energy                  131.89118569
 Density functional                    -1.54044619     VWN5=-1.54044619
 Virial quotient                       -0.92341049
 !RKS STATE 1.1 Dipole moment           0.00000000    -0.00000000     0.08557103
 Dipole moment /Debye                   0.00000000    -0.00000000     0.21748562

 Orbital energies:

         1.1          2.1          3.1          4.1          5.1          6.1          7.1          8.1          9.1         10.1
     -8.250053    -8.248646    -8.246591    -0.409294    -0.307990    -0.225817    -0.157731    -0.135887    -0.094265    -0.068004

        11.1         12.1         13.1         14.1         15.1
     -0.031945    -0.031918    -0.014122     0.174014     0.223172

 HOMO     13.1    -0.014122 =      -0.3843eV
 LUMO     14.1     0.174014 =       4.7352eV
 LUMO-HOMO         0.188135 =       5.1194eV


 **********************************************************************************************************************************
 DATASETS  * FILE   NREC   LENGTH (MB)   RECORD NAMES
              1      20       52.60       500      610      700      900      950      970     1000      129      960     1100   
                                          VAR    BASINP    GEOM    SYMINP    ZMAT    AOBASIS   BASIS     P2S    ABASIS      S 
                                         1400     1410     1200     1210     1080     1600     1650     1300     1700     1800   
                                           T        V       H0       H01     AOSYM     SMH    MOLCAS    ERIS     OPER     GRID   

              2       5        3.07       700     1000      520     1800     2100   
                                         GEOM     BASIS   MCVARS    GRID      RKS  

 PROGRAMS   *        TOTAL        KS       INT
 CPU TIMES  *         5.13      3.86      1.13
 REAL TIME  *        13.77 SEC
 DISK USED  *       118.16 MB      
 **********************************************************************************************************************************


 PROGRAM * Intrinsic Basis Bonding Analysis (IBBA)          Author: G. Knizia

 Molecular orbitals read from record     2100.2  Type=RKS/CANONICAL (state 1.1)
 Fock matrix read from record            2100.2  Type=RKS/TOTAL (state 1.1)
 Orbital energies read from record       2100.2  Type=RKS/CANONICAL (state 1.1)
 Density matrix read from record         2100.2  Type=RKS/CHARGE (state 1.1)

 Number of core orbitals:           3 (   3 )
 Number of closed-shell orbitals:  10 (  10 )

 Basis set MINAO-AUTO-PP generated.      Number of basis functions:   23 

 Polarized AO type:                A = (O Ot + (1-O)(1-Ot)) P12
 Orthogonalization method:         Symmetric (Loewdin)
 Localization functional:          L = sum[A,i] <i|n_A|i>^4 -> max

 Localization group 1:  13 orbitals, occupancy  2.000
 Iterative localization: IB/PM,    8 iter; Final gradient 0.39E-09

 Bond order analysis:       [THRPRINT= 0.020]

   CEN ATOM   CEN ATOM     WIBERG.BO      RENORM.BO
     1   C  -   4   C       1.044754       1.046906
     1   C  -   5   C       1.044754       1.046906
     1   C  -   3   H       0.933506       0.952426
     1   C  -   2   H       0.933506       0.952426

     2   H  -   1   C       0.933506       0.952426
     2   H  -   7   H       0.026270       0.028086
     2   H  -  11   H       0.026270       0.028086

     3   H  -   1   C       0.933506       0.952426
     3   H  -  10   H       0.026270       0.028086
     3   H  -   8   H       0.026270       0.028086

     4   C  -   1   C       1.044754       1.046906
     4   C  -   6   H       0.963389       0.975691
     4   C  -   8   H       0.956289       0.962010
     4   C  -   7   H       0.956289       0.962010

     5   C  -   1   C       1.044754       1.046906
     5   C  -   9   H       0.963389       0.975691
     5   C  -  11   H       0.956289       0.962010
     5   C  -  10   H       0.956289       0.962010

     6   H  -   4   C       0.963389       0.975691

     7   H  -   4   C       0.956289       0.962010
     7   H  -   2   H       0.026270       0.028086

     8   H  -   4   C       0.956289       0.962010
     8   H  -   3   H       0.026270       0.028086

     9   H  -   5   C       0.963389       0.975691

    10   H  -   5   C       0.956289       0.962010
    10   H  -   3   H       0.026270       0.028086

    11   H  -   5   C       0.956289       0.962010
    11   H  -   2   H       0.026270       0.028086


 Valency analysis:

   CEN ATOM   TOT.VALENCE
     1   C       3.969693
     2   H       0.999152
     3   H       0.999152
     4   C       3.964404
     5   C       3.964404
     6   H       0.998074
     7   H       0.998661
     8   H       0.998661
     9   H       0.998074
    10   H       0.998661
    11   H       0.998661

 Total charge composition:

   CEN ATOM         s          p       ELECTRONS ->P.CHARGE
     1   C       2.85591    3.16012      6.01603   -0.01603
     2   H       0.97088                 0.97088    0.02912
     3   H       0.97088                 0.97088    0.02912
     4   C       2.88697    3.25120      6.13817   -0.13817
     5   C       2.88697    3.25120      6.13817   -0.13817
     6   H       0.95612                 0.95612    0.04388
     7   H       0.96341                 0.96341    0.03659
     8   H       0.96341                 0.96341    0.03659
     9   H       0.95612                 0.95612    0.04388
    10   H       0.96341                 0.96341    0.03659
    11   H       0.96341                 0.96341    0.03659

 Total charge composition, AO contributions:

   CEN ATOM SHL      SPHERICAL COMPONENTS
     1   C  1s       1.99794
     1   C  2s       0.85797
     1   C  2p       1.07804    1.03063    1.05145

     2   H  1s       0.97088

     3   H  1s       0.97088

     4   C  1s       1.99780
     4   C  2s       0.88917
     4   C  2p       1.09983    1.07109    1.08028

     5   C  1s       1.99780
     5   C  2s       0.88917
     5   C  2p       1.09983    1.07109    1.08028

     6   H  1s       0.95612

     7   H  1s       0.96341

     8   H  1s       0.96341

     9   H  1s       0.95612

    10   H  1s       0.96341

    11   H  1s       0.96341

 Summary of localized orbital composition:   [THRPRINT= 0.020]

   ORB  GRP  ORB.ENERGY      CENTERS/CHARGES
     1   1    -8.171620      C  1   2.000
     2   1    -8.169280      C  5   2.000
     3   1    -8.169280      C  4   2.000
     4   1    -0.226673      C  5   1.006   C  1   0.981
     5   1    -0.226673      C  4   1.006   C  1   0.981
     6   1    -0.158206      C  4   1.033   H  7   0.950
     7   1    -0.158206      C  4   1.033   H  8   0.950
     8   1    -0.158206      C  5   1.033   H 11   0.950
     9   1    -0.158206      C  5   1.033   H 10   0.950
    10   1    -0.156787      C  1   1.008   H  3   0.956   (other: 0.036)
    11   1    -0.156787      C  1   1.008   H  2   0.956   (other: 0.036)
    12   1    -0.156170      C  5   1.039   H  9   0.946
    13   1    -0.156170      C  4   1.039   H  6   0.946

 Localized orbitals saved to record      2100.2  (orbital set 2)


 **********************************************************************************************************************************
 DATASETS  * FILE   NREC   LENGTH (MB)   RECORD NAMES
              1      20       52.60       500      610      700      900      950      970     1000      129      960     1100   
                                          VAR    BASINP    GEOM    SYMINP    ZMAT    AOBASIS   BASIS     P2S    ABASIS      S 
                                         1400     1410     1200     1210     1080     1600     1650     1300     1700     1800   
                                           T        V       H0       H01     AOSYM     SMH    MOLCAS    ERIS     OPER     GRID   

              2       5        3.12       700     1000      520     1800     2100   
                                         GEOM     BASIS   MCVARS    GRID      RKS  

 PROGRAMS   *        TOTAL      IBBA        KS       INT
 CPU TIMES  *         5.16      0.03      3.86      1.13
 REAL TIME  *        13.86 SEC
 DISK USED  *       118.16 MB      
 **********************************************************************************************************************************
 Molecular orbitals read from record     2100.2  Type=RKS/LOCAL(IBO)  
 Occupation numbers read from record     2100.2  Type=RKS/LOCAL(IBO)  
 Orbital energies read from record       2100.2  Type=RKS/LOCAL(IBO)  
 Redundancy group numbers read from rec  2100.2  Type=RKS/LOCAL(IBO)  

 IBBA/SVP energy=      0.000000000000

        KS-SCF  
   -101.88354565
 **********************************************************************************************************************************
 Molpro calculation terminated
