
 Primary working directories    : /tmp/sb13343
 Secondary working directories  : /tmp/sb13343
 Wavefunction directory         : /panfs/panasas01/chem/sb13343/wfu/
 Main file repository           : /tmp/sb13343/

 SHA1      : b4a5b34a9e711420743f49e6833241d17c61fb3c
 NAME      : 2099.9.b4a5b34
 ARCHNAME  : linux/x86_64_openmp
 FC        : /cm/shared/languages/GCC-6.1/bin/gfortran
 BLASLIB   : -lblas
 id        : simonbennie

 Nodes     nprocs
 node35-048    1

 Using customized tuning parameters: mindgm=1; mindgv=20; mindgc=4; mindgr=1; noblas=0; minvec=7
 default implementation of scratch files=df  

 memory,500,m
 geomtyp=xyz
 nosym
 noorient
 geometry={
 C          0.00000        0.00000        0.58646
 H          0.87762        0.00000        1.24716
 H         -0.87762        0.00000        1.24716
 C          0.00000       -1.27718       -0.25989
 C          0.00000        1.27718       -0.25989
 H          0.00000       -2.17596        0.36762
 H         -0.88462       -1.32219       -0.90739
 H          0.88462       -1.32219       -0.90739
 H          0.00000        2.17596        0.36762
 H          0.88462        1.32219       -0.90739
 H         -0.88462        1.32219       -0.90739
 }
 basis={ default,sto-3g }
 {uks,B-LYP,direct;wf,26,1,0}
 {ibba,bonds=1}

 Variables initialized (895), CPU time= 0.00 sec
 Commands  initialized (725), CPU time= 0.01 sec, 591 directives.
 Default parameters read. Elapsed time= 0.20 sec

 Checking input...
 Passed
1


                                         ***  PROGRAM SYSTEM MOLPRO  ***
                                       Copyright, TTI GmbH Stuttgart, 2015
                                    Version 2099.9 linked May 26 2017 16:03:21


 **********************************************************************************************************************************
 LABEL *                                                                                 
  64 bit serial version                                                                  DATE: 08-Jun-17          TIME: 06:18:23  
 **********************************************************************************************************************************

 SHA1:             b4a5b34a9e711420743f49e6833241d17c61fb3c
 **********************************************************************************************************************************
 SETTING GEOMTYP        =    XYZ

 Variable memory set to  500000000 words,  buffer space 

 ZSYMEL=NOSYM

 SETTING BASIS          =    STO-3G


 Recomputing integrals since basis changed


 Using spherical harmonics

 Library entry C      S STO-3G               selected for orbital group  1
 Library entry C      P STO-3G               selected for orbital group  1
 Library entry H      S STO-3G               selected for orbital group  2


 PROGRAM * SEWARD (Integral evaluation for generally contracted gaussian basis sets)     Author: Roland Lindh, 1990

 Geometry written to block  1 of record 700


 Point group  C1  



 ATOMIC COORDINATES

 NR  ATOM    CHARGE       X              Y              Z

   1  C       6.00    0.000000000    0.000000000    1.108248783
   2  H       1.00    1.658461441    0.000000000    2.356790834
   3  H       1.00   -1.658461441    0.000000000    2.356790834
   4  C       6.00    0.000000000   -2.413520412   -0.491120923
   5  C       6.00    0.000000000    2.413520412   -0.491120923
   6  H       1.00    0.000000000   -4.111968458    0.694701118
   7  H       1.00   -1.671689524   -2.498576985   -1.714718588
   8  H       1.00    1.671689524   -2.498576985   -1.714718588
   9  H       1.00    0.000000000    4.111968458    0.694701118
  10  H       1.00    1.671689524    2.498576985   -1.714718588
  11  H       1.00   -1.671689524    2.498576985   -1.714718588

 Bond lengths in Bohr (Angstrom)

 1-2  2.075897783  1-3  2.075897783  1-4  2.895352178  1-5  2.895352178  4-6  2.071448690
     ( 1.098517799)     ( 1.098517799)     ( 1.532154390)     ( 1.532154390)     ( 1.096163441)

  4- 7  2.073396183   4- 8  2.073396183   5- 9  2.071448690   5-10  2.073396183   5-11  2.073396183
       ( 1.097194010)       ( 1.097194010)       ( 1.096163441)       ( 1.097194010)       ( 1.097194010)

 Bond angles

  1-4-6  111.54675740   1-4-7  111.11159726   1-4-8  111.11159726   1-5-9  111.54675740

  1- 5-10  111.11159726   1- 5-11  111.11159726   2- 1- 3  106.05282696   2- 1- 4  109.40445441

  2-1-5  109.40445441   3-1-4  109.40445441   3-1-5  109.40445441   4-1-5  112.93744570

  6- 4- 7  107.70984506   6- 4- 8  107.70984506   7- 4- 8  107.46358962   9- 5-10  107.70984506

  9- 5-11  107.70984506  10- 5-11  107.46358962

 NUCLEAR CHARGE:                   26
 NUMBER OF PRIMITIVE AOS:          69
 NUMBER OF SYMMETRY AOS:           69
 NUMBER OF CONTRACTIONS:           23   (  23A   )
 NUMBER OF CORE ORBITALS:           3   (   3A   )
 NUMBER OF VALENCE ORBITALS:       20   (  20A   )


 NUCLEAR REPULSION ENERGY   82.25558439


 Eigenvalues of metric

         1 0.205E+00 0.229E+00 0.269E+00 0.347E+00 0.363E+00 0.365E+00 0.371E+00 0.404E+00


 Contracted 2-electron integrals neglected if value below      1.0D-11
 AO integral compression algorithm  1   Integral accuracy      1.0D-11

     0.524 MB (compressed) written to integral file ( 99.9%)


 NUMBER OF SORTED TWO-ELECTRON INTEGRALS:      38226.     BUFFER LENGTH:  32768
 NUMBER OF SEGMENTS:   1  SEGMENT LENGTH:      38226      RECORD LENGTH: 524288

 Memory used in sort:       0.60 MW

 SORT1 READ       45011. AND WROTE       32610. INTEGRALS IN      1 RECORDS. CPU TIME:     0.00 SEC, REAL TIME:     0.00 SEC
 SORT2 READ       32610. AND WROTE       38226. INTEGRALS IN      2 RECORDS. CPU TIME:     0.01 SEC, REAL TIME:     0.01 SEC

 FILE SIZES:   FILE 1:    30.7 MBYTE,  FILE 4:     4.2 MBYTE,   TOTAL:     34.9 MBYTE

 OPERATOR DM      FOR CENTER  0  COORDINATES:    0.000000    0.000000    0.000000


 **********************************************************************************************************************************
 DATASETS  * FILE   NREC   LENGTH (MB)   RECORD NAMES
              1      19       30.30       500      610      700      900      950      970     1000      129      960     1100   
                                          VAR    BASINP    GEOM    SYMINP    ZMAT    AOBASIS   BASIS     P2S    ABASIS      S 
                                         1400     1410     1200     1210     1080     1600     1650     1300     1700   
                                           T        V       H0       H01     AOSYM     SMH    MOLCAS    ERIS     OPER   

 PROGRAMS   *        TOTAL       INT
 CPU TIMES  *         0.42      0.27
 REAL TIME  *         0.95 SEC
 DISK USED  *        35.33 MB      
 **********************************************************************************************************************************

 Density functional group B-LYP=B88+LYP
 Functional: B88(Automatically generated (new) B88)                            Gradient terms: 1
 Functional: LYP(Automatically generated (new) LYP)                            Gradient terms: 1
 Use grid at  1800.2

 Functional: B88                       Factor:  1.0000
 Functional: LYP                       Factor:  1.0000

 Generated new metagrid on record  1800.2 with target accuracy 1.0D-06 and 39228 points in CPU time    0.9
 Computed new grid on record 1800.1 in CPU time    0.9
   22549 words reserved for DFT integration

 PROGRAM * UKS-SCF (Unrestricted Kohn-Sham)     Authors: W. Meyer, H.-J. Werner, P.J. Knowles, 1993

 NUMBER OF ELECTRONS:      13+   13-    SPACE SYMMETRY=1    SPIN SYMMETRY: Singlet 
 CONVERGENCE THRESHOLDS:    1.00E-05 (Density)    1.00E-06 (Energy)
 MAX. NUMBER OF ITERATIONS:       60
 INTERPOLATION TYPE:            DIIS
 INTERPOLATION STEPS:              2 (START)      1 (STEP)
 LEVEL SHIFTS:                 -0.20 (ALPHA)  -0.20 (BETA) 



 Use fine grid record 1800.2 for energy threshold  1.0D-06
 Orbital guess generated from atomic densities. Full valence occupancy:   13

 Molecular orbital dump at record        2200.2

 Initial alpha occupation  13
 Initial beta  occupation  13

 ITERATION    DDIFF          GRAD             ENERGY        2-EL.EN.            DIPOLE MOMENTS         DIIS
    1      0.000D+00      0.000D+00      -117.44442426    286.884442    0.00000    0.00000   -0.01839    0
    2      0.698D-01      0.225D-01      -117.61320992    276.702701    0.00000    0.00000   -0.00862    1
    3      0.137D-01      0.567D-02      -117.62379488    278.616068    0.00000    0.00000    0.00356    2
    4      0.644D-03      0.224D-03      -117.62382209    278.616678    0.00000    0.00000    0.00742    3
    5      0.243D-03      0.609D-04      -117.62382446    278.615355    0.00000    0.00000    0.00872    4
    6      0.359D-04      0.894D-05      -117.62382450    278.615399    0.00000    0.00000    0.00860    4
    7      0.111D-04      0.433D-05      -117.62382451    278.615307    0.00000    0.00000    0.00860    5
    8      0.136D-05      0.475D-06      -117.62382451    278.615372    0.00000    0.00000    0.00860    5
    9      0.248D-06      0.685D-07      -117.62382451    278.615344    0.00000    0.00000    0.00860    5

 Final alpha occupancy:  13
 Final beta  occupancy:  13

 !UKS STATE 1.1 Energy               -117.623824510648
 Nuclear energy                        82.25558439
 One-electron energy                 -320.01241699
 Two-electron energy                  139.30767179
 Density functional                   -19.17466370     B88=-18.36692946 LYP= -0.80773423
 Virial quotient                       -1.01673383
 !UKS STATE 1.1 Dipole moment           0.00000000     0.00000000     0.00860076
 Dipole moment /Debye                   0.00000000     0.00000000     0.02185952

 Orbital energies for positive spin:

         1.1          2.1          3.1          4.1          5.1          6.1          7.1          8.1          9.1         10.1
     -9.749408    -9.738210    -9.738093    -0.659241    -0.569724    -0.484014    -0.364749    -0.344380    -0.308529    -0.292683

        11.1         12.1         13.1         14.1         15.1
     -0.248580    -0.248504    -0.241525     0.337862     0.340476

 Orbital energies for negative spin:

         1.1          2.1          3.1          4.1          5.1          6.1          7.1          8.1          9.1         10.1
     -9.749408    -9.738210    -9.738093    -0.659241    -0.569724    -0.484014    -0.364749    -0.344380    -0.308529    -0.292683

        11.1         12.1         13.1         14.1         15.1
     -0.248580    -0.248504    -0.241525     0.337862     0.340476

 HOMO     13.1    -0.241525 =      -6.5722eV
 LUMO     14.1     0.337862 =       9.1937eV
 LUMO-HOMO         0.579387 =      15.7659eV

 EXPECTATION VALUE OF S**2:            -0.00000000

 Natural orbitals saved to record    2200.2 (Orbital set 3)

 Orbital spaces for UNO-CAS (Min. occupation: 0.020  Max. occupation: 1.980):

 Closed:       13
 Active:        0


 **********************************************************************************************************************************
 DATASETS  * FILE   NREC   LENGTH (MB)   RECORD NAMES
              1      20       31.56       500      610      700      900      950      970     1000      129      960     1100   
                                          VAR    BASINP    GEOM    SYMINP    ZMAT    AOBASIS   BASIS     P2S    ABASIS      S 
                                         1400     1410     1200     1210     1080     1600     1650     1300     1700     1800   
                                           T        V       H0       H01     AOSYM     SMH    MOLCAS    ERIS     OPER     GRID   

              2       5        2.95       700     1000      520     1800     2200   
                                         GEOM     BASIS   MCVARS    GRID      UKS  

 PROGRAMS   *        TOTAL       UKS       INT
 CPU TIMES  *         3.15      2.73      0.27
 REAL TIME  *         4.52 SEC
 DISK USED  *        35.33 MB      
 **********************************************************************************************************************************


 PROGRAM * Intrinsic Basis Bonding Analysis (IBBA)          Author: G. Knizia

 Molecular orbitals read from record     2200.2  Type=UKS/ALPHA (state 1.1)
 Fock matrix read from record            2200.2  Type=UKS/TOTAL (state 1.1)
 Orbital energies read from record       2200.2  Type=UKS/ALPHA (state 1.1)
 Density matrix read from record         2200.2  Type=UKS/CHARGE (state 1.1)

 Number of core orbitals:           3 (   3 )
 Number of closed-shell orbitals:  10 (  10 )

 Basis set MINAO-AUTO-PP generated.      Number of basis functions:   23 

 Polarized AO type:                A = (O Ot + (1-O)(1-Ot)) P12
 Orthogonalization method:         Symmetric (Loewdin)
 Localization functional:          L = sum[A,i] <i|n_A|i>^4 -> max

 Localization group 1:  13 orbitals, occupancy  2.000
 Iterative localization: IB/PM,    7 iter; Final gradient 0.61E-09

 Bond order analysis:       [THRPRINT= 0.020]

   CEN ATOM   CEN ATOM     WIBERG.BO      RENORM.BO
     1   C  -   4   C       1.022565       1.017872
     1   C  -   5   C       1.022565       1.017872
     1   C  -   3   H       0.953120       0.973551
     1   C  -   2   H       0.953120       0.973551

     2   H  -   1   C       0.953120       0.973551

     3   H  -   1   C       0.953120       0.973551

     4   C  -   1   C       1.022565       1.017872
     4   C  -   8   H       0.966209       0.985367
     4   C  -   7   H       0.966209       0.985367
     4   C  -   6   H       0.965825       0.987359

     5   C  -   1   C       1.022565       1.017872
     5   C  -  11   H       0.966209       0.985367
     5   C  -  10   H       0.966209       0.985367
     5   C  -   9   H       0.965825       0.987359

     6   H  -   4   C       0.965825       0.987359

     7   H  -   4   C       0.966209       0.985367

     8   H  -   4   C       0.966209       0.985367

     9   H  -   5   C       0.965825       0.987359

    10   H  -   5   C       0.966209       0.985367

    11   H  -   5   C       0.966209       0.985367


 Valency analysis:

   CEN ATOM   TOT.VALENCE
     1   C       3.957857
     2   H       0.983787
     3   H       0.983787
     4   C       3.937375
     5   C       3.937375
     6   H       0.982950
     7   H       0.983915
     8   H       0.983915
     9   H       0.982950
    10   H       0.983915
    11   H       0.983915

 Total charge composition:

   CEN ATOM         s          p       ELECTRONS ->P.CHARGE
     1   C       2.97400    3.27789      6.25189   -0.25189
     2   H       0.87267                 0.87267    0.12733
     3   H       0.87267                 0.87267    0.12733
     4   C       2.99618    3.38944      6.38562   -0.38562
     5   C       2.99618    3.38944      6.38562   -0.38562
     6   H       0.86942                 0.86942    0.13058
     7   H       0.87317                 0.87317    0.12683
     8   H       0.87317                 0.87317    0.12683
     9   H       0.86942                 0.86942    0.13058
    10   H       0.87317                 0.87317    0.12683
    11   H       0.87317                 0.87317    0.12683

 Total charge composition, AO contributions:

   CEN ATOM SHL      SPHERICAL COMPONENTS
     1   C  1s       1.99233
     1   C  2s       0.98166
     1   C  2p       1.16349    1.02111    1.09329

     2   H  1s       0.87267

     3   H  1s       0.87267

     4   C  1s       1.99212
     4   C  2s       1.00406
     4   C  2p       1.16532    1.09072    1.13340

     5   C  1s       1.99212
     5   C  2s       1.00406
     5   C  2p       1.16532    1.09072    1.13340

     6   H  1s       0.86942

     7   H  1s       0.87317

     8   H  1s       0.87317

     9   H  1s       0.86942

    10   H  1s       0.87317

    11   H  1s       0.87317

 Summary of localized orbital composition:   [THRPRINT= 0.020]

   ORB  GRP  ORB.ENERGY      CENTERS/CHARGES
     1   1    -9.643983      C  1   2.000
     2   1    -9.629317      C  4   2.000
     3   1    -9.629317      C  5   2.000
     4   1    -0.446946      C  4   0.997   C  1   0.994
     5   1    -0.446946      C  5   0.997   C  1   0.994
     6   1    -0.400855      C  5   1.129   H  9   0.863
     7   1    -0.400855      C  4   1.129   H  6   0.863
     8   1    -0.398729      C  4   1.125   H  8   0.867
     9   1    -0.398729      C  5   1.125   H 10   0.867
    10   1    -0.398729      C  5   1.125   H 11   0.867
    11   1    -0.398729      C  4   1.125   H  7   0.867
    12   1    -0.397255      C  1   1.122   H  3   0.863
    13   1    -0.397255      C  1   1.122   H  2   0.863

 Localized orbitals saved to record      2200.2  (orbital set 4)


 **********************************************************************************************************************************
 DATASETS  * FILE   NREC   LENGTH (MB)   RECORD NAMES
              1      20       31.56       500      610      700      900      950      970     1000      129      960     1100   
                                          VAR    BASINP    GEOM    SYMINP    ZMAT    AOBASIS   BASIS     P2S    ABASIS      S 
                                         1400     1410     1200     1210     1080     1600     1650     1300     1700     1800   
                                           T        V       H0       H01     AOSYM     SMH    MOLCAS    ERIS     OPER     GRID   

              2       5        2.96       700     1000      520     1800     2200   
                                         GEOM     BASIS   MCVARS    GRID      UKS  

 PROGRAMS   *        TOTAL      IBBA       UKS       INT
 CPU TIMES  *         3.18      0.02      2.73      0.27
 REAL TIME  *         4.67 SEC
 DISK USED  *        35.33 MB      
 **********************************************************************************************************************************
 Molecular orbitals read from record     2200.2  Type=UKS/LOCAL(IBO)  
 Occupation numbers read from record     2200.2  Type=UKS/LOCAL(IBO)  
 Orbital energies read from record       2200.2  Type=UKS/LOCAL(IBO)  
 Redundancy group numbers read from rec  2200.2  Type=UKS/BETA (state 1.1)

 IBBA/STO-3G energy=      0.000000000000

        UKS-SCF 
   -117.62382451
 **********************************************************************************************************************************
 Molpro calculation terminated
