
 Primary working directories    : /tmp/sb13343
 Secondary working directories  : /tmp/sb13343
 Wavefunction directory         : /panfs/panasas01/chem/sb13343/wfu/
 Main file repository           : /tmp/sb13343/

 SHA1      : b4a5b34a9e711420743f49e6833241d17c61fb3c
 NAME      : 2099.9.b4a5b34
 ARCHNAME  : linux/x86_64_openmp
 FC        : /cm/shared/languages/GCC-6.1/bin/gfortran
 BLASLIB   : -lblas
 id        : simonbennie

 Nodes     nprocs
 node35-048    1

 Using customized tuning parameters: mindgm=1; mindgv=20; mindgc=4; mindgr=1; noblas=0; minvec=7
 default implementation of scratch files=df  

 memory,500,m
 geomtyp=xyz
 nosym
 noorient
 geometry={
 C          0.00000        0.00000        0.58646
 H          0.87762        0.00000        1.24716
 H         -0.87762        0.00000        1.24716
 C          0.00000       -1.27718       -0.25989
 C          0.00000        1.27718       -0.25989
 H          0.00000       -2.17596        0.36762
 H         -0.88462       -1.32219       -0.90739
 H          0.88462       -1.32219       -0.90739
 H          0.00000        2.17596        0.36762
 H          0.88462        1.32219       -0.90739
 H         -0.88462        1.32219       -0.90739
 }
 basis={ default,svp }
 {ks,VS99,direct;wf,26,1,0}
 {ibba,bonds=1}

 Variables initialized (895), CPU time= 0.01 sec
 Commands  initialized (725), CPU time= 0.01 sec, 591 directives.
 Default parameters read. Elapsed time= 0.15 sec

 Checking input...
 Passed
1


                                         ***  PROGRAM SYSTEM MOLPRO  ***
                                       Copyright, TTI GmbH Stuttgart, 2015
                                    Version 2099.9 linked May 26 2017 16:03:21


 **********************************************************************************************************************************
 LABEL *                                                                                 
  64 bit serial version                                                                  DATE: 08-Jun-17          TIME: 06:48:15  
 **********************************************************************************************************************************

 SHA1:             b4a5b34a9e711420743f49e6833241d17c61fb3c
 **********************************************************************************************************************************
 SETTING GEOMTYP        =    XYZ

 Variable memory set to  500000000 words,  buffer space 

 ZSYMEL=NOSYM

 SETTING BASIS          =    SVP


 Recomputing integrals since basis changed


 Using spherical harmonics

 Library entry C      S def2-SVP             selected for orbital group  1
 Library entry C      P def2-SVP             selected for orbital group  1
 Library entry C      D def2-SVP             selected for orbital group  1
 Library entry H      S def2-SVP             selected for orbital group  2
 Library entry H      P def2-SVP             selected for orbital group  2


 PROGRAM * SEWARD (Integral evaluation for generally contracted gaussian basis sets)     Author: Roland Lindh, 1990

 Geometry written to block  1 of record 700


 Point group  C1  



 ATOMIC COORDINATES

 NR  ATOM    CHARGE       X              Y              Z

   1  C       6.00    0.000000000    0.000000000    1.108248783
   2  H       1.00    1.658461441    0.000000000    2.356790834
   3  H       1.00   -1.658461441    0.000000000    2.356790834
   4  C       6.00    0.000000000   -2.413520412   -0.491120923
   5  C       6.00    0.000000000    2.413520412   -0.491120923
   6  H       1.00    0.000000000   -4.111968458    0.694701118
   7  H       1.00   -1.671689524   -2.498576985   -1.714718588
   8  H       1.00    1.671689524   -2.498576985   -1.714718588
   9  H       1.00    0.000000000    4.111968458    0.694701118
  10  H       1.00    1.671689524    2.498576985   -1.714718588
  11  H       1.00   -1.671689524    2.498576985   -1.714718588

 Bond lengths in Bohr (Angstrom)

 1-2  2.075897783  1-3  2.075897783  1-4  2.895352178  1-5  2.895352178  4-6  2.071448690
     ( 1.098517799)     ( 1.098517799)     ( 1.532154390)     ( 1.532154390)     ( 1.096163441)

  4- 7  2.073396183   4- 8  2.073396183   5- 9  2.071448690   5-10  2.073396183   5-11  2.073396183
       ( 1.097194010)       ( 1.097194010)       ( 1.096163441)       ( 1.097194010)       ( 1.097194010)

 Bond angles

  1-4-6  111.54675740   1-4-7  111.11159726   1-4-8  111.11159726   1-5-9  111.54675740

  1- 5-10  111.11159726   1- 5-11  111.11159726   2- 1- 3  106.05282696   2- 1- 4  109.40445441

  2-1-5  109.40445441   3-1-4  109.40445441   3-1-5  109.40445441   4-1-5  112.93744570

  6- 4- 7  107.70984506   6- 4- 8  107.70984506   7- 4- 8  107.46358962   9- 5-10  107.70984506

  9- 5-11  107.70984506  10- 5-11  107.46358962

 NUCLEAR CHARGE:                   26
 NUMBER OF PRIMITIVE AOS:         131
 NUMBER OF SYMMETRY AOS:          128
 NUMBER OF CONTRACTIONS:           82   (  82A   )
 NUMBER OF CORE ORBITALS:           3   (   3A   )
 NUMBER OF VALENCE ORBITALS:       20   (  20A   )


 NUCLEAR REPULSION ENERGY   82.25558439


 Eigenvalues of metric

         1 0.304E-02 0.671E-02 0.221E-01 0.273E-01 0.277E-01 0.357E-01 0.407E-01 0.451E-01


 Contracted 2-electron integrals neglected if value below      1.0D-11
 AO integral compression algorithm  1   Integral accuracy      1.0D-11

     24.379 MB (compressed) written to integral file ( 46.8%)


 NUMBER OF SORTED TWO-ELECTRON INTEGRALS:    5791906.     BUFFER LENGTH:  32768
 NUMBER OF SEGMENTS:   1  SEGMENT LENGTH:    5791906      RECORD LENGTH: 524288

 Memory used in sort:       6.35 MW

 SORT1 READ     6460078. AND WROTE     5119384. INTEGRALS IN     15 RECORDS. CPU TIME:     0.08 SEC, REAL TIME:     0.44 SEC
 SORT2 READ     5119384. AND WROTE     5791906. INTEGRALS IN     93 RECORDS. CPU TIME:     0.19 SEC, REAL TIME:     0.58 SEC

 FILE SIZES:   FILE 1:    54.8 MBYTE,  FILE 4:    62.9 MBYTE,   TOTAL:    117.7 MBYTE

 OPERATOR DM      FOR CENTER  0  COORDINATES:    0.000000    0.000000    0.000000


 **********************************************************************************************************************************
 DATASETS  * FILE   NREC   LENGTH (MB)   RECORD NAMES
              1      19       51.35       500      610      700      900      950      970     1000      129      960     1100   
                                          VAR    BASINP    GEOM    SYMINP    ZMAT    AOBASIS   BASIS     P2S    ABASIS      S 
                                         1400     1410     1200     1210     1080     1600     1650     1300     1700   
                                           T        V       H0       H01     AOSYM     SMH    MOLCAS    ERIS     OPER   

 PROGRAMS   *        TOTAL       INT
 CPU TIMES  *         1.30      1.16
 REAL TIME  *         3.05 SEC
 DISK USED  *       118.16 MB      
 **********************************************************************************************************************************

 Density functional group VS99=VSXC
 Functional: VSXC(Automatically generated (new) VSXC)                          Gradient terms: 2
 Use grid at  1800.2

 Functional: VSXC                      Factor:  1.0000

 Generated new metagrid on record  1800.2 with target accuracy 1.0D-06 and 39228 points in CPU time    0.9
 Computed new grid on record 1800.1 in CPU time    1.0
  131655 words reserved for DFT integration

 PROGRAM * RKS-SCF (Restricted closed shell Kohn-Sham)     Authors: W. Meyer, H.-J. Werner, P.J. Knowles, 1993

 NUMBER OF ELECTRONS:      13+   13-    SPACE SYMMETRY=1    SPIN SYMMETRY: Singlet 
 CONVERGENCE THRESHOLDS:    1.00E-05 (Density)    1.00E-06 (Energy)
 MAX. NUMBER OF ITERATIONS:       60
 INTERPOLATION TYPE:            DIIS
 INTERPOLATION STEPS:              2 (START)      1 (STEP)
 LEVEL SHIFTS:                  0.00 (CLOSED)  0.00 (OPEN) 



 Use fine grid record 1800.2 for energy threshold  1.0D-06
 Orbital guess generated from atomic densities. Full valence occupancy:   13

 Molecular orbital dump at record        2100.2

 Initial occupancy:  13

 ITERATION    DDIFF          GRAD             ENERGY        2-EL.EN.            DIPOLE MOMENTS         DIIS   ORB.
    1      0.000D+00      0.000D+00      -118.41335783    286.616620    0.00000    0.00000   -0.01314    0    start
    2      0.000D+00      0.112D-01      -118.30263974    265.589920   -0.00000    0.00000    0.04882    1    diag
    3      0.262D-01      0.153D-01      -118.55147332    277.592665    0.00000    0.00000    0.05566    2    diag
    4      0.157D-01      0.762D-03      -118.55189699    277.464464    0.00000    0.00000    0.02749    3    diag
    5      0.858D-03      0.332D-03      -118.55199140    277.510548    0.00000    0.00000    0.03053    4    diag
    6      0.311D-03      0.920D-04      -118.55199873    277.519908    0.00000    0.00000    0.03645    5    diag
    7      0.880D-04      0.188D-04      -118.55199907    277.528686    0.00000    0.00000    0.03348    6    diag
    8      0.231D-04      0.434D-05      -118.55199909    277.529731    0.00000    0.00000    0.03431    7    diag
    9      0.565D-05      0.148D-06      -118.55199909    277.529779    0.00000    0.00000    0.03428    0    orth

 Final occupancy:  13

 !RKS STATE 1.1 Energy               -118.551999093250
 Nuclear energy                        82.25558439
 One-electron energy                 -320.84224934
 Two-electron energy                  138.76488930
 Density functional                   -18.73022344     VSXC=-18.73022344
 Virial quotient                       -1.01046035
 !RKS STATE 1.1 Dipole moment           0.00000000     0.00000000     0.03428250
 Dipole moment /Debye                   0.00000000     0.00000000     0.08713172

 Orbital energies:

         1.1          2.1          3.1          4.1          5.1          6.1          7.1          8.1          9.1         10.1
     -9.955655    -9.946995    -9.946985    -0.720977    -0.621468    -0.525760    -0.403242    -0.384022    -0.348119    -0.328058

        11.1         12.1         13.1         14.1         15.1
     -0.289905    -0.286787    -0.275010     0.058200     0.104428

 HOMO     13.1    -0.275010 =      -7.4834eV
 LUMO     14.1     0.058200 =       1.5837eV
 LUMO-HOMO         0.333210 =       9.0671eV


 **********************************************************************************************************************************
 DATASETS  * FILE   NREC   LENGTH (MB)   RECORD NAMES
              1      20       52.60       500      610      700      900      950      970     1000      129      960     1100   
                                          VAR    BASINP    GEOM    SYMINP    ZMAT    AOBASIS   BASIS     P2S    ABASIS      S 
                                         1400     1410     1200     1210     1080     1600     1650     1300     1700     1800   
                                           T        V       H0       H01     AOSYM     SMH    MOLCAS    ERIS     OPER     GRID   

              2       5        3.07       700     1000      520     1800     2100   
                                         GEOM     BASIS   MCVARS    GRID      RKS  

 PROGRAMS   *        TOTAL        KS       INT
 CPU TIMES  *        19.60     18.30      1.16
 REAL TIME  *        23.83 SEC
 DISK USED  *       118.16 MB      
 **********************************************************************************************************************************


 PROGRAM * Intrinsic Basis Bonding Analysis (IBBA)          Author: G. Knizia

 Molecular orbitals read from record     2100.2  Type=RKS/CANONICAL (state 1.1)
 Fock matrix read from record            2100.2  Type=RKS/TOTAL (state 1.1)
 Orbital energies read from record       2100.2  Type=RKS/CANONICAL (state 1.1)
 Density matrix read from record         2100.2  Type=RKS/CHARGE (state 1.1)

 Number of core orbitals:           3 (   3 )
 Number of closed-shell orbitals:  10 (  10 )

 Basis set MINAO-AUTO-PP generated.      Number of basis functions:   23 

 Polarized AO type:                A = (O Ot + (1-O)(1-Ot)) P12
 Orthogonalization method:         Symmetric (Loewdin)
 Localization functional:          L = sum[A,i] <i|n_A|i>^4 -> max

 Localization group 1:  13 orbitals, occupancy  2.000
 Iterative localization: IB/PM,    7 iter; Final gradient 0.16E-08

 Bond order analysis:       [THRPRINT= 0.020]

   CEN ATOM   CEN ATOM     WIBERG.BO      RENORM.BO
     1   C  -   5   C       1.033510       1.023919
     1   C  -   4   C       1.033510       1.023919
     1   C  -   3   H       0.947160       0.966582
     1   C  -   2   H       0.947160       0.966582

     2   H  -   1   C       0.947160       0.966582

     3   H  -   1   C       0.947160       0.966582

     4   C  -   1   C       1.033510       1.023919
     4   C  -   6   H       0.963958       0.984583
     4   C  -   7   H       0.963019       0.979245
     4   C  -   8   H       0.963019       0.979245

     5   C  -   1   C       1.033510       1.023919
     5   C  -   9   H       0.963958       0.984583
     5   C  -  10   H       0.963019       0.979245
     5   C  -  11   H       0.963019       0.979245

     6   H  -   4   C       0.963958       0.984583

     7   H  -   4   C       0.963019       0.979245

     8   H  -   4   C       0.963019       0.979245

     9   H  -   5   C       0.963958       0.984583

    10   H  -   5   C       0.963019       0.979245

    11   H  -   5   C       0.963019       0.979245


 Valency analysis:

   CEN ATOM   TOT.VALENCE
     1   C       3.965730
     2   H       0.984451
     3   H       0.984451
     4   C       3.943888
     5   C       3.943888
     6   H       0.982257
     7   H       0.983781
     8   H       0.983781
     9   H       0.982257
    10   H       0.983781
    11   H       0.983781

 Total charge composition:

   CEN ATOM         s          p       ELECTRONS ->P.CHARGE
     1   C       2.99566    3.23189      6.22755   -0.22755
     2   H       0.87531                 0.87531    0.12469
     3   H       0.87531                 0.87531    0.12469
     4   C       3.03449    3.36434      6.39882   -0.39882
     5   C       3.03449    3.36434      6.39882   -0.39882
     6   H       0.86680                 0.86680    0.13320
     7   H       0.87265                 0.87265    0.12735
     8   H       0.87265                 0.87265    0.12735
     9   H       0.86680                 0.86680    0.13320
    10   H       0.87265                 0.87265    0.12735
    11   H       0.87265                 0.87265    0.12735

 Total charge composition, AO contributions:

   CEN ATOM SHL      SPHERICAL COMPONENTS
     1   C  1s       1.99128
     1   C  2s       1.00438
     1   C  2p       1.14587    1.00562    1.08040

     2   H  1s       0.87531

     3   H  1s       0.87531

     4   C  1s       1.99098
     4   C  2s       1.04350
     4   C  2p       1.15370    1.08747    1.12317

     5   C  1s       1.99098
     5   C  2s       1.04350
     5   C  2p       1.15370    1.08747    1.12317

     6   H  1s       0.86680

     7   H  1s       0.87265

     8   H  1s       0.87265

     9   H  1s       0.86680

    10   H  1s       0.87265

    11   H  1s       0.87265

 Summary of localized orbital composition:   [THRPRINT= 0.020]

   ORB  GRP  ORB.ENERGY      CENTERS/CHARGES
     1   1    -9.847470      C  1   2.000
     2   1    -9.833446      C  5   2.000
     3   1    -9.833446      C  4   2.000
     4   1    -0.506384      C  4   1.006   C  1   0.986
     5   1    -0.506384      C  5   1.006   C  1   0.986
     6   1    -0.439186      C  5   1.130   H  9   0.860
     7   1    -0.439186      C  4   1.130   H  6   0.860
     8   1    -0.438922      C  4   1.125   H  8   0.866
     9   1    -0.438922      C  5   1.125   H 11   0.866
    10   1    -0.438922      C  5   1.125   H 10   0.866
    11   1    -0.438922      C  4   1.125   H  7   0.866
    12   1    -0.435897      C  1   1.115   H  2   0.865   (other: 0.020)
    13   1    -0.435897      C  1   1.115   H  3   0.865   (other: 0.020)

 Localized orbitals saved to record      2100.2  (orbital set 2)


 **********************************************************************************************************************************
 DATASETS  * FILE   NREC   LENGTH (MB)   RECORD NAMES
              1      20       52.60       500      610      700      900      950      970     1000      129      960     1100   
                                          VAR    BASINP    GEOM    SYMINP    ZMAT    AOBASIS   BASIS     P2S    ABASIS      S 
                                         1400     1410     1200     1210     1080     1600     1650     1300     1700     1800   
                                           T        V       H0       H01     AOSYM     SMH    MOLCAS    ERIS     OPER     GRID   

              2       5        3.12       700     1000      520     1800     2100   
                                         GEOM     BASIS   MCVARS    GRID      RKS  

 PROGRAMS   *        TOTAL      IBBA        KS       INT
 CPU TIMES  *        19.63      0.03     18.30      1.16
 REAL TIME  *        23.96 SEC
 DISK USED  *       118.16 MB      
 **********************************************************************************************************************************
 Molecular orbitals read from record     2100.2  Type=RKS/LOCAL(IBO)  
 Occupation numbers read from record     2100.2  Type=RKS/LOCAL(IBO)  
 Orbital energies read from record       2100.2  Type=RKS/LOCAL(IBO)  
 Redundancy group numbers read from rec  2100.2  Type=RKS/LOCAL(IBO)  

 IBBA/SVP energy=      0.000000000000

        KS-SCF  
   -118.55199909
 **********************************************************************************************************************************
 Molpro calculation terminated
