
 Primary working directories    : /tmp/sb13343
 Secondary working directories  : /tmp/sb13343
 Wavefunction directory         : /panfs/panasas01/chem/sb13343/wfu/
 Main file repository           : /tmp/sb13343/

 SHA1      : b4a5b34a9e711420743f49e6833241d17c61fb3c
 NAME      : 2099.9.b4a5b34
 ARCHNAME  : linux/x86_64_openmp
 FC        : /cm/shared/languages/GCC-6.1/bin/gfortran
 BLASLIB   : -lblas
 id        : simonbennie

 Nodes     nprocs
 node35-048    1

 Using customized tuning parameters: mindgm=1; mindgv=20; mindgc=4; mindgr=1; noblas=0; minvec=7
 default implementation of scratch files=df  

 memory,500,m
 geomtyp=xyz
 nosym
 noorient
 geometry={
 C          0.00000        0.00000        0.58646
 H          0.87762        0.00000        1.24716
 H         -0.87762        0.00000        1.24716
 C          0.00000       -1.27718       -0.25989
 C          0.00000        1.27718       -0.25989
 H          0.00000       -2.17596        0.36762
 H         -0.88462       -1.32219       -0.90739
 H          0.88462       -1.32219       -0.90739
 H          0.00000        2.17596        0.36762
 H          0.88462        1.32219       -0.90739
 H         -0.88462        1.32219       -0.90739
 }
 basis={ default,sto-3g }
 {uks,MM06-2X,direct;wf,26,1,0}
 {ibba,bonds=1}

 Variables initialized (895), CPU time= 0.00 sec
 Commands  initialized (725), CPU time= 0.01 sec, 591 directives.
 Default parameters read. Elapsed time= 0.16 sec

 Checking input...
 Passed
1


                                         ***  PROGRAM SYSTEM MOLPRO  ***
                                       Copyright, TTI GmbH Stuttgart, 2015
                                    Version 2099.9 linked May 26 2017 16:03:21


 **********************************************************************************************************************************
 LABEL *                                                                                 
  64 bit serial version                                                                  DATE: 08-Jun-17          TIME: 06:25:50  
 **********************************************************************************************************************************

 SHA1:             b4a5b34a9e711420743f49e6833241d17c61fb3c
 **********************************************************************************************************************************
 SETTING GEOMTYP        =    XYZ

 Variable memory set to  500000000 words,  buffer space 

 ZSYMEL=NOSYM

 SETTING BASIS          =    STO-3G


 Recomputing integrals since basis changed


 Using spherical harmonics

 Library entry C      S STO-3G               selected for orbital group  1
 Library entry C      P STO-3G               selected for orbital group  1
 Library entry H      S STO-3G               selected for orbital group  2


 PROGRAM * SEWARD (Integral evaluation for generally contracted gaussian basis sets)     Author: Roland Lindh, 1990

 Geometry written to block  1 of record 700


 Point group  C1  



 ATOMIC COORDINATES

 NR  ATOM    CHARGE       X              Y              Z

   1  C       6.00    0.000000000    0.000000000    1.108248783
   2  H       1.00    1.658461441    0.000000000    2.356790834
   3  H       1.00   -1.658461441    0.000000000    2.356790834
   4  C       6.00    0.000000000   -2.413520412   -0.491120923
   5  C       6.00    0.000000000    2.413520412   -0.491120923
   6  H       1.00    0.000000000   -4.111968458    0.694701118
   7  H       1.00   -1.671689524   -2.498576985   -1.714718588
   8  H       1.00    1.671689524   -2.498576985   -1.714718588
   9  H       1.00    0.000000000    4.111968458    0.694701118
  10  H       1.00    1.671689524    2.498576985   -1.714718588
  11  H       1.00   -1.671689524    2.498576985   -1.714718588

 Bond lengths in Bohr (Angstrom)

 1-2  2.075897783  1-3  2.075897783  1-4  2.895352178  1-5  2.895352178  4-6  2.071448690
     ( 1.098517799)     ( 1.098517799)     ( 1.532154390)     ( 1.532154390)     ( 1.096163441)

  4- 7  2.073396183   4- 8  2.073396183   5- 9  2.071448690   5-10  2.073396183   5-11  2.073396183
       ( 1.097194010)       ( 1.097194010)       ( 1.096163441)       ( 1.097194010)       ( 1.097194010)

 Bond angles

  1-4-6  111.54675740   1-4-7  111.11159726   1-4-8  111.11159726   1-5-9  111.54675740

  1- 5-10  111.11159726   1- 5-11  111.11159726   2- 1- 3  106.05282696   2- 1- 4  109.40445441

  2-1-5  109.40445441   3-1-4  109.40445441   3-1-5  109.40445441   4-1-5  112.93744570

  6- 4- 7  107.70984506   6- 4- 8  107.70984506   7- 4- 8  107.46358962   9- 5-10  107.70984506

  9- 5-11  107.70984506  10- 5-11  107.46358962

 NUCLEAR CHARGE:                   26
 NUMBER OF PRIMITIVE AOS:          69
 NUMBER OF SYMMETRY AOS:           69
 NUMBER OF CONTRACTIONS:           23   (  23A   )
 NUMBER OF CORE ORBITALS:           3   (   3A   )
 NUMBER OF VALENCE ORBITALS:       20   (  20A   )


 NUCLEAR REPULSION ENERGY   82.25558439


 Eigenvalues of metric

         1 0.205E+00 0.229E+00 0.269E+00 0.347E+00 0.363E+00 0.365E+00 0.371E+00 0.404E+00


 Contracted 2-electron integrals neglected if value below      1.0D-11
 AO integral compression algorithm  1   Integral accuracy      1.0D-11

     0.524 MB (compressed) written to integral file ( 99.9%)


 NUMBER OF SORTED TWO-ELECTRON INTEGRALS:      38226.     BUFFER LENGTH:  32768
 NUMBER OF SEGMENTS:   1  SEGMENT LENGTH:      38226      RECORD LENGTH: 524288

 Memory used in sort:       0.60 MW

 SORT1 READ       45011. AND WROTE       32610. INTEGRALS IN      1 RECORDS. CPU TIME:     0.00 SEC, REAL TIME:     0.00 SEC
 SORT2 READ       32610. AND WROTE       38226. INTEGRALS IN      2 RECORDS. CPU TIME:     0.01 SEC, REAL TIME:     0.01 SEC

 FILE SIZES:   FILE 1:    30.7 MBYTE,  FILE 4:     4.2 MBYTE,   TOTAL:     34.9 MBYTE

 OPERATOR DM      FOR CENTER  0  COORDINATES:    0.000000    0.000000    0.000000


 **********************************************************************************************************************************
 DATASETS  * FILE   NREC   LENGTH (MB)   RECORD NAMES
              1      19       30.30       500      610      700      900      950      970     1000      129      960     1100   
                                          VAR    BASINP    GEOM    SYMINP    ZMAT    AOBASIS   BASIS     P2S    ABASIS      S 
                                         1400     1410     1200     1210     1080     1600     1650     1300     1700   
                                           T        V       H0       H01     AOSYM     SMH    MOLCAS    ERIS     OPER   

 PROGRAMS   *        TOTAL       INT
 CPU TIMES  *         0.42      0.27
 REAL TIME  *         0.90 SEC
 DISK USED  *        35.33 MB      
 **********************************************************************************************************************************

 Density functional group MM06-2X=M062XX+M062XC
 Functional: M062XX(Automatically generated (new) M062XX)                      Gradient terms: 2
 Functional: M062XC(Automatically generated (new) M062XC)                      Gradient terms: 2
 Use grid at  1800.2


 Exact exchange will be calculated, factor:  0.5400

 Functional: M062XX                    Factor:  0.4600
 Functional: M062XC                    Factor:  1.0000

 Generated new metagrid on record  1800.2 with target accuracy 1.0D-06 and 39228 points in CPU time    0.9
 Computed new grid on record 1800.1 in CPU time    1.0
   40075 words reserved for DFT integration

 PROGRAM * UKS-SCF (Unrestricted Kohn-Sham)     Authors: W. Meyer, H.-J. Werner, P.J. Knowles, 1993

 NUMBER OF ELECTRONS:      13+   13-    SPACE SYMMETRY=1    SPIN SYMMETRY: Singlet 
 CONVERGENCE THRESHOLDS:    1.00E-05 (Density)    1.00E-06 (Energy)
 MAX. NUMBER OF ITERATIONS:       60
 INTERPOLATION TYPE:            DIIS
 INTERPOLATION STEPS:              2 (START)      1 (STEP)
 LEVEL SHIFTS:                 -0.20 (ALPHA)  -0.20 (BETA) 



 Use fine grid record 1800.2 for energy threshold  1.0D-06
 Orbital guess generated from atomic densities. Full valence occupancy:   13

 Molecular orbital dump at record        2200.2

 Initial alpha occupation  13
 Initial beta  occupation  13

 ITERATION    DDIFF          GRAD             ENERGY        2-EL.EN.            DIPOLE MOMENTS         DIIS
    1      0.000D+00      0.000D+00      -113.06399611    263.597769    0.00000    0.00000   -0.00104    0
    2      0.429D-01      0.171D-01      -113.16472428    257.474516    0.00000    0.00000    0.00085    1
    3      0.298D-02      0.146D-02      -113.16535352    257.762372    0.00000    0.00000    0.00665    2
    4      0.112D-02      0.374D-03      -113.16542763    257.755572    0.00000    0.00000    0.01018    3
    5      0.248D-03      0.691D-04      -113.16543030    257.754411    0.00000    0.00000    0.01104    4
    6      0.197D-04      0.712D-05      -113.16543033    257.754348    0.00000    0.00000    0.01102    4
    7      0.420D-05      0.140D-05      -113.16543033    257.754424    0.00000    0.00000    0.01100    5
    8      0.833D-06      0.344D-06      -113.16543033    257.754459    0.00000    0.00000    0.01100    5

 Final alpha occupancy:  13
 Final beta  occupancy:  13

 !UKS STATE 1.1 Energy               -113.165430329645
 Nuclear energy                        82.25558439
 One-electron energy                 -319.54969944
 Two-electron energy                  128.87722961
 Density functional                    -4.74854489     M062XX=-8.41057953 M062XC=-0.87967830
 Virial quotient                       -0.98162998
 !UKS STATE 1.1 Dipole moment           0.00000000     0.00000000     0.01099654
 Dipole moment /Debye                   0.00000000     0.00000000     0.02794859

 Orbital energies for positive spin:

         1.1          2.1          3.1          4.1          5.1          6.1          7.1          8.1          9.1         10.1
     -9.907596    -9.899984    -9.899749    -0.736684    -0.628667    -0.527184    -0.394871    -0.368850    -0.324877    -0.306391

        11.1         12.1         13.1         14.1         15.1
     -0.251762    -0.250720    -0.244453     0.581284     0.582873

 Orbital energies for negative spin:

         1.1          2.1          3.1          4.1          5.1          6.1          7.1          8.1          9.1         10.1
     -9.907596    -9.899984    -9.899749    -0.736684    -0.628667    -0.527184    -0.394871    -0.368850    -0.324877    -0.306391

        11.1         12.1         13.1         14.1         15.1
     -0.251762    -0.250720    -0.244453     0.581284     0.582873

 HOMO     13.1    -0.244453 =      -6.6519eV
 LUMO     14.1     0.581284 =      15.8175eV
 LUMO-HOMO         0.825737 =      22.4694eV

 EXPECTATION VALUE OF S**2:             0.00000000

 Natural orbitals saved to record    2200.2 (Orbital set 3)

 Orbital spaces for UNO-CAS (Min. occupation: 0.020  Max. occupation: 1.980):

 Closed:       13
 Active:        0


 **********************************************************************************************************************************
 DATASETS  * FILE   NREC   LENGTH (MB)   RECORD NAMES
              1      20       31.56       500      610      700      900      950      970     1000      129      960     1100   
                                          VAR    BASINP    GEOM    SYMINP    ZMAT    AOBASIS   BASIS     P2S    ABASIS      S 
                                         1400     1410     1200     1210     1080     1600     1650     1300     1700     1800   
                                           T        V       H0       H01     AOSYM     SMH    MOLCAS    ERIS     OPER     GRID   

              2       5        2.95       700     1000      520     1800     2200   
                                         GEOM     BASIS   MCVARS    GRID      UKS  

 PROGRAMS   *        TOTAL       UKS       INT
 CPU TIMES  *         6.37      5.95      0.27
 REAL TIME  *         8.96 SEC
 DISK USED  *        35.33 MB      
 **********************************************************************************************************************************


 PROGRAM * Intrinsic Basis Bonding Analysis (IBBA)          Author: G. Knizia

 Molecular orbitals read from record     2200.2  Type=UKS/ALPHA (state 1.1)
 Fock matrix read from record            2200.2  Type=UKS/TOTAL (state 1.1)
 Orbital energies read from record       2200.2  Type=UKS/ALPHA (state 1.1)
 Density matrix read from record         2200.2  Type=UKS/CHARGE (state 1.1)

 Number of core orbitals:           3 (   3 )
 Number of closed-shell orbitals:  10 (  10 )

 Basis set MINAO-AUTO-PP generated.      Number of basis functions:   23 

 Polarized AO type:                A = (O Ot + (1-O)(1-Ot)) P12
 Orthogonalization method:         Symmetric (Loewdin)
 Localization functional:          L = sum[A,i] <i|n_A|i>^4 -> max

 Localization group 1:  13 orbitals, occupancy  2.000
 Iterative localization: IB/PM,    7 iter; Final gradient 0.72E-09

 Bond order analysis:       [THRPRINT= 0.020]

   CEN ATOM   CEN ATOM     WIBERG.BO      RENORM.BO
     1   C  -   4   C       1.018368       1.017367
     1   C  -   5   C       1.018368       1.017367
     1   C  -   3   H       0.958325       0.975844
     1   C  -   2   H       0.958325       0.975844

     2   H  -   1   C       0.958325       0.975844

     3   H  -   1   C       0.958325       0.975844

     4   C  -   1   C       1.018368       1.017367
     4   C  -   8   H       0.970375       0.986699
     4   C  -   7   H       0.970375       0.986699
     4   C  -   6   H       0.970080       0.988423

     5   C  -   1   C       1.018368       1.017367
     5   C  -  11   H       0.970375       0.986699
     5   C  -  10   H       0.970375       0.986699
     5   C  -   9   H       0.970080       0.988423

     6   H  -   4   C       0.970080       0.988423

     7   H  -   4   C       0.970375       0.986699

     8   H  -   4   C       0.970375       0.986699

     9   H  -   5   C       0.970080       0.988423

    10   H  -   5   C       0.970375       0.986699

    11   H  -   5   C       0.970375       0.986699


 Valency analysis:

   CEN ATOM   TOT.VALENCE
     1   C       3.961473
     2   H       0.988232
     3   H       0.988232
     4   C       3.945262
     5   C       3.945262
     6   H       0.987445
     7   H       0.988325
     8   H       0.988325
     9   H       0.987445
    10   H       0.988325
    11   H       0.988325

 Total charge composition:

   CEN ATOM         s          p       ELECTRONS ->P.CHARGE
     1   C       2.94484    3.26843      6.21327   -0.21327
     2   H       0.89152                 0.89152    0.10848
     3   H       0.89152                 0.89152    0.10848
     4   C       2.96379    3.36621      6.33000   -0.33000
     5   C       2.96379    3.36621      6.33000   -0.33000
     6   H       0.88795                 0.88795    0.11205
     7   H       0.89195                 0.89195    0.10805
     8   H       0.89195                 0.89195    0.10805
     9   H       0.88795                 0.88795    0.11205
    10   H       0.89195                 0.89195    0.10805
    11   H       0.89195                 0.89195    0.10805

 Total charge composition, AO contributions:

   CEN ATOM SHL      SPHERICAL COMPONENTS
     1   C  1s       1.99324
     1   C  2s       0.95160
     1   C  2p       1.15206    1.02657    1.08980

     2   H  1s       0.89152

     3   H  1s       0.89152

     4   C  1s       1.99304
     4   C  2s       0.97075
     4   C  2p       1.15287    1.08829    1.12505

     5   C  1s       1.99304
     5   C  2s       0.97075
     5   C  2p       1.15287    1.08829    1.12505

     6   H  1s       0.88795

     7   H  1s       0.89195

     8   H  1s       0.89195

     9   H  1s       0.88795

    10   H  1s       0.89195

    11   H  1s       0.89195

 Summary of localized orbital composition:   [THRPRINT= 0.020]

   ORB  GRP  ORB.ENERGY      CENTERS/CHARGES
     1   1    -9.801971      C  1   2.000
     2   1    -9.791350      C  5   2.000
     3   1    -9.791350      C  4   2.000
     4   1    -0.477983      C  5   0.996   C  1   0.994
     5   1    -0.477983      C  4   0.996   C  1   0.994
     6   1    -0.426830      C  5   1.111   H  9   0.882
     7   1    -0.426830      C  4   1.111   H  6   0.882
     8   1    -0.425362      C  4   1.107   H  8   0.886
     9   1    -0.425362      C  5   1.107   H 10   0.886
    10   1    -0.425362      C  4   1.107   H  7   0.886
    11   1    -0.425362      C  5   1.107   H 11   0.886
    12   1    -0.423015      C  1   1.104   H  2   0.882
    13   1    -0.423015      C  1   1.104   H  3   0.882

 Localized orbitals saved to record      2200.2  (orbital set 4)


 **********************************************************************************************************************************
 DATASETS  * FILE   NREC   LENGTH (MB)   RECORD NAMES
              1      20       31.56       500      610      700      900      950      970     1000      129      960     1100   
                                          VAR    BASINP    GEOM    SYMINP    ZMAT    AOBASIS   BASIS     P2S    ABASIS      S 
                                         1400     1410     1200     1210     1080     1600     1650     1300     1700     1800   
                                           T        V       H0       H01     AOSYM     SMH    MOLCAS    ERIS     OPER     GRID   

              2       5        2.96       700     1000      520     1800     2200   
                                         GEOM     BASIS   MCVARS    GRID      UKS  

 PROGRAMS   *        TOTAL      IBBA       UKS       INT
 CPU TIMES  *         6.40      0.03      5.95      0.27
 REAL TIME  *         9.11 SEC
 DISK USED  *        35.33 MB      
 **********************************************************************************************************************************
 Molecular orbitals read from record     2200.2  Type=UKS/LOCAL(IBO)  
 Occupation numbers read from record     2200.2  Type=UKS/LOCAL(IBO)  
 Orbital energies read from record       2200.2  Type=UKS/LOCAL(IBO)  
 Redundancy group numbers read from rec  2200.2  Type=UKS/BETA (state 1.1)

 IBBA/STO-3G energy=      0.000000000000

        UKS-SCF 
   -113.16543033
 **********************************************************************************************************************************
 Molpro calculation terminated
