
 Primary working directories    : /tmp/sb13343
 Secondary working directories  : /tmp/sb13343
 Wavefunction directory         : /panfs/panasas01/chem/sb13343/wfu/
 Main file repository           : /tmp/sb13343/

 SHA1      : b4a5b34a9e711420743f49e6833241d17c61fb3c
 NAME      : 2099.9.b4a5b34
 ARCHNAME  : linux/x86_64_openmp
 FC        : /cm/shared/languages/GCC-6.1/bin/gfortran
 BLASLIB   : -lblas
 id        : simonbennie

 Nodes     nprocs
 node35-048    1

 Using customized tuning parameters: mindgm=1; mindgv=20; mindgc=4; mindgr=1; noblas=0; minvec=7
 default implementation of scratch files=df  

 memory,500,m
 geomtyp=xyz
 nosym
 noorient
 geometry={
 C          0.00000        0.00000        0.58646
 H          0.87762        0.00000        1.24716
 H         -0.87762        0.00000        1.24716
 C          0.00000       -1.27718       -0.25989
 C          0.00000        1.27718       -0.25989
 H          0.00000       -2.17596        0.36762
 H         -0.88462       -1.32219       -0.90739
 H          0.88462       -1.32219       -0.90739
 H          0.00000        2.17596        0.36762
 H          0.88462        1.32219       -0.90739
 H         -0.88462        1.32219       -0.90739
 }
 basis={ default,sto-3g }
 {uks,SOGGA,direct;wf,26,1,0}
 {ibba,bonds=1}

 Variables initialized (895), CPU time= 0.00 sec
 Commands  initialized (725), CPU time= 0.02 sec, 591 directives.
 Default parameters read. Elapsed time= 0.20 sec

 Checking input...
 Passed
1


                                         ***  PROGRAM SYSTEM MOLPRO  ***
                                       Copyright, TTI GmbH Stuttgart, 2015
                                    Version 2099.9 linked May 26 2017 16:03:21


 **********************************************************************************************************************************
 LABEL *                                                                                 
  64 bit serial version                                                                  DATE: 08-Jun-17          TIME: 06:33:51  
 **********************************************************************************************************************************

 SHA1:             b4a5b34a9e711420743f49e6833241d17c61fb3c
 **********************************************************************************************************************************
 SETTING GEOMTYP        =    XYZ

 Variable memory set to  500000000 words,  buffer space 

 ZSYMEL=NOSYM

 SETTING BASIS          =    STO-3G


 Recomputing integrals since basis changed


 Using spherical harmonics

 Library entry C      S STO-3G               selected for orbital group  1
 Library entry C      P STO-3G               selected for orbital group  1
 Library entry H      S STO-3G               selected for orbital group  2


 PROGRAM * SEWARD (Integral evaluation for generally contracted gaussian basis sets)     Author: Roland Lindh, 1990

 Geometry written to block  1 of record 700


 Point group  C1  



 ATOMIC COORDINATES

 NR  ATOM    CHARGE       X              Y              Z

   1  C       6.00    0.000000000    0.000000000    1.108248783
   2  H       1.00    1.658461441    0.000000000    2.356790834
   3  H       1.00   -1.658461441    0.000000000    2.356790834
   4  C       6.00    0.000000000   -2.413520412   -0.491120923
   5  C       6.00    0.000000000    2.413520412   -0.491120923
   6  H       1.00    0.000000000   -4.111968458    0.694701118
   7  H       1.00   -1.671689524   -2.498576985   -1.714718588
   8  H       1.00    1.671689524   -2.498576985   -1.714718588
   9  H       1.00    0.000000000    4.111968458    0.694701118
  10  H       1.00    1.671689524    2.498576985   -1.714718588
  11  H       1.00   -1.671689524    2.498576985   -1.714718588

 Bond lengths in Bohr (Angstrom)

 1-2  2.075897783  1-3  2.075897783  1-4  2.895352178  1-5  2.895352178  4-6  2.071448690
     ( 1.098517799)     ( 1.098517799)     ( 1.532154390)     ( 1.532154390)     ( 1.096163441)

  4- 7  2.073396183   4- 8  2.073396183   5- 9  2.071448690   5-10  2.073396183   5-11  2.073396183
       ( 1.097194010)       ( 1.097194010)       ( 1.096163441)       ( 1.097194010)       ( 1.097194010)

 Bond angles

  1-4-6  111.54675740   1-4-7  111.11159726   1-4-8  111.11159726   1-5-9  111.54675740

  1- 5-10  111.11159726   1- 5-11  111.11159726   2- 1- 3  106.05282696   2- 1- 4  109.40445441

  2-1-5  109.40445441   3-1-4  109.40445441   3-1-5  109.40445441   4-1-5  112.93744570

  6- 4- 7  107.70984506   6- 4- 8  107.70984506   7- 4- 8  107.46358962   9- 5-10  107.70984506

  9- 5-11  107.70984506  10- 5-11  107.46358962

 NUCLEAR CHARGE:                   26
 NUMBER OF PRIMITIVE AOS:          69
 NUMBER OF SYMMETRY AOS:           69
 NUMBER OF CONTRACTIONS:           23   (  23A   )
 NUMBER OF CORE ORBITALS:           3   (   3A   )
 NUMBER OF VALENCE ORBITALS:       20   (  20A   )


 NUCLEAR REPULSION ENERGY   82.25558439


 Eigenvalues of metric

         1 0.205E+00 0.229E+00 0.269E+00 0.347E+00 0.363E+00 0.365E+00 0.371E+00 0.404E+00


 Contracted 2-electron integrals neglected if value below      1.0D-11
 AO integral compression algorithm  1   Integral accuracy      1.0D-11

     0.524 MB (compressed) written to integral file ( 99.9%)


 NUMBER OF SORTED TWO-ELECTRON INTEGRALS:      38226.     BUFFER LENGTH:  32768
 NUMBER OF SEGMENTS:   1  SEGMENT LENGTH:      38226      RECORD LENGTH: 524288

 Memory used in sort:       0.60 MW

 SORT1 READ       45011. AND WROTE       32610. INTEGRALS IN      1 RECORDS. CPU TIME:     0.00 SEC, REAL TIME:     0.01 SEC
 SORT2 READ       32610. AND WROTE       38226. INTEGRALS IN      2 RECORDS. CPU TIME:     0.01 SEC, REAL TIME:     0.01 SEC

 FILE SIZES:   FILE 1:    30.7 MBYTE,  FILE 4:     4.2 MBYTE,   TOTAL:     34.9 MBYTE

 OPERATOR DM      FOR CENTER  0  COORDINATES:    0.000000    0.000000    0.000000


 **********************************************************************************************************************************
 DATASETS  * FILE   NREC   LENGTH (MB)   RECORD NAMES
              1      19       30.30       500      610      700      900      950      970     1000      129      960     1100   
                                          VAR    BASINP    GEOM    SYMINP    ZMAT    AOBASIS   BASIS     P2S    ABASIS      S 
                                         1400     1410     1200     1210     1080     1600     1650     1300     1700   
                                           T        V       H0       H01     AOSYM     SMH    MOLCAS    ERIS     OPER   

 PROGRAMS   *        TOTAL       INT
 CPU TIMES  *         0.39      0.25
 REAL TIME  *         1.02 SEC
 DISK USED  *        35.33 MB      
 **********************************************************************************************************************************

 Density functional group SOGGA=XC-SOGGA
 Functional: XC-SOGGA(via MFM 1.6)                                             Gradient terms: 1
 Use grid at  1800.2

 Functional: XC-SOGGA                  Factor:  1.0000

 Generated new metagrid on record  1800.2 with target accuracy 1.0D-06 and 39228 points in CPU time    0.8
 Computed new grid on record 1800.1 in CPU time    0.9
   22549 words reserved for DFT integration

 PROGRAM * UKS-SCF (Unrestricted Kohn-Sham)     Authors: W. Meyer, H.-J. Werner, P.J. Knowles, 1993

 NUMBER OF ELECTRONS:      13+   13-    SPACE SYMMETRY=1    SPIN SYMMETRY: Singlet 
 CONVERGENCE THRESHOLDS:    1.00E-05 (Density)    1.00E-06 (Energy)
 MAX. NUMBER OF ITERATIONS:       60
 INTERPOLATION TYPE:            DIIS
 INTERPOLATION STEPS:              2 (START)      1 (STEP)
 LEVEL SHIFTS:                 -0.20 (ALPHA)  -0.20 (BETA) 



 Use fine grid record 1800.2 for energy threshold  1.0D-06
 Orbital guess generated from atomic densities. Full valence occupancy:   13

 Molecular orbital dump at record        2200.2

 Initial alpha occupation  13
 Initial beta  occupation  13

 ITERATION    DDIFF          GRAD             ENERGY        2-EL.EN.            DIPOLE MOMENTS         DIIS
    1      0.000D+00      0.000D+00      -116.68338546    287.675998    0.00000    0.00000   -0.02177    0
    2      0.734D-01      0.238D-01      -116.86682859    276.924879    0.00000    0.00000   -0.00996    1
    3      0.152D-01      0.644D-02      -116.88022842    279.063277    0.00000    0.00000    0.00266    2
    4      0.715D-03      0.238D-03      -116.88025921    279.065170    0.00000    0.00000    0.00649    3
    5      0.233D-03      0.590D-04      -116.88026139    279.064298    0.00000    0.00000    0.00744    4
    6      0.399D-04      0.107D-04      -116.88026145    279.064440    0.00000    0.00000    0.00730    4
    7      0.115D-04      0.470D-05      -116.88026145    279.064269    0.00000    0.00000    0.00730    5
    8      0.100D-05      0.325D-06      -116.88026145    279.064315    0.00000    0.00000    0.00731    5
    9      0.214D-06      0.575D-07      -116.88026145    279.064291    0.00000    0.00000    0.00731    5

 Final alpha occupancy:  13
 Final beta  occupancy:  13

 !UKS STATE 1.1 Energy               -116.880261454789
 Nuclear energy                        82.25558439
 One-electron energy                 -320.23006986
 Two-electron energy                  139.53214553
 Density functional                   -18.43792151     XC-SOGGA=-18.43792151
 Virial quotient                       -1.01025367
 !UKS STATE 1.1 Dipole moment           0.00000000     0.00000000     0.00730739
 Dipole moment /Debye                   0.00000000     0.00000000     0.01857231

 Orbital energies for positive spin:

         1.1          2.1          3.1          4.1          5.1          6.1          7.1          8.1          9.1         10.1
     -9.636468    -9.623590    -9.623462    -0.655995    -0.564249    -0.477261    -0.358779    -0.338457    -0.301551    -0.283516

        11.1         12.1         13.1         14.1         15.1
     -0.240469    -0.238963    -0.229757     0.352650     0.356724

 Orbital energies for negative spin:

         1.1          2.1          3.1          4.1          5.1          6.1          7.1          8.1          9.1         10.1
     -9.636468    -9.623590    -9.623462    -0.655995    -0.564249    -0.477261    -0.358779    -0.338457    -0.301551    -0.283516

        11.1         12.1         13.1         14.1         15.1
     -0.240469    -0.238963    -0.229757     0.352650     0.356724

 HOMO     13.1    -0.229757 =      -6.2520eV
 LUMO     14.1     0.352650 =       9.5961eV
 LUMO-HOMO         0.582407 =      15.8481eV

 EXPECTATION VALUE OF S**2:            -0.00000000

 Natural orbitals saved to record    2200.2 (Orbital set 3)

 Orbital spaces for UNO-CAS (Min. occupation: 0.020  Max. occupation: 1.980):

 Closed:       13
 Active:        0


 **********************************************************************************************************************************
 DATASETS  * FILE   NREC   LENGTH (MB)   RECORD NAMES
              1      20       31.56       500      610      700      900      950      970     1000      129      960     1100   
                                          VAR    BASINP    GEOM    SYMINP    ZMAT    AOBASIS   BASIS     P2S    ABASIS      S 
                                         1400     1410     1200     1210     1080     1600     1650     1300     1700     1800   
                                           T        V       H0       H01     AOSYM     SMH    MOLCAS    ERIS     OPER     GRID   

              2       5        2.95       700     1000      520     1800     2200   
                                         GEOM     BASIS   MCVARS    GRID      UKS  

 PROGRAMS   *        TOTAL       UKS       INT
 CPU TIMES  *         3.66      3.27      0.25
 REAL TIME  *         6.08 SEC
 DISK USED  *        35.33 MB      
 **********************************************************************************************************************************


 PROGRAM * Intrinsic Basis Bonding Analysis (IBBA)          Author: G. Knizia

 Molecular orbitals read from record     2200.2  Type=UKS/ALPHA (state 1.1)
 Fock matrix read from record            2200.2  Type=UKS/TOTAL (state 1.1)
 Orbital energies read from record       2200.2  Type=UKS/ALPHA (state 1.1)
 Density matrix read from record         2200.2  Type=UKS/CHARGE (state 1.1)

 Number of core orbitals:           3 (   3 )
 Number of closed-shell orbitals:  10 (  10 )

 Basis set MINAO-AUTO-PP generated.      Number of basis functions:   23 

 Polarized AO type:                A = (O Ot + (1-O)(1-Ot)) P12
 Orthogonalization method:         Symmetric (Loewdin)
 Localization functional:          L = sum[A,i] <i|n_A|i>^4 -> max

 Localization group 1:  13 orbitals, occupancy  2.000
 Iterative localization: IB/PM,    7 iter; Final gradient 0.65E-09

 Bond order analysis:       [THRPRINT= 0.020]

   CEN ATOM   CEN ATOM     WIBERG.BO      RENORM.BO
     1   C  -   4   C       1.022728       1.017624
     1   C  -   5   C       1.022728       1.017624
     1   C  -   3   H       0.949262       0.972648
     1   C  -   2   H       0.949262       0.972648

     2   H  -   1   C       0.949262       0.972648

     3   H  -   1   C       0.949262       0.972648

     4   C  -   1   C       1.022728       1.017624
     4   C  -   8   H       0.962742       0.984908
     4   C  -   7   H       0.962742       0.984908
     4   C  -   6   H       0.962289       0.987030

     5   C  -   1   C       1.022728       1.017624
     5   C  -  11   H       0.962742       0.984908
     5   C  -  10   H       0.962742       0.984908
     5   C  -   9   H       0.962289       0.987030

     6   H  -   4   C       0.962289       0.987030

     7   H  -   4   C       0.962742       0.984908

     8   H  -   4   C       0.962742       0.984908

     9   H  -   5   C       0.962289       0.987030

    10   H  -   5   C       0.962742       0.984908

    11   H  -   5   C       0.962742       0.984908


 Valency analysis:

   CEN ATOM   TOT.VALENCE
     1   C       3.951364
     2   H       0.981109
     3   H       0.981109
     4   C       3.927993
     5   C       3.927993
     6   H       0.980232
     7   H       0.981286
     8   H       0.981286
     9   H       0.980232
    10   H       0.981286
    11   H       0.981286

 Total charge composition:

   CEN ATOM         s          p       ELECTRONS ->P.CHARGE
     1   C       2.97424    3.29876      6.27300   -0.27300
     2   H       0.86256                 0.86256    0.13744
     3   H       0.86256                 0.86256    0.13744
     4   C       2.99817    3.41697      6.41514   -0.41514
     5   C       2.99817    3.41697      6.41514   -0.41514
     6   H       0.85940                 0.85940    0.14060
     7   H       0.86320                 0.86320    0.13680
     8   H       0.86320                 0.86320    0.13680
     9   H       0.85940                 0.85940    0.14060
    10   H       0.86320                 0.86320    0.13680
    11   H       0.86320                 0.86320    0.13680

 Total charge composition, AO contributions:

   CEN ATOM SHL      SPHERICAL COMPONENTS
     1   C  1s       1.99261
     1   C  2s       0.98164
     1   C  2p       1.17508    1.02344    1.10023

     2   H  1s       0.86256

     3   H  1s       0.86256

     4   C  1s       1.99239
     4   C  2s       1.00578
     4   C  2p       1.17707    1.09705    1.14285

     5   C  1s       1.99239
     5   C  2s       1.00578
     5   C  2p       1.17707    1.09705    1.14285

     6   H  1s       0.85940

     7   H  1s       0.86320

     8   H  1s       0.86320

     9   H  1s       0.85940

    10   H  1s       0.86320

    11   H  1s       0.86320

 Summary of localized orbital composition:   [THRPRINT= 0.020]

   ORB  GRP  ORB.ENERGY      CENTERS/CHARGES
     1   1    -9.531915      C  1   2.000
     2   1    -9.515491      C  4   2.000
     3   1    -9.515491      C  5   2.000
     4   1    -0.443558      C  5   0.996   C  1   0.994
     5   1    -0.443558      C  4   0.996   C  1   0.994
     6   1    -0.392472      C  5   1.139   H  9   0.853
     7   1    -0.392472      C  4   1.139   H  6   0.853
     8   1    -0.390082      C  5   1.135   H 10   0.857
     9   1    -0.390082      C  4   1.135   H  8   0.857
    10   1    -0.390082      C  4   1.135   H  7   0.857
    11   1    -0.390082      C  5   1.135   H 11   0.857
    12   1    -0.388619      C  1   1.132   H  2   0.853
    13   1    -0.388619      C  1   1.132   H  3   0.853

 Localized orbitals saved to record      2200.2  (orbital set 4)


 **********************************************************************************************************************************
 DATASETS  * FILE   NREC   LENGTH (MB)   RECORD NAMES
              1      20       31.56       500      610      700      900      950      970     1000      129      960     1100   
                                          VAR    BASINP    GEOM    SYMINP    ZMAT    AOBASIS   BASIS     P2S    ABASIS      S 
                                         1400     1410     1200     1210     1080     1600     1650     1300     1700     1800   
                                           T        V       H0       H01     AOSYM     SMH    MOLCAS    ERIS     OPER     GRID   

              2       5        2.96       700     1000      520     1800     2200   
                                         GEOM     BASIS   MCVARS    GRID      UKS  

 PROGRAMS   *        TOTAL      IBBA       UKS       INT
 CPU TIMES  *         3.68      0.02      3.27      0.25
 REAL TIME  *         6.19 SEC
 DISK USED  *        35.33 MB      
 **********************************************************************************************************************************
 Molecular orbitals read from record     2200.2  Type=UKS/LOCAL(IBO)  
 Occupation numbers read from record     2200.2  Type=UKS/LOCAL(IBO)  
 Orbital energies read from record       2200.2  Type=UKS/LOCAL(IBO)  
 Redundancy group numbers read from rec  2200.2  Type=UKS/BETA (state 1.1)

 IBBA/STO-3G energy=      0.000000000000

        UKS-SCF 
   -116.88026145
 **********************************************************************************************************************************
 Molpro calculation terminated
