
 Primary working directories    : /tmp/sb13343
 Secondary working directories  : /tmp/sb13343
 Wavefunction directory         : /panfs/panasas01/chem/sb13343/wfu/
 Main file repository           : /tmp/sb13343/

 SHA1      : b4a5b34a9e711420743f49e6833241d17c61fb3c
 NAME      : 2099.9.b4a5b34
 ARCHNAME  : linux/x86_64_openmp
 FC        : /cm/shared/languages/GCC-6.1/bin/gfortran
 BLASLIB   : -lblas
 id        : simonbennie

 Nodes     nprocs
 node35-048    1

 Using customized tuning parameters: mindgm=1; mindgv=20; mindgc=4; mindgr=1; noblas=0; minvec=7
 default implementation of scratch files=df  

 memory,500,m
 geomtyp=xyz
 nosym
 noorient
 geometry={
 C          0.00000        0.00000        0.58646
 H          0.87762        0.00000        1.24716
 H         -0.87762        0.00000        1.24716
 C          0.00000       -1.27718       -0.25989
 C          0.00000        1.27718       -0.25989
 H          0.00000       -2.17596        0.36762
 H         -0.88462       -1.32219       -0.90739
 H          0.88462       -1.32219       -0.90739
 H          0.00000        2.17596        0.36762
 H          0.88462        1.32219       -0.90739
 H         -0.88462        1.32219       -0.90739
 }
 basis={ default,svp }
 {uks,B97R,direct;wf,26,1,0}
 {ibba,bonds=1}

 Variables initialized (895), CPU time= 0.00 sec
 Commands  initialized (725), CPU time= 0.01 sec, 591 directives.
 Default parameters read. Elapsed time= 0.13 sec

 Checking input...
 Passed
1


                                         ***  PROGRAM SYSTEM MOLPRO  ***
                                       Copyright, TTI GmbH Stuttgart, 2015
                                    Version 2099.9 linked May 26 2017 16:03:21


 **********************************************************************************************************************************
 LABEL *                                                                                 
  64 bit serial version                                                                  DATE: 08-Jun-17          TIME: 06:39:11  
 **********************************************************************************************************************************

 SHA1:             b4a5b34a9e711420743f49e6833241d17c61fb3c
 **********************************************************************************************************************************
 SETTING GEOMTYP        =    XYZ

 Variable memory set to  500000000 words,  buffer space 

 ZSYMEL=NOSYM

 SETTING BASIS          =    SVP


 Recomputing integrals since basis changed


 Using spherical harmonics

 Library entry C      S def2-SVP             selected for orbital group  1
 Library entry C      P def2-SVP             selected for orbital group  1
 Library entry C      D def2-SVP             selected for orbital group  1
 Library entry H      S def2-SVP             selected for orbital group  2
 Library entry H      P def2-SVP             selected for orbital group  2


 PROGRAM * SEWARD (Integral evaluation for generally contracted gaussian basis sets)     Author: Roland Lindh, 1990

 Geometry written to block  1 of record 700


 Point group  C1  



 ATOMIC COORDINATES

 NR  ATOM    CHARGE       X              Y              Z

   1  C       6.00    0.000000000    0.000000000    1.108248783
   2  H       1.00    1.658461441    0.000000000    2.356790834
   3  H       1.00   -1.658461441    0.000000000    2.356790834
   4  C       6.00    0.000000000   -2.413520412   -0.491120923
   5  C       6.00    0.000000000    2.413520412   -0.491120923
   6  H       1.00    0.000000000   -4.111968458    0.694701118
   7  H       1.00   -1.671689524   -2.498576985   -1.714718588
   8  H       1.00    1.671689524   -2.498576985   -1.714718588
   9  H       1.00    0.000000000    4.111968458    0.694701118
  10  H       1.00    1.671689524    2.498576985   -1.714718588
  11  H       1.00   -1.671689524    2.498576985   -1.714718588

 Bond lengths in Bohr (Angstrom)

 1-2  2.075897783  1-3  2.075897783  1-4  2.895352178  1-5  2.895352178  4-6  2.071448690
     ( 1.098517799)     ( 1.098517799)     ( 1.532154390)     ( 1.532154390)     ( 1.096163441)

  4- 7  2.073396183   4- 8  2.073396183   5- 9  2.071448690   5-10  2.073396183   5-11  2.073396183
       ( 1.097194010)       ( 1.097194010)       ( 1.096163441)       ( 1.097194010)       ( 1.097194010)

 Bond angles

  1-4-6  111.54675740   1-4-7  111.11159726   1-4-8  111.11159726   1-5-9  111.54675740

  1- 5-10  111.11159726   1- 5-11  111.11159726   2- 1- 3  106.05282696   2- 1- 4  109.40445441

  2-1-5  109.40445441   3-1-4  109.40445441   3-1-5  109.40445441   4-1-5  112.93744570

  6- 4- 7  107.70984506   6- 4- 8  107.70984506   7- 4- 8  107.46358962   9- 5-10  107.70984506

  9- 5-11  107.70984506  10- 5-11  107.46358962

 NUCLEAR CHARGE:                   26
 NUMBER OF PRIMITIVE AOS:         131
 NUMBER OF SYMMETRY AOS:          128
 NUMBER OF CONTRACTIONS:           82   (  82A   )
 NUMBER OF CORE ORBITALS:           3   (   3A   )
 NUMBER OF VALENCE ORBITALS:       20   (  20A   )


 NUCLEAR REPULSION ENERGY   82.25558439


 Eigenvalues of metric

         1 0.304E-02 0.671E-02 0.221E-01 0.273E-01 0.277E-01 0.357E-01 0.407E-01 0.451E-01


 Contracted 2-electron integrals neglected if value below      1.0D-11
 AO integral compression algorithm  1   Integral accuracy      1.0D-11

     24.379 MB (compressed) written to integral file ( 46.8%)


 NUMBER OF SORTED TWO-ELECTRON INTEGRALS:    5791906.     BUFFER LENGTH:  32768
 NUMBER OF SEGMENTS:   1  SEGMENT LENGTH:    5791906      RECORD LENGTH: 524288

 Memory used in sort:       6.35 MW

 SORT1 READ     6460078. AND WROTE     5119384. INTEGRALS IN     15 RECORDS. CPU TIME:     0.08 SEC, REAL TIME:     0.36 SEC
 SORT2 READ     5119384. AND WROTE     5791906. INTEGRALS IN     93 RECORDS. CPU TIME:     0.17 SEC, REAL TIME:     0.27 SEC

 FILE SIZES:   FILE 1:    54.8 MBYTE,  FILE 4:    62.9 MBYTE,   TOTAL:    117.7 MBYTE

 OPERATOR DM      FOR CENTER  0  COORDINATES:    0.000000    0.000000    0.000000


 **********************************************************************************************************************************
 DATASETS  * FILE   NREC   LENGTH (MB)   RECORD NAMES
              1      19       51.35       500      610      700      900      950      970     1000      129      960     1100   
                                          VAR    BASINP    GEOM    SYMINP    ZMAT    AOBASIS   BASIS     P2S    ABASIS      S 
                                         1400     1410     1200     1210     1080     1600     1650     1300     1700   
                                           T        V       H0       H01     AOSYM     SMH    MOLCAS    ERIS     OPER   

 PROGRAMS   *        TOTAL       INT
 CPU TIMES  *         1.28      1.14
 REAL TIME  *         2.47 SEC
 DISK USED  *       118.16 MB      
 **********************************************************************************************************************************

 Density functional group B97R=B97RDF
 Functional: B97RDF(Automatically generated (new) B97RDF)                      Gradient terms: 1
 Use grid at  1800.2


 Exact exchange will be calculated, factor:  0.2100

 Functional: B97RDF                    Factor:  1.0000

 Generated new metagrid on record  1800.2 with target accuracy 1.0D-06 and 39228 points in CPU time    0.9
 Computed new grid on record 1800.1 in CPU time    1.0
   69171 words reserved for DFT integration

 PROGRAM * UKS-SCF (Unrestricted Kohn-Sham)     Authors: W. Meyer, H.-J. Werner, P.J. Knowles, 1993

 NUMBER OF ELECTRONS:      13+   13-    SPACE SYMMETRY=1    SPIN SYMMETRY: Singlet 
 CONVERGENCE THRESHOLDS:    1.00E-05 (Density)    1.00E-06 (Energy)
 MAX. NUMBER OF ITERATIONS:       60
 INTERPOLATION TYPE:            DIIS
 INTERPOLATION STEPS:              2 (START)      1 (STEP)
 LEVEL SHIFTS:                 -0.20 (ALPHA)  -0.20 (BETA) 



 Use fine grid record 1800.2 for energy threshold  1.0D-06
 Orbital guess generated from atomic densities. Full valence occupancy:   13

 Molecular orbital dump at record        2200.2

 Initial alpha occupation  13
 Initial beta  occupation  13

 ITERATION    DDIFF          GRAD             ENERGY        2-EL.EN.            DIPOLE MOMENTS         DIIS
    1      0.000D+00      0.000D+00      -118.87709924    278.787202    0.00000    0.00000   -0.01250    0
    2      0.118D-01      0.579D-02      -118.99463974    267.885143    0.00000    0.00000   -0.00248    1
    3      0.343D-02      0.219D-02      -119.00949511    270.275990    0.00000    0.00000    0.01943    2
    4      0.120D-02      0.270D-03      -119.01008275    270.168021    0.00000    0.00000    0.02035    3
    5      0.761D-03      0.107D-03      -119.01020762    270.123121    0.00000    0.00000    0.02151    4
    6      0.247D-03      0.292D-04      -119.01021661    270.110590    0.00000    0.00000    0.02241    5
    7      0.471D-04      0.960D-05      -119.01021717    270.110515    0.00000    0.00000    0.02162    6
    8      0.137D-04      0.195D-05      -119.01021720    270.110285    0.00000    0.00000    0.02186    6
    9      0.326D-05      0.440D-06      -119.01021721    270.110507    0.00000    0.00000    0.02180    6
   10      0.546D-06      0.118D-06      -119.01021721    270.110325    0.00000    0.00000    0.02181    6

 Final alpha occupancy:  13
 Final beta  occupancy:  13

 !UKS STATE 1.1 Energy               -119.010217206394
 Nuclear energy                        82.25558439
 One-electron energy                 -320.97971571
 Two-electron energy                  135.05516254
 Density functional                   -15.34124842     B97RDF=-15.34124842
 Virial quotient                       -1.01339563
 !UKS STATE 1.1 Dipole moment           0.00000000     0.00000000     0.02181067
 Dipole moment /Debye                   0.00000000     0.00000000     0.05543357

 Orbital energies for positive spin:

         1.1          2.1          3.1          4.1          5.1          6.1          7.1          8.1          9.1         10.1
    -10.189902   -10.183187   -10.183170    -0.774179    -0.674193    -0.578377    -0.454339    -0.434405    -0.396952    -0.378322

        11.1         12.1         13.1         14.1         15.1
     -0.337266    -0.335163    -0.325377     0.067402     0.114674

 Orbital energies for negative spin:

         1.1          2.1          3.1          4.1          5.1          6.1          7.1          8.1          9.1         10.1
    -10.189902   -10.183187   -10.183170    -0.774179    -0.674193    -0.578377    -0.454339    -0.434405    -0.396952    -0.378322

        11.1         12.1         13.1         14.1         15.1
     -0.337266    -0.335163    -0.325377     0.067402     0.114674

 HOMO     13.1    -0.325377 =      -8.8540eV
 LUMO     14.1     0.067402 =       1.8341eV
 LUMO-HOMO         0.392780 =      10.6881eV

 EXPECTATION VALUE OF S**2:            -0.00000000

 Natural orbitals saved to record    2200.2 (Orbital set 3)

 Orbital spaces for UNO-CAS (Min. occupation: 0.020  Max. occupation: 1.980):

 Closed:       13
 Active:        0


 **********************************************************************************************************************************
 DATASETS  * FILE   NREC   LENGTH (MB)   RECORD NAMES
              1      20       52.60       500      610      700      900      950      970     1000      129      960     1100   
                                          VAR    BASINP    GEOM    SYMINP    ZMAT    AOBASIS   BASIS     P2S    ABASIS      S 
                                         1400     1410     1200     1210     1080     1600     1650     1300     1700     1800   
                                           T        V       H0       H01     AOSYM     SMH    MOLCAS    ERIS     OPER     GRID   

              2       5        3.21       700     1000      520     1800     2200   
                                         GEOM     BASIS   MCVARS    GRID      UKS  

 PROGRAMS   *        TOTAL       UKS       INT
 CPU TIMES  *        11.59     10.31      1.14
 REAL TIME  *        14.93 SEC
 DISK USED  *       118.16 MB      
 **********************************************************************************************************************************


 PROGRAM * Intrinsic Basis Bonding Analysis (IBBA)          Author: G. Knizia

 Molecular orbitals read from record     2200.2  Type=UKS/ALPHA (state 1.1)
 Fock matrix read from record            2200.2  Type=UKS/TOTAL (state 1.1)
 Orbital energies read from record       2200.2  Type=UKS/ALPHA (state 1.1)
 Density matrix read from record         2200.2  Type=UKS/CHARGE (state 1.1)

 Number of core orbitals:           3 (   3 )
 Number of closed-shell orbitals:  10 (  10 )

 Basis set MINAO-AUTO-PP generated.      Number of basis functions:   23 

 Polarized AO type:                A = (O Ot + (1-O)(1-Ot)) P12
 Orthogonalization method:         Symmetric (Loewdin)
 Localization functional:          L = sum[A,i] <i|n_A|i>^4 -> max

 Localization group 1:  13 orbitals, occupancy  2.000
 Iterative localization: IB/PM,    7 iter; Final gradient 0.15E-08

 Bond order analysis:       [THRPRINT= 0.020]

   CEN ATOM   CEN ATOM     WIBERG.BO      RENORM.BO
     1   C  -   4   C       1.029195       1.021643
     1   C  -   5   C       1.029195       1.021643
     1   C  -   3   H       0.951065       0.969771
     1   C  -   2   H       0.951065       0.969771

     2   H  -   1   C       0.951065       0.969771

     3   H  -   1   C       0.951065       0.969771

     4   C  -   1   C       1.029195       1.021643
     4   C  -   6   H       0.966002       0.986061
     4   C  -   7   H       0.965242       0.981557
     4   C  -   8   H       0.965242       0.981557

     5   C  -   1   C       1.029195       1.021643
     5   C  -   9   H       0.966002       0.986061
     5   C  -  10   H       0.965242       0.981557
     5   C  -  11   H       0.965242       0.981557

     6   H  -   4   C       0.966002       0.986061

     7   H  -   4   C       0.965242       0.981557

     8   H  -   4   C       0.965242       0.981557

     9   H  -   5   C       0.966002       0.986061

    10   H  -   5   C       0.965242       0.981557

    11   H  -   5   C       0.965242       0.981557


 Valency analysis:

   CEN ATOM   TOT.VALENCE
     1   C       3.965398
     2   H       0.985412
     3   H       0.985412
     4   C       3.944354
     5   C       3.944354
     6   H       0.983300
     7   H       0.984570
     8   H       0.984570
     9   H       0.983300
    10   H       0.984570
    11   H       0.984570

 Total charge composition:

   CEN ATOM         s          p       ELECTRONS ->P.CHARGE
     1   C       2.98335    3.24039      6.22374   -0.22374
     2   H       0.87922                 0.87922    0.12078
     3   H       0.87922                 0.87922    0.12078
     4   C       3.01943    3.36714      6.38658   -0.38658
     5   C       3.01943    3.36714      6.38658   -0.38658
     6   H       0.87077                 0.87077    0.12923
     7   H       0.87578                 0.87578    0.12422
     8   H       0.87578                 0.87578    0.12422
     9   H       0.87077                 0.87077    0.12923
    10   H       0.87578                 0.87578    0.12422
    11   H       0.87578                 0.87578    0.12422

 Total charge composition, AO contributions:

   CEN ATOM SHL      SPHERICAL COMPONENTS
     1   C  1s       1.99125
     1   C  2s       0.99210
     1   C  2p       1.14682    1.01030    1.08327

     2   H  1s       0.87922

     3   H  1s       0.87922

     4   C  1s       1.99097
     4   C  2s       1.02847
     4   C  2p       1.15444    1.08853    1.12417

     5   C  1s       1.99097
     5   C  2s       1.02847
     5   C  2p       1.15444    1.08853    1.12417

     6   H  1s       0.87077

     7   H  1s       0.87578

     8   H  1s       0.87578

     9   H  1s       0.87077

    10   H  1s       0.87578

    11   H  1s       0.87578

 Summary of localized orbital composition:   [THRPRINT= 0.020]

   ORB  GRP  ORB.ENERGY      CENTERS/CHARGES
     1   1   -10.080999      C  1   2.000
     2   1   -10.069162      C  5   2.000
     3   1   -10.069162      C  4   2.000
     4   1    -0.554880      C  4   1.004   C  1   0.988
     5   1    -0.554880      C  5   1.004   C  1   0.988
     6   1    -0.490484      C  5   1.126   H  9   0.865
     7   1    -0.490484      C  4   1.126   H  6   0.865
     8   1    -0.490117      C  4   1.122   H  8   0.869
     9   1    -0.490117      C  5   1.122   H 11   0.869
    10   1    -0.490117      C  5   1.122   H 10   0.869
    11   1    -0.490117      C  4   1.122   H  7   0.869
    12   1    -0.487180      C  1   1.112   H  2   0.870
    13   1    -0.487180      C  1   1.112   H  3   0.870

 Localized orbitals saved to record      2200.2  (orbital set 4)


 **********************************************************************************************************************************
 DATASETS  * FILE   NREC   LENGTH (MB)   RECORD NAMES
              1      20       52.60       500      610      700      900      950      970     1000      129      960     1100   
                                          VAR    BASINP    GEOM    SYMINP    ZMAT    AOBASIS   BASIS     P2S    ABASIS      S 
                                         1400     1410     1200     1210     1080     1600     1650     1300     1700     1800   
                                           T        V       H0       H01     AOSYM     SMH    MOLCAS    ERIS     OPER     GRID   

              2       5        3.26       700     1000      520     1800     2200   
                                         GEOM     BASIS   MCVARS    GRID      UKS  

 PROGRAMS   *        TOTAL      IBBA       UKS       INT
 CPU TIMES  *        11.63      0.03     10.31      1.14
 REAL TIME  *        15.46 SEC
 DISK USED  *       118.16 MB      
 **********************************************************************************************************************************
 Molecular orbitals read from record     2200.2  Type=UKS/LOCAL(IBO)  
 Occupation numbers read from record     2200.2  Type=UKS/LOCAL(IBO)  
 Orbital energies read from record       2200.2  Type=UKS/LOCAL(IBO)  
 Redundancy group numbers read from rec  2200.2  Type=UKS/BETA (state 1.1)

 IBBA/SVP energy=      0.000000000000

        UKS-SCF 
   -119.01021721
 **********************************************************************************************************************************
 Molpro calculation terminated
