
 Primary working directories    : /tmp/sb13343
 Secondary working directories  : /tmp/sb13343
 Wavefunction directory         : /panfs/panasas01/chem/sb13343/wfu/
 Main file repository           : /tmp/sb13343/

 SHA1      : b4a5b34a9e711420743f49e6833241d17c61fb3c
 NAME      : 2099.9.b4a5b34
 ARCHNAME  : linux/x86_64_openmp
 FC        : /cm/shared/languages/GCC-6.1/bin/gfortran
 BLASLIB   : -lblas
 id        : simonbennie

 Nodes     nprocs
 node32-002    1

 Using customized tuning parameters: mindgm=1; mindgv=20; mindgc=4; mindgr=1; noblas=0; minvec=7
 default implementation of scratch files=df  

 memory,500,m
 geomtyp=xyz
 nosym
 noorient
 geometry={
 C          0.00000        0.00000        0.58646
 H          0.87762        0.00000        1.24716
 H         -0.87762        0.00000        1.24716
 C          0.00000       -1.27718       -0.25989
 C          0.00000        1.27718       -0.25989
 H          0.00000       -2.17596        0.36762
 H         -0.88462       -1.32219       -0.90739
 H          0.88462       -1.32219       -0.90739
 H          0.00000        2.17596        0.36762
 H          0.88462        1.32219       -0.90739
 H         -0.88462        1.32219       -0.90739
 }
 basis={ default,svp }
 {ks,SOGGA11-X,direct;wf,26,1,0}
 {ibba,bonds=1}

 Variables initialized (895), CPU time= 0.00 sec
 Commands  initialized (725), CPU time= 0.01 sec, 591 directives.
 Default parameters read. Elapsed time= 4.04 sec

 Checking input...
 Passed
1


                                         ***  PROGRAM SYSTEM MOLPRO  ***
                                       Copyright, TTI GmbH Stuttgart, 2015
                                    Version 2099.9 linked May 26 2017 16:03:21


 **********************************************************************************************************************************
 LABEL *                                                                                 
  64 bit serial version                                                                  DATE: 08-Jun-17          TIME: 06:54:43  
 **********************************************************************************************************************************

 SHA1:             b4a5b34a9e711420743f49e6833241d17c61fb3c
 **********************************************************************************************************************************
 SETTING GEOMTYP        =    XYZ

 Variable memory set to  500000000 words,  buffer space 

 ZSYMEL=NOSYM

 SETTING BASIS          =    SVP


 Recomputing integrals since basis changed


 Using spherical harmonics

 Library entry C      S def2-SVP             selected for orbital group  1
 Library entry C      P def2-SVP             selected for orbital group  1
 Library entry C      D def2-SVP             selected for orbital group  1
 Library entry H      S def2-SVP             selected for orbital group  2
 Library entry H      P def2-SVP             selected for orbital group  2


 PROGRAM * SEWARD (Integral evaluation for generally contracted gaussian basis sets)     Author: Roland Lindh, 1990

 Geometry written to block  1 of record 700


 Point group  C1  



 ATOMIC COORDINATES

 NR  ATOM    CHARGE       X              Y              Z

   1  C       6.00    0.000000000    0.000000000    1.108248783
   2  H       1.00    1.658461441    0.000000000    2.356790834
   3  H       1.00   -1.658461441    0.000000000    2.356790834
   4  C       6.00    0.000000000   -2.413520412   -0.491120923
   5  C       6.00    0.000000000    2.413520412   -0.491120923
   6  H       1.00    0.000000000   -4.111968458    0.694701118
   7  H       1.00   -1.671689524   -2.498576985   -1.714718588
   8  H       1.00    1.671689524   -2.498576985   -1.714718588
   9  H       1.00    0.000000000    4.111968458    0.694701118
  10  H       1.00    1.671689524    2.498576985   -1.714718588
  11  H       1.00   -1.671689524    2.498576985   -1.714718588

 Bond lengths in Bohr (Angstrom)

 1-2  2.075897783  1-3  2.075897783  1-4  2.895352178  1-5  2.895352178  4-6  2.071448690
     ( 1.098517799)     ( 1.098517799)     ( 1.532154390)     ( 1.532154390)     ( 1.096163441)

  4- 7  2.073396183   4- 8  2.073396183   5- 9  2.071448690   5-10  2.073396183   5-11  2.073396183
       ( 1.097194010)       ( 1.097194010)       ( 1.096163441)       ( 1.097194010)       ( 1.097194010)

 Bond angles

  1-4-6  111.54675740   1-4-7  111.11159726   1-4-8  111.11159726   1-5-9  111.54675740

  1- 5-10  111.11159726   1- 5-11  111.11159726   2- 1- 3  106.05282696   2- 1- 4  109.40445441

  2-1-5  109.40445441   3-1-4  109.40445441   3-1-5  109.40445441   4-1-5  112.93744570

  6- 4- 7  107.70984506   6- 4- 8  107.70984506   7- 4- 8  107.46358962   9- 5-10  107.70984506

  9- 5-11  107.70984506  10- 5-11  107.46358962

 NUCLEAR CHARGE:                   26
 NUMBER OF PRIMITIVE AOS:         131
 NUMBER OF SYMMETRY AOS:          128
 NUMBER OF CONTRACTIONS:           82   (  82A   )
 NUMBER OF CORE ORBITALS:           3   (   3A   )
 NUMBER OF VALENCE ORBITALS:       20   (  20A   )


 NUCLEAR REPULSION ENERGY   82.25558439


 Eigenvalues of metric

         1 0.304E-02 0.671E-02 0.221E-01 0.273E-01 0.277E-01 0.357E-01 0.407E-01 0.451E-01


 Contracted 2-electron integrals neglected if value below      1.0D-11
 AO integral compression algorithm  1   Integral accuracy      1.0D-11

     24.379 MB (compressed) written to integral file ( 46.8%)


 NUMBER OF SORTED TWO-ELECTRON INTEGRALS:    5791906.     BUFFER LENGTH:  32768
 NUMBER OF SEGMENTS:   1  SEGMENT LENGTH:    5791906      RECORD LENGTH: 524288

 Memory used in sort:       6.35 MW

 SORT1 READ     6460078. AND WROTE     5119384. INTEGRALS IN     15 RECORDS. CPU TIME:     0.07 SEC, REAL TIME:     0.26 SEC
 SORT2 READ     5119384. AND WROTE     5791906. INTEGRALS IN     93 RECORDS. CPU TIME:     0.19 SEC, REAL TIME:     0.36 SEC

 FILE SIZES:   FILE 1:    54.8 MBYTE,  FILE 4:    62.9 MBYTE,   TOTAL:    117.7 MBYTE

 OPERATOR DM      FOR CENTER  0  COORDINATES:    0.000000    0.000000    0.000000


 **********************************************************************************************************************************
 DATASETS  * FILE   NREC   LENGTH (MB)   RECORD NAMES
              1      19       51.35       500      610      700      900      950      970     1000      129      960     1100   
                                          VAR    BASINP    GEOM    SYMINP    ZMAT    AOBASIS   BASIS     P2S    ABASIS      S 
                                         1400     1410     1200     1210     1080     1600     1650     1300     1700   
                                           T        V       H0       H01     AOSYM     SMH    MOLCAS    ERIS     OPER   

 PROGRAMS   *        TOTAL       INT
 CPU TIMES  *         1.40      1.25
 REAL TIME  *         6.84 SEC
 DISK USED  *       118.16 MB      
 **********************************************************************************************************************************

 Density functional group SOGGA11-X=XC-SOGGA11-X
 Functional: XC-SOGGA11-X(via MFM 1.6)                                         Gradient terms: 1
 Use grid at  1800.2


 Exact exchange will be calculated, factor:  0.4015

 Functional: XC-SOGGA11-X              Factor:  1.0000

 Generated new metagrid on record  1800.2 with target accuracy 1.0D-06 and 39228 points in CPU time    0.9
 Computed new grid on record 1800.1 in CPU time    1.0
   69171 words reserved for DFT integration

 PROGRAM * RKS-SCF (Restricted closed shell Kohn-Sham)     Authors: W. Meyer, H.-J. Werner, P.J. Knowles, 1993

 NUMBER OF ELECTRONS:      13+   13-    SPACE SYMMETRY=1    SPIN SYMMETRY: Singlet 
 CONVERGENCE THRESHOLDS:    1.00E-05 (Density)    1.00E-06 (Energy)
 MAX. NUMBER OF ITERATIONS:       60
 INTERPOLATION TYPE:            DIIS
 INTERPOLATION STEPS:              2 (START)      1 (STEP)
 LEVEL SHIFTS:                  0.00 (CLOSED)  0.00 (OPEN) 



 Use fine grid record 1800.2 for energy threshold  1.0D-06
 Orbital guess generated from atomic densities. Full valence occupancy:   13

 Molecular orbital dump at record        2100.2

 Initial occupancy:  13

 ITERATION    DDIFF          GRAD             ENERGY        2-EL.EN.            DIPOLE MOMENTS         DIIS   ORB.
    1      0.000D+00      0.000D+00      -118.95760976    268.944750    0.00000    0.00000   -0.00871    0    start
    2      0.000D+00      0.850D-02      -118.97140306    256.966158   -0.00000    0.00000    0.01129    1    diag
    3      0.135D-01      0.813D-02      -119.03530271    262.743840    0.00000    0.00000    0.02995    2    diag
    4      0.644D-02      0.336D-03      -119.03539004    262.681484    0.00000    0.00000    0.01546    3    diag
    5      0.364D-03      0.171D-03      -119.03541535    262.708153    0.00000    0.00000    0.01624    4    diag
    6      0.158D-03      0.437D-04      -119.03541704    262.708862    0.00000    0.00000    0.01857    5    diag
    7      0.381D-04      0.443D-05      -119.03541706    262.710024    0.00000    0.00000    0.01789    6    diag
    8      0.558D-05      0.677D-06      -119.03541706    262.710044    0.00000    0.00000    0.01802    0    orth

 Final occupancy:  13

 !RKS STATE 1.1 Energy               -119.035417061618
 Nuclear energy                        82.25558439
 One-electron energy                 -320.80279670
 Two-electron energy                  131.35502182
 SCF exchange energy                  -18.35421181     Factor= 0.4015
 Density functional                   -11.84322657     XC-SOGGA11-X=-11.84322657
 Virial quotient                       -1.01385387
 !RKS STATE 1.1 Dipole moment           0.00000000     0.00000000     0.01802444
 Dipole moment /Debye                   0.00000000     0.00000000     0.04581056

 Orbital energies:

         1.1          2.1          3.1          4.1          5.1          6.1          7.1          8.1          9.1         10.1
    -10.448934   -10.442631   -10.442616    -0.856690    -0.748700    -0.644600    -0.507533    -0.486283    -0.445995    -0.426358

        11.1         12.1         13.1         14.1         15.1
     -0.382456    -0.380229    -0.369986     0.088945     0.136461

 HOMO     13.1    -0.369986 =     -10.0678eV
 LUMO     14.1     0.088945 =       2.4203eV
 LUMO-HOMO         0.458931 =      12.4881eV


 **********************************************************************************************************************************
 DATASETS  * FILE   NREC   LENGTH (MB)   RECORD NAMES
              1      20       52.60       500      610      700      900      950      970     1000      129      960     1100   
                                          VAR    BASINP    GEOM    SYMINP    ZMAT    AOBASIS   BASIS     P2S    ABASIS      S 
                                         1400     1410     1200     1210     1080     1600     1650     1300     1700     1800   
                                           T        V       H0       H01     AOSYM     SMH    MOLCAS    ERIS     OPER     GRID   

              2       5        3.07       700     1000      520     1800     2100   
                                         GEOM     BASIS   MCVARS    GRID      RKS  

 PROGRAMS   *        TOTAL        KS       INT
 CPU TIMES  *         8.08      6.68      1.25
 REAL TIME  *        17.99 SEC
 DISK USED  *       118.16 MB      
 **********************************************************************************************************************************


 PROGRAM * Intrinsic Basis Bonding Analysis (IBBA)          Author: G. Knizia

 Molecular orbitals read from record     2100.2  Type=RKS/CANONICAL (state 1.1)
 Fock matrix read from record            2100.2  Type=RKS/TOTAL (state 1.1)
 Orbital energies read from record       2100.2  Type=RKS/CANONICAL (state 1.1)
 Density matrix read from record         2100.2  Type=RKS/CHARGE (state 1.1)

 Number of core orbitals:           3 (   3 )
 Number of closed-shell orbitals:  10 (  10 )

 Basis set MINAO-AUTO-PP generated.      Number of basis functions:   23 

 Polarized AO type:                A = (O Ot + (1-O)(1-Ot)) P12
 Orthogonalization method:         Symmetric (Loewdin)
 Localization functional:          L = sum[A,i] <i|n_A|i>^4 -> max

 Localization group 1:  13 orbitals, occupancy  2.000
 Iterative localization: IB/PM,    7 iter; Final gradient 0.13E-08

 Bond order analysis:       [THRPRINT= 0.020]

   CEN ATOM   CEN ATOM     WIBERG.BO      RENORM.BO
     1   C  -   4   C       1.028829       1.021408
     1   C  -   5   C       1.028829       1.021408
     1   C  -   3   H       0.952442       0.970216
     1   C  -   2   H       0.952442       0.970216

     2   H  -   1   C       0.952442       0.970216

     3   H  -   1   C       0.952442       0.970216

     4   C  -   1   C       1.028829       1.021408
     4   C  -   6   H       0.967109       0.986386
     4   C  -   8   H       0.966412       0.982215
     4   C  -   7   H       0.966412       0.982215

     5   C  -   1   C       1.028829       1.021408
     5   C  -   9   H       0.967109       0.986386
     5   C  -  11   H       0.966412       0.982215
     5   C  -  10   H       0.966412       0.982215

     6   H  -   4   C       0.967109       0.986386

     7   H  -   4   C       0.966412       0.982215

     8   H  -   4   C       0.966412       0.982215

     9   H  -   5   C       0.967109       0.986386

    10   H  -   5   C       0.966412       0.982215

    11   H  -   5   C       0.966412       0.982215


 Valency analysis:

   CEN ATOM   TOT.VALENCE
     1   C       3.966891
     2   H       0.985838
     3   H       0.985838
     4   C       3.946554
     5   C       3.946554
     6   H       0.983726
     7   H       0.984961
     8   H       0.984961
     9   H       0.983726
    10   H       0.984961
    11   H       0.984961

 Total charge composition:

   CEN ATOM         s          p       ELECTRONS ->P.CHARGE
     1   C       2.98730    3.23438      6.22168   -0.22168
     2   H       0.88100                 0.88100    0.11900
     3   H       0.88100                 0.88100    0.11900
     4   C       3.02282    3.35818      6.38100   -0.38100
     5   C       3.02282    3.35818      6.38100   -0.38100
     6   H       0.87243                 0.87243    0.12757
     7   H       0.87736                 0.87736    0.12264
     8   H       0.87736                 0.87736    0.12264
     9   H       0.87243                 0.87243    0.12757
    10   H       0.87736                 0.87736    0.12264
    11   H       0.87736                 0.87736    0.12264

 Total charge composition, AO contributions:

   CEN ATOM SHL      SPHERICAL COMPONENTS
     1   C  1s       1.99076
     1   C  2s       0.99654
     1   C  2p       1.14357    1.00913    1.08168

     2   H  1s       0.88100

     3   H  1s       0.88100

     4   C  1s       1.99048
     4   C  2s       1.03234
     4   C  2p       1.15094    1.08599    1.12126

     5   C  1s       1.99048
     5   C  2s       1.03234
     5   C  2p       1.15094    1.08599    1.12126

     6   H  1s       0.87243

     7   H  1s       0.87736

     8   H  1s       0.87736

     9   H  1s       0.87243

    10   H  1s       0.87736

    11   H  1s       0.87736

 Summary of localized orbital composition:   [THRPRINT= 0.020]

   ORB  GRP  ORB.ENERGY      CENTERS/CHARGES
     1   1   -10.336606      C  1   2.000
     2   1   -10.324994      C  5   2.000
     3   1   -10.324994      C  4   2.000
     4   1    -0.616040      C  4   1.004   C  1   0.988
     5   1    -0.616040      C  5   1.004   C  1   0.988
     6   1    -0.546589      C  5   1.125   H  9   0.866
     7   1    -0.546589      C  4   1.125   H  6   0.866
     8   1    -0.546144      C  4   1.120   H  8   0.871
     9   1    -0.546144      C  5   1.120   H 11   0.871
    10   1    -0.546144      C  5   1.120   H 10   0.871
    11   1    -0.546144      C  4   1.120   H  7   0.871
    12   1    -0.543292      C  1   1.111   H  2   0.872
    13   1    -0.543292      C  1   1.111   H  3   0.872

 Localized orbitals saved to record      2100.2  (orbital set 2)


 **********************************************************************************************************************************
 DATASETS  * FILE   NREC   LENGTH (MB)   RECORD NAMES
              1      20       52.60       500      610      700      900      950      970     1000      129      960     1100   
                                          VAR    BASINP    GEOM    SYMINP    ZMAT    AOBASIS   BASIS     P2S    ABASIS      S 
                                         1400     1410     1200     1210     1080     1600     1650     1300     1700     1800   
                                           T        V       H0       H01     AOSYM     SMH    MOLCAS    ERIS     OPER     GRID   

              2       5        3.12       700     1000      520     1800     2100   
                                         GEOM     BASIS   MCVARS    GRID      RKS  

 PROGRAMS   *        TOTAL      IBBA        KS       INT
 CPU TIMES  *         8.11      0.03      6.68      1.25
 REAL TIME  *        18.10 SEC
 DISK USED  *       118.16 MB      
 **********************************************************************************************************************************
 Molecular orbitals read from record     2100.2  Type=RKS/LOCAL(IBO)  
 Occupation numbers read from record     2100.2  Type=RKS/LOCAL(IBO)  
 Orbital energies read from record       2100.2  Type=RKS/LOCAL(IBO)  
 Redundancy group numbers read from rec  2100.2  Type=RKS/LOCAL(IBO)  

 IBBA/SVP energy=      0.000000000000

        KS-SCF  
   -119.03541706
 **********************************************************************************************************************************
 Molpro calculation terminated
