
 Primary working directories    : /tmp/sb13343
 Secondary working directories  : /tmp/sb13343
 Wavefunction directory         : /panfs/panasas01/chem/sb13343/wfu/
 Main file repository           : /tmp/sb13343/

 SHA1      : b4a5b34a9e711420743f49e6833241d17c61fb3c
 NAME      : 2099.9.b4a5b34
 ARCHNAME  : linux/x86_64_openmp
 FC        : /cm/shared/languages/GCC-6.1/bin/gfortran
 BLASLIB   : -lblas
 id        : simonbennie

 Nodes     nprocs
 node35-048    1

 Using customized tuning parameters: mindgm=1; mindgv=20; mindgc=4; mindgr=1; noblas=0; minvec=7
 default implementation of scratch files=df  

 memory,500,m
 geomtyp=xyz
 nosym
 noorient
 geometry={
 C         -0.76527        0.00000        0.00000
 C          0.76527        0.00000        0.00000
 H          1.16435        1.02094        0.00000
 H          1.16435       -0.51047        0.88416
 H          1.16435       -0.51047       -0.88416
 H         -1.16435       -1.02094       -0.00000
 H         -1.16435        0.51047        0.88416
 H         -1.16435        0.51047       -0.88416
 }
 basis={ default,sto-3g }
 {uks,M08-HX,direct;wf,18,1,0}
 {ibba,bonds=1}

 Variables initialized (895), CPU time= 0.00 sec
 Commands  initialized (725), CPU time= 0.01 sec, 591 directives.
 Default parameters read. Elapsed time= 5.60 sec

 Checking input...
 Passed
1


                                         ***  PROGRAM SYSTEM MOLPRO  ***
                                       Copyright, TTI GmbH Stuttgart, 2015
                                    Version 2099.9 linked May 26 2017 16:03:21


 **********************************************************************************************************************************
 LABEL *                                                                                 
  64 bit serial version                                                                  DATE: 08-Jun-17          TIME: 08:19:32  
 **********************************************************************************************************************************

 SHA1:             b4a5b34a9e711420743f49e6833241d17c61fb3c
 **********************************************************************************************************************************
 SETTING GEOMTYP        =    XYZ

 Variable memory set to  500000000 words,  buffer space 

 ZSYMEL=NOSYM

 SETTING BASIS          =    STO-3G


 Recomputing integrals since basis changed


 Using spherical harmonics

 Library entry C      S STO-3G               selected for orbital group  1
 Library entry C      P STO-3G               selected for orbital group  1
 Library entry H      S STO-3G               selected for orbital group  2


 PROGRAM * SEWARD (Integral evaluation for generally contracted gaussian basis sets)     Author: Roland Lindh, 1990

 Geometry written to block  1 of record 700


 Point group  C1  



 ATOMIC COORDINATES

 NR  ATOM    CHARGE       X              Y              Z

   1  C       6.00   -1.446150711    0.000000000    0.000000000
   2  C       6.00    1.446150711    0.000000000    0.000000000
   3  H       1.00    2.200302613    1.929296990    0.000000000
   4  H       1.00    2.200302613   -0.964648495    1.670820250
   5  H       1.00    2.200302613   -0.964648495   -1.670820250
   6  H       1.00   -2.200302613   -1.929296990   -0.000000000
   7  H       1.00   -2.200302613    0.964648495    1.670820250
   8  H       1.00   -2.200302613    0.964648495   -1.670820250

 Bond lengths in Bohr (Angstrom)

 1-2  2.892301423  1-6  2.071456484  1-7  2.071456521  1-8  2.071456521  2-3  2.071456484
     ( 1.530540000)     ( 1.096167565)     ( 1.096167584)     ( 1.096167584)     ( 1.096167565)

 2-4  2.071456521  2-5  2.071456521
     ( 1.096167584)     ( 1.096167584)

 Bond angles

  1-2-3  111.35026330   1-2-4  111.35026290   1-2-5  111.35026290   2-1-6  111.35026330

  2-1-7  111.35026290   2-1-8  111.35026290   3-2-4  107.52856653   3-2-5  107.52856653

  4-2-5  107.52856835   6-1-7  107.52856653   6-1-8  107.52856653   7-1-8  107.52856835

 NUCLEAR CHARGE:                   18
 NUMBER OF PRIMITIVE AOS:          48
 NUMBER OF SYMMETRY AOS:           48
 NUMBER OF CONTRACTIONS:           16   (  16A   )
 NUMBER OF CORE ORBITALS:           2   (   2A   )
 NUMBER OF VALENCE ORBITALS:       14   (  14A   )


 NUCLEAR REPULSION ENERGY   42.10919032


 Eigenvalues of metric

         1 0.210E+00 0.252E+00 0.353E+00 0.353E+00 0.394E+00 0.394E+00 0.416E+00 0.960E+00


 Contracted 2-electron integrals neglected if value below      1.0D-11
 AO integral compression algorithm  1   Integral accuracy      1.0D-11

     0.262 MB (compressed) written to integral file (100.0%)


 NUMBER OF SORTED TWO-ELECTRON INTEGRALS:       9316.     BUFFER LENGTH:  32768
 NUMBER OF SEGMENTS:   1  SEGMENT LENGTH:       9316      RECORD LENGTH: 524288

 Memory used in sort:       0.57 MW

 SORT1 READ       11328. AND WROTE        7707. INTEGRALS IN      1 RECORDS. CPU TIME:     0.00 SEC, REAL TIME:     0.01 SEC
 SORT2 READ        7707. AND WROTE        9316. INTEGRALS IN      1 RECORDS. CPU TIME:     0.01 SEC, REAL TIME:     0.00 SEC

 FILE SIZES:   FILE 1:    30.3 MBYTE,  FILE 4:     4.2 MBYTE,   TOTAL:     34.6 MBYTE

 OPERATOR DM      FOR CENTER  0  COORDINATES:    0.000000    0.000000    0.000000


 **********************************************************************************************************************************
 DATASETS  * FILE   NREC   LENGTH (MB)   RECORD NAMES
              1      19       30.12       500      610      700      900      950      970     1000      129      960     1100   
                                          VAR    BASINP    GEOM    SYMINP    ZMAT    AOBASIS   BASIS     P2S    ABASIS      S 
                                         1400     1410     1200     1210     1080     1600     1650     1300     1700   
                                           T        V       H0       H01     AOSYM     SMH    MOLCAS    ERIS     OPER   

 PROGRAMS   *        TOTAL       INT
 CPU TIMES  *         0.35      0.21
 REAL TIME  *         6.38 SEC
 DISK USED  *        34.94 MB      
 **********************************************************************************************************************************

 Density functional group M08-HX=XC-M08-HX
 Functional: XC-M08-HX(via MFM 1.6)                                            Gradient terms: 1
 Use grid at  1800.2


 Exact exchange will be calculated, factor:  0.5223

 Functional: XC-M08-HX                 Factor:  1.0000

 Generated new metagrid on record  1800.2 with target accuracy 1.0D-06 and 24988 points in CPU time    0.6
 Computed new grid on record 1800.1 in CPU time    0.6
   16812 words reserved for DFT integration

 PROGRAM * UKS-SCF (Unrestricted Kohn-Sham)     Authors: W. Meyer, H.-J. Werner, P.J. Knowles, 1993

 NUMBER OF ELECTRONS:       9+    9-    SPACE SYMMETRY=1    SPIN SYMMETRY: Singlet 
 CONVERGENCE THRESHOLDS:    1.00E-05 (Density)    1.00E-06 (Energy)
 MAX. NUMBER OF ITERATIONS:       60
 INTERPOLATION TYPE:            DIIS
 INTERPOLATION STEPS:              2 (START)      1 (STEP)
 LEVEL SHIFTS:                 -0.20 (ALPHA)  -0.20 (BETA) 



 Use fine grid record 1800.2 for energy threshold  1.0D-06
 Orbital guess generated from atomic densities. Full valence occupancy:    9

 Molecular orbital dump at record        2200.2

 Initial alpha occupation   9
 Initial beta  occupation   9

 ITERATION    DDIFF          GRAD             ENERGY        2-EL.EN.            DIPOLE MOMENTS         DIIS
    1      0.000D+00      0.000D+00       -78.78572189    151.309932    0.00000    0.00000   -0.00000    0
    2      0.503D-01      0.192D-01       -78.85004276    147.440538    0.00000    0.00000   -0.00000    1
    3      0.369D-02      0.179D-02       -78.85048361    147.624455   -0.00000    0.00000   -0.00000    2
    4      0.148D-02      0.466D-03       -78.85053982    147.620886    0.00000    0.00000   -0.00000    3
    5      0.386D-03      0.967D-04       -78.85054243    147.619445    0.00000   -0.00000   -0.00000    4
    6      0.186D-04      0.707D-05       -78.85054244    147.619415    0.00000   -0.00000   -0.00000    4
    7      0.378D-05      0.121D-05       -78.85054244    147.619496   -0.00000    0.00000   -0.00000    5
    8      0.300D-06      0.107D-06       -78.85054244    147.619492   -0.00000   -0.00000   -0.00000    4

 Final alpha occupancy:   9
 Final beta  occupancy:   9

 !UKS STATE 1.1 Energy                -78.850542441268
 Nuclear energy                        42.10919032
 One-electron energy                 -188.23993199
 Two-electron energy                   73.80974610
 Density functional                    -6.52954687     XC-M08-HX=-6.52954687
 Virial quotient                       -1.01637559
 !UKS STATE 1.1 Dipole moment          -0.00000000    -0.00000000    -0.00000000
 Dipole moment /Debye                  -0.00000000    -0.00000000    -0.00000000

 Orbital energies for positive spin:

         1.1          2.1          3.1          4.1          5.1          6.1          7.1          8.1          9.1         10.1
    -10.301003   -10.300150    -0.810391    -0.667705    -0.469167    -0.468978    -0.389223    -0.369820    -0.369590     0.473214

        11.1
      0.474060

 Orbital energies for negative spin:

         1.1          2.1          3.1          4.1          5.1          6.1          7.1          8.1          9.1         10.1
    -10.301003   -10.300150    -0.810391    -0.667705    -0.469167    -0.468978    -0.389223    -0.369820    -0.369590     0.473214

        11.1
      0.474060

 HOMO      9.1    -0.369590 =     -10.0571eV
 LUMO     10.1     0.473214 =      12.8768eV
 LUMO-HOMO         0.842805 =      22.9339eV

 EXPECTATION VALUE OF S**2:             0.00000000

 Natural orbitals saved to record    2200.2 (Orbital set 3)

 Orbital spaces for UNO-CAS (Min. occupation: 0.020  Max. occupation: 1.980):

 Closed:        9
 Active:        0


 **********************************************************************************************************************************
 DATASETS  * FILE   NREC   LENGTH (MB)   RECORD NAMES
              1      20       30.92       500      610      700      900      950      970     1000      129      960     1100   
                                          VAR    BASINP    GEOM    SYMINP    ZMAT    AOBASIS   BASIS     P2S    ABASIS      S 
                                         1400     1410     1200     1210     1080     1600     1650     1300     1700     1800   
                                           T        V       H0       H01     AOSYM     SMH    MOLCAS    ERIS     OPER     GRID   

              2       5        2.89       700     1000      520     1800     2200   
                                         GEOM     BASIS   MCVARS    GRID      UKS  

 PROGRAMS   *        TOTAL       UKS       INT
 CPU TIMES  *         2.90      2.55      0.21
 REAL TIME  *         9.84 SEC
 DISK USED  *        34.94 MB      
 **********************************************************************************************************************************


 PROGRAM * Intrinsic Basis Bonding Analysis (IBBA)          Author: G. Knizia

 Molecular orbitals read from record     2200.2  Type=UKS/ALPHA (state 1.1)
 Fock matrix read from record            2200.2  Type=UKS/TOTAL (state 1.1)
 Orbital energies read from record       2200.2  Type=UKS/ALPHA (state 1.1)
 Density matrix read from record         2200.2  Type=UKS/CHARGE (state 1.1)

 Number of core orbitals:           2 (   2 )
 Number of closed-shell orbitals:   7 (   7 )

 Basis set MINAO-AUTO-PP generated.      Number of basis functions:   16 

 Polarized AO type:                A = (O Ot + (1-O)(1-Ot)) P12
 Orthogonalization method:         Symmetric (Loewdin)
 Localization functional:          L = sum[A,i] <i|n_A|i>^4 -> max

 Localization group 1:   9 orbitals, occupancy  2.000
 Iterative localization: IB/PM,    6 iter; Final gradient 0.73E-08

 Bond order analysis:       [THRPRINT= 0.020]

   CEN ATOM   CEN ATOM     WIBERG.BO      RENORM.BO
     1   C  -   2   C       1.030984       1.027093
     1   C  -   7   H       0.967085       0.987664
     1   C  -   8   H       0.967085       0.987664
     1   C  -   6   H       0.967010       0.987744

     2   C  -   1   C       1.030984       1.027093
     2   C  -   4   H       0.967085       0.987664
     2   C  -   5   H       0.967085       0.987664
     2   C  -   3   H       0.967010       0.987744

     3   H  -   2   C       0.967010       0.987744

     4   H  -   2   C       0.967085       0.987664

     5   H  -   2   C       0.967085       0.987664

     6   H  -   1   C       0.967010       0.987744

     7   H  -   1   C       0.967085       0.987664

     8   H  -   1   C       0.967085       0.987664


 Valency analysis:

   CEN ATOM   TOT.VALENCE
     1   C       3.935624
     2   C       3.935624
     3   H       0.983267
     4   H       0.983393
     5   H       0.983393
     6   H       0.983267
     7   H       0.983393
     8   H       0.983393

 Total charge composition:

   CEN ATOM         s          p       ELECTRONS ->P.CHARGE
     1   C       2.99204    3.39505      6.38709   -0.38709
     2   C       2.99204    3.39505      6.38709   -0.38709
     3   H       0.87064                 0.87064    0.12936
     4   H       0.87113                 0.87113    0.12887
     5   H       0.87113                 0.87113    0.12887
     6   H       0.87064                 0.87064    0.12936
     7   H       0.87113                 0.87113    0.12887
     8   H       0.87113                 0.87113    0.12887

 Total charge composition, AO contributions:

   CEN ATOM SHL      SPHERICAL COMPONENTS
     1   C  1s       1.99168
     1   C  2s       1.00036
     1   C  2p       1.05973    1.16785    1.16747

     2   C  1s       1.99168
     2   C  2s       1.00036
     2   C  2p       1.05973    1.16785    1.16747

     3   H  1s       0.87064

     4   H  1s       0.87113

     5   H  1s       0.87113

     6   H  1s       0.87064

     7   H  1s       0.87113

     8   H  1s       0.87113

 Summary of localized orbital composition:   [THRPRINT= 0.020]

   ORB  GRP  ORB.ENERGY      CENTERS/CHARGES
     1   1   -10.185635      C  2   2.000
     2   1   -10.185635      C  1   2.000
     3   1    -0.588641      C  1   0.998   C  2   0.998
     4   1    -0.531538      C  2   1.127   H  3   0.865
     5   1    -0.531538      C  1   1.127   H  6   0.865
     6   1    -0.530761      C  1   1.127   H  8   0.866
     7   1    -0.530761      C  2   1.127   H  5   0.866
     8   1    -0.530761      C  1   1.127   H  7   0.866
     9   1    -0.530761      C  2   1.127   H  4   0.866

 Localized orbitals saved to record      2200.2  (orbital set 4)


 **********************************************************************************************************************************
 DATASETS  * FILE   NREC   LENGTH (MB)   RECORD NAMES
              1      20       30.92       500      610      700      900      950      970     1000      129      960     1100   
                                          VAR    BASINP    GEOM    SYMINP    ZMAT    AOBASIS   BASIS     P2S    ABASIS      S 
                                         1400     1410     1200     1210     1080     1600     1650     1300     1700     1800   
                                           T        V       H0       H01     AOSYM     SMH    MOLCAS    ERIS     OPER     GRID   

              2       5        2.89       700     1000      520     1800     2200   
                                         GEOM     BASIS   MCVARS    GRID      UKS  

 PROGRAMS   *        TOTAL      IBBA       UKS       INT
 CPU TIMES  *         2.92      0.02      2.55      0.21
 REAL TIME  *         9.92 SEC
 DISK USED  *        34.94 MB      
 **********************************************************************************************************************************
 Molecular orbitals read from record     2200.2  Type=UKS/LOCAL(IBO)  
 Occupation numbers read from record     2200.2  Type=UKS/LOCAL(IBO)  
 Orbital energies read from record       2200.2  Type=UKS/LOCAL(IBO)  
 Redundancy group numbers read from rec  2200.2  Type=UKS/BETA (state 1.1)

 IBBA/STO-3G energy=      0.000000000000

        UKS-SCF 
    -78.85054244
 **********************************************************************************************************************************
 Molpro calculation terminated
