
 Primary working directories    : /tmp/sb13343
 Secondary working directories  : /tmp/sb13343
 Wavefunction directory         : /panfs/panasas01/chem/sb13343/wfu/
 Main file repository           : /tmp/sb13343/

 SHA1      : b4a5b34a9e711420743f49e6833241d17c61fb3c
 NAME      : 2099.9.b4a5b34
 ARCHNAME  : linux/x86_64_openmp
 FC        : /cm/shared/languages/GCC-6.1/bin/gfortran
 BLASLIB   : -lblas
 id        : simonbennie

 Nodes     nprocs
 node35-048    1

 Using customized tuning parameters: mindgm=1; mindgv=20; mindgc=4; mindgr=1; noblas=0; minvec=7
 default implementation of scratch files=df  

 memory,500,m
 geomtyp=xyz
 nosym
 noorient
 geometry={
 C         -0.76527        0.00000        0.00000
 C          0.76527        0.00000        0.00000
 H          1.16435        1.02094        0.00000
 H          1.16435       -0.51047        0.88416
 H          1.16435       -0.51047       -0.88416
 H         -1.16435       -1.02094       -0.00000
 H         -1.16435        0.51047        0.88416
 H         -1.16435        0.51047       -0.88416
 }
 basis={ default,sto-3g }
 {uks,MM05,direct;wf,18,1,0}
 {ibba,bonds=1}

 Variables initialized (895), CPU time= 0.01 sec
 Commands  initialized (725), CPU time= 0.01 sec, 591 directives.
 Default parameters read. Elapsed time= 0.08 sec

 Checking input...
 Passed
1


                                         ***  PROGRAM SYSTEM MOLPRO  ***
                                       Copyright, TTI GmbH Stuttgart, 2015
                                    Version 2099.9 linked May 26 2017 16:03:21


 **********************************************************************************************************************************
 LABEL *                                                                                 
  64 bit serial version                                                                  DATE: 08-Jun-17          TIME: 08:12:30  
 **********************************************************************************************************************************

 SHA1:             b4a5b34a9e711420743f49e6833241d17c61fb3c
 **********************************************************************************************************************************
 SETTING GEOMTYP        =    XYZ

 Variable memory set to  500000000 words,  buffer space 

 ZSYMEL=NOSYM

 SETTING BASIS          =    STO-3G


 Recomputing integrals since basis changed


 Using spherical harmonics

 Library entry C      S STO-3G               selected for orbital group  1
 Library entry C      P STO-3G               selected for orbital group  1
 Library entry H      S STO-3G               selected for orbital group  2


 PROGRAM * SEWARD (Integral evaluation for generally contracted gaussian basis sets)     Author: Roland Lindh, 1990

 Geometry written to block  1 of record 700


 Point group  C1  



 ATOMIC COORDINATES

 NR  ATOM    CHARGE       X              Y              Z

   1  C       6.00   -1.446150711    0.000000000    0.000000000
   2  C       6.00    1.446150711    0.000000000    0.000000000
   3  H       1.00    2.200302613    1.929296990    0.000000000
   4  H       1.00    2.200302613   -0.964648495    1.670820250
   5  H       1.00    2.200302613   -0.964648495   -1.670820250
   6  H       1.00   -2.200302613   -1.929296990   -0.000000000
   7  H       1.00   -2.200302613    0.964648495    1.670820250
   8  H       1.00   -2.200302613    0.964648495   -1.670820250

 Bond lengths in Bohr (Angstrom)

 1-2  2.892301423  1-6  2.071456484  1-7  2.071456521  1-8  2.071456521  2-3  2.071456484
     ( 1.530540000)     ( 1.096167565)     ( 1.096167584)     ( 1.096167584)     ( 1.096167565)

 2-4  2.071456521  2-5  2.071456521
     ( 1.096167584)     ( 1.096167584)

 Bond angles

  1-2-3  111.35026330   1-2-4  111.35026290   1-2-5  111.35026290   2-1-6  111.35026330

  2-1-7  111.35026290   2-1-8  111.35026290   3-2-4  107.52856653   3-2-5  107.52856653

  4-2-5  107.52856835   6-1-7  107.52856653   6-1-8  107.52856653   7-1-8  107.52856835

 NUCLEAR CHARGE:                   18
 NUMBER OF PRIMITIVE AOS:          48
 NUMBER OF SYMMETRY AOS:           48
 NUMBER OF CONTRACTIONS:           16   (  16A   )
 NUMBER OF CORE ORBITALS:           2   (   2A   )
 NUMBER OF VALENCE ORBITALS:       14   (  14A   )


 NUCLEAR REPULSION ENERGY   42.10919032


 Eigenvalues of metric

         1 0.210E+00 0.252E+00 0.353E+00 0.353E+00 0.394E+00 0.394E+00 0.416E+00 0.960E+00


 Contracted 2-electron integrals neglected if value below      1.0D-11
 AO integral compression algorithm  1   Integral accuracy      1.0D-11

     0.262 MB (compressed) written to integral file (100.0%)


 NUMBER OF SORTED TWO-ELECTRON INTEGRALS:       9316.     BUFFER LENGTH:  32768
 NUMBER OF SEGMENTS:   1  SEGMENT LENGTH:       9316      RECORD LENGTH: 524288

 Memory used in sort:       0.57 MW

 SORT1 READ       11328. AND WROTE        7707. INTEGRALS IN      1 RECORDS. CPU TIME:     0.00 SEC, REAL TIME:     0.00 SEC
 SORT2 READ        7707. AND WROTE        9316. INTEGRALS IN      1 RECORDS. CPU TIME:     0.00 SEC, REAL TIME:     0.01 SEC

 FILE SIZES:   FILE 1:    30.3 MBYTE,  FILE 4:     4.2 MBYTE,   TOTAL:     34.6 MBYTE

 OPERATOR DM      FOR CENTER  0  COORDINATES:    0.000000    0.000000    0.000000


 **********************************************************************************************************************************
 DATASETS  * FILE   NREC   LENGTH (MB)   RECORD NAMES
              1      19       30.12       500      610      700      900      950      970     1000      129      960     1100   
                                          VAR    BASINP    GEOM    SYMINP    ZMAT    AOBASIS   BASIS     P2S    ABASIS      S 
                                         1400     1410     1200     1210     1080     1600     1650     1300     1700   
                                           T        V       H0       H01     AOSYM     SMH    MOLCAS    ERIS     OPER   

 PROGRAMS   *        TOTAL       INT
 CPU TIMES  *         0.35      0.21
 REAL TIME  *         0.68 SEC
 DISK USED  *        34.94 MB      
 **********************************************************************************************************************************

 Density functional group MM05=M05X+M05C
 Functional: M05X(Automatically generated (new) M05X)                          Gradient terms: 2
 Functional: M05C(Automatically generated (new) M05C)                          Gradient terms: 2
 Use grid at  1800.2


 Exact exchange will be calculated, factor:  0.2800

 Functional: M05X                      Factor:  0.7200
 Functional: M05C                      Factor:  1.0000

 Generated new metagrid on record  1800.2 with target accuracy 1.0D-06 and 24988 points in CPU time    0.6
 Computed new grid on record 1800.1 in CPU time    0.6
   29004 words reserved for DFT integration

 PROGRAM * UKS-SCF (Unrestricted Kohn-Sham)     Authors: W. Meyer, H.-J. Werner, P.J. Knowles, 1993

 NUMBER OF ELECTRONS:       9+    9-    SPACE SYMMETRY=1    SPIN SYMMETRY: Singlet 
 CONVERGENCE THRESHOLDS:    1.00E-05 (Density)    1.00E-06 (Energy)
 MAX. NUMBER OF ITERATIONS:       60
 INTERPOLATION TYPE:            DIIS
 INTERPOLATION STEPS:              2 (START)      1 (STEP)
 LEVEL SHIFTS:                 -0.20 (ALPHA)  -0.20 (BETA) 



 Use fine grid record 1800.2 for energy threshold  1.0D-06
 Orbital guess generated from atomic densities. Full valence occupancy:    9

 Molecular orbital dump at record        2200.2

 Initial alpha occupation   9
 Initial beta  occupation   9

 ITERATION    DDIFF          GRAD             ENERGY        2-EL.EN.            DIPOLE MOMENTS         DIIS
    1      0.000D+00      0.000D+00       -78.77790548    158.221092   -0.00000   -0.00000   -0.00000    0
    2      0.643D-01      0.226D-01       -78.86453645    153.236922    0.00000    0.00000   -0.00000    1
    3      0.776D-02      0.344D-02       -78.86619176    153.796453    0.00000   -0.00000   -0.00000    2
    4      0.966D-03      0.324D-03       -78.86621703    153.801149   -0.00000   -0.00000   -0.00000    3
    5      0.373D-03      0.878D-04       -78.86621924    153.800069   -0.00000    0.00000   -0.00000    4
    6      0.164D-04      0.537D-05       -78.86621925    153.800133   -0.00000    0.00000   -0.00000    4
    7      0.316D-05      0.889D-06       -78.86621925    153.800172   -0.00000   -0.00000   -0.00000    4
    8      0.237D-06      0.730D-07       -78.86621925    153.800163   -0.00000    0.00000   -0.00000    4

 Final alpha occupancy:   9
 Final beta  occupancy:   9

 !UKS STATE 1.1 Energy                -78.866219248321
 Nuclear energy                        42.10919032
 One-electron energy                 -188.29141390
 Two-electron energy                   76.90008168
 Density functional                    -9.58407735     M05X=-12.52939050 M05C= -0.56291619
 Virial quotient                       -1.01580242
 !UKS STATE 1.1 Dipole moment          -0.00000000     0.00000000    -0.00000000
 Dipole moment /Debye                  -0.00000000     0.00000000    -0.00000000

 Orbital energies for positive spin:

         1.1          2.1          3.1          4.1          5.1          6.1          7.1          8.1          9.1         10.1
    -10.075818   -10.075036    -0.737168    -0.601892    -0.412878    -0.412474    -0.338805    -0.318485    -0.317993     0.424527

        11.1
      0.426782

 Orbital energies for negative spin:

         1.1          2.1          3.1          4.1          5.1          6.1          7.1          8.1          9.1         10.1
    -10.075818   -10.075036    -0.737168    -0.601892    -0.412878    -0.412474    -0.338805    -0.318485    -0.317993     0.424527

        11.1
      0.426782

 HOMO      9.1    -0.317993 =      -8.6530eV
 LUMO     10.1     0.424527 =      11.5520eV
 LUMO-HOMO         0.742519 =      20.2050eV

 EXPECTATION VALUE OF S**2:            -0.00000000

 Natural orbitals saved to record    2200.2 (Orbital set 3)

 Orbital spaces for UNO-CAS (Min. occupation: 0.020  Max. occupation: 1.980):

 Closed:        9
 Active:        0


 **********************************************************************************************************************************
 DATASETS  * FILE   NREC   LENGTH (MB)   RECORD NAMES
              1      20       30.92       500      610      700      900      950      970     1000      129      960     1100   
                                          VAR    BASINP    GEOM    SYMINP    ZMAT    AOBASIS   BASIS     P2S    ABASIS      S 
                                         1400     1410     1200     1210     1080     1600     1650     1300     1700     1800   
                                           T        V       H0       H01     AOSYM     SMH    MOLCAS    ERIS     OPER     GRID   

              2       5        2.89       700     1000      520     1800     2200   
                                         GEOM     BASIS   MCVARS    GRID      UKS  

 PROGRAMS   *        TOTAL       UKS       INT
 CPU TIMES  *         3.07      2.72      0.21
 REAL TIME  *         3.72 SEC
 DISK USED  *        34.94 MB      
 **********************************************************************************************************************************


 PROGRAM * Intrinsic Basis Bonding Analysis (IBBA)          Author: G. Knizia

 Molecular orbitals read from record     2200.2  Type=UKS/ALPHA (state 1.1)
 Fock matrix read from record            2200.2  Type=UKS/TOTAL (state 1.1)
 Orbital energies read from record       2200.2  Type=UKS/ALPHA (state 1.1)
 Density matrix read from record         2200.2  Type=UKS/CHARGE (state 1.1)

 Number of core orbitals:           2 (   2 )
 Number of closed-shell orbitals:   7 (   7 )

 Basis set MINAO-AUTO-PP generated.      Number of basis functions:   16 

 Polarized AO type:                A = (O Ot + (1-O)(1-Ot)) P12
 Orthogonalization method:         Symmetric (Loewdin)
 Localization functional:          L = sum[A,i] <i|n_A|i>^4 -> max

 Localization group 1:   9 orbitals, occupancy  2.000
 Iterative localization: IB/PM,    7 iter; Final gradient 0.28E-09

 Bond order analysis:       [THRPRINT= 0.020]

   CEN ATOM   CEN ATOM     WIBERG.BO      RENORM.BO
     1   C  -   2   C       1.033889       1.028621
     1   C  -   7   H       0.965958       0.986886
     1   C  -   8   H       0.965958       0.986886
     1   C  -   6   H       0.965873       0.986999

     2   C  -   1   C       1.033889       1.028621
     2   C  -   4   H       0.965958       0.986886
     2   C  -   5   H       0.965958       0.986886
     2   C  -   3   H       0.965873       0.986999

     3   H  -   2   C       0.965873       0.986999

     4   H  -   2   C       0.965958       0.986886

     5   H  -   2   C       0.965958       0.986886

     6   H  -   1   C       0.965873       0.986999

     7   H  -   1   C       0.965958       0.986886

     8   H  -   1   C       0.965958       0.986886


 Valency analysis:

   CEN ATOM   TOT.VALENCE
     1   C       3.934869
     2   C       3.934869
     3   H       0.982456
     4   H       0.982642
     5   H       0.982642
     6   H       0.982456
     7   H       0.982642
     8   H       0.982642

 Total charge composition:

   CEN ATOM         s          p       ELECTRONS ->P.CHARGE
     1   C       3.00012    3.39583      6.39595   -0.39595
     2   C       3.00012    3.39583      6.39595   -0.39595
     3   H       0.86754                 0.86754    0.13246
     4   H       0.86825                 0.86825    0.13175
     5   H       0.86825                 0.86825    0.13175
     6   H       0.86754                 0.86754    0.13246
     7   H       0.86825                 0.86825    0.13175
     8   H       0.86825                 0.86825    0.13175

 Total charge composition, AO contributions:

   CEN ATOM SHL      SPHERICAL COMPONENTS
     1   C  1s       1.99145
     1   C  2s       1.00867
     1   C  2p       1.05808    1.16916    1.16859

     2   C  1s       1.99145
     2   C  2s       1.00867
     2   C  2p       1.05808    1.16916    1.16859

     3   H  1s       0.86754

     4   H  1s       0.86825

     5   H  1s       0.86825

     6   H  1s       0.86754

     7   H  1s       0.86825

     8   H  1s       0.86825

 Summary of localized orbital composition:   [THRPRINT= 0.020]

   ORB  GRP  ORB.ENERGY      CENTERS/CHARGES
     1   1    -9.961929      C  1   2.000
     2   1    -9.961929      C  2   2.000
     3   1    -0.529544      C  1   0.998   C  2   0.998
     4   1    -0.473357      C  1   1.130   H  6   0.862
     5   1    -0.473357      C  2   1.130   H  3   0.862
     6   1    -0.472609      C  2   1.130   H  4   0.863
     7   1    -0.472609      C  2   1.130   H  5   0.863
     8   1    -0.472609      C  1   1.130   H  8   0.863
     9   1    -0.472609      C  1   1.130   H  7   0.863

 Localized orbitals saved to record      2200.2  (orbital set 4)


 **********************************************************************************************************************************
 DATASETS  * FILE   NREC   LENGTH (MB)   RECORD NAMES
              1      20       30.92       500      610      700      900      950      970     1000      129      960     1100   
                                          VAR    BASINP    GEOM    SYMINP    ZMAT    AOBASIS   BASIS     P2S    ABASIS      S 
                                         1400     1410     1200     1210     1080     1600     1650     1300     1700     1800   
                                           T        V       H0       H01     AOSYM     SMH    MOLCAS    ERIS     OPER     GRID   

              2       5        2.89       700     1000      520     1800     2200   
                                         GEOM     BASIS   MCVARS    GRID      UKS  

 PROGRAMS   *        TOTAL      IBBA       UKS       INT
 CPU TIMES  *         3.09      0.02      2.72      0.21
 REAL TIME  *         3.80 SEC
 DISK USED  *        34.94 MB      
 **********************************************************************************************************************************
 Molecular orbitals read from record     2200.2  Type=UKS/LOCAL(IBO)  
 Occupation numbers read from record     2200.2  Type=UKS/LOCAL(IBO)  
 Orbital energies read from record       2200.2  Type=UKS/LOCAL(IBO)  
 Redundancy group numbers read from rec  2200.2  Type=UKS/BETA (state 1.1)

 IBBA/STO-3G energy=      0.000000000000

        UKS-SCF 
    -78.86621925
 **********************************************************************************************************************************
 Molpro calculation terminated
