
 Primary working directories    : /tmp/sb13343
 Secondary working directories  : /tmp/sb13343
 Wavefunction directory         : /panfs/panasas01/chem/sb13343/wfu/
 Main file repository           : /tmp/sb13343/

 SHA1      : b4a5b34a9e711420743f49e6833241d17c61fb3c
 NAME      : 2099.9.b4a5b34
 ARCHNAME  : linux/x86_64_openmp
 FC        : /cm/shared/languages/GCC-6.1/bin/gfortran
 BLASLIB   : -lblas
 id        : simonbennie

 Nodes     nprocs
 node35-048    1

 Using customized tuning parameters: mindgm=1; mindgv=20; mindgc=4; mindgr=1; noblas=0; minvec=7
 default implementation of scratch files=df  

 memory,500,m
 geomtyp=xyz
 nosym
 noorient
 geometry={
 C         -0.76527        0.00000        0.00000
 C          0.76527        0.00000        0.00000
 H          1.16435        1.02094        0.00000
 H          1.16435       -0.51047        0.88416
 H          1.16435       -0.51047       -0.88416
 H         -1.16435       -1.02094       -0.00000
 H         -1.16435        0.51047        0.88416
 H         -1.16435        0.51047       -0.88416
 }
 basis={ default,svp }
 {uks,PBE0MOL,direct;wf,18,1,0}
 {ibba,bonds=1}

 Variables initialized (895), CPU time= 0.00 sec
 Commands  initialized (725), CPU time= 0.02 sec, 591 directives.
 Default parameters read. Elapsed time= 0.21 sec

 Checking input...
 Passed
1


                                         ***  PROGRAM SYSTEM MOLPRO  ***
                                       Copyright, TTI GmbH Stuttgart, 2015
                                    Version 2099.9 linked May 26 2017 16:03:21


 **********************************************************************************************************************************
 LABEL *                                                                                 
  64 bit serial version                                                                  DATE: 08-Jun-17          TIME: 08:31:42  
 **********************************************************************************************************************************

 SHA1:             b4a5b34a9e711420743f49e6833241d17c61fb3c
 **********************************************************************************************************************************
 SETTING GEOMTYP        =    XYZ

 Variable memory set to  500000000 words,  buffer space 

 ZSYMEL=NOSYM

 SETTING BASIS          =    SVP


 Recomputing integrals since basis changed


 Using spherical harmonics

 Library entry C      S def2-SVP             selected for orbital group  1
 Library entry C      P def2-SVP             selected for orbital group  1
 Library entry C      D def2-SVP             selected for orbital group  1
 Library entry H      S def2-SVP             selected for orbital group  2
 Library entry H      P def2-SVP             selected for orbital group  2


 PROGRAM * SEWARD (Integral evaluation for generally contracted gaussian basis sets)     Author: Roland Lindh, 1990

 Geometry written to block  1 of record 700


 Point group  C1  



 ATOMIC COORDINATES

 NR  ATOM    CHARGE       X              Y              Z

   1  C       6.00   -1.446150711    0.000000000    0.000000000
   2  C       6.00    1.446150711    0.000000000    0.000000000
   3  H       1.00    2.200302613    1.929296990    0.000000000
   4  H       1.00    2.200302613   -0.964648495    1.670820250
   5  H       1.00    2.200302613   -0.964648495   -1.670820250
   6  H       1.00   -2.200302613   -1.929296990   -0.000000000
   7  H       1.00   -2.200302613    0.964648495    1.670820250
   8  H       1.00   -2.200302613    0.964648495   -1.670820250

 Bond lengths in Bohr (Angstrom)

 1-2  2.892301423  1-6  2.071456484  1-7  2.071456521  1-8  2.071456521  2-3  2.071456484
     ( 1.530540000)     ( 1.096167565)     ( 1.096167584)     ( 1.096167584)     ( 1.096167565)

 2-4  2.071456521  2-5  2.071456521
     ( 1.096167584)     ( 1.096167584)

 Bond angles

  1-2-3  111.35026330   1-2-4  111.35026290   1-2-5  111.35026290   2-1-6  111.35026330

  2-1-7  111.35026290   2-1-8  111.35026290   3-2-4  107.52856653   3-2-5  107.52856653

  4-2-5  107.52856835   6-1-7  107.52856653   6-1-8  107.52856653   7-1-8  107.52856835

 NUCLEAR CHARGE:                   18
 NUMBER OF PRIMITIVE AOS:          92
 NUMBER OF SYMMETRY AOS:           90
 NUMBER OF CONTRACTIONS:           58   (  58A   )
 NUMBER OF CORE ORBITALS:           2   (   2A   )
 NUMBER OF VALENCE ORBITALS:       14   (  14A   )


 NUCLEAR REPULSION ENERGY   42.10919032


 Eigenvalues of metric

         1 0.452E-02 0.190E-01 0.404E-01 0.404E-01 0.408E-01 0.579E-01 0.579E-01 0.104E+00


 Contracted 2-electron integrals neglected if value below      1.0D-11
 AO integral compression algorithm  1   Integral accuracy      1.0D-11

     7.078 MB (compressed) written to integral file ( 50.5%)


 NUMBER OF SORTED TWO-ELECTRON INTEGRALS:    1464616.     BUFFER LENGTH:  32768
 NUMBER OF SEGMENTS:   1  SEGMENT LENGTH:    1464616      RECORD LENGTH: 524288

 Memory used in sort:       2.02 MW

 SORT1 READ     1695909. AND WROTE     1293745. INTEGRALS IN      4 RECORDS. CPU TIME:     0.02 SEC, REAL TIME:     0.04 SEC
 SORT2 READ     1293745. AND WROTE     1464616. INTEGRALS IN     27 RECORDS. CPU TIME:     0.07 SEC, REAL TIME:     0.10 SEC

 FILE SIZES:   FILE 1:    37.3 MBYTE,  FILE 4:    16.8 MBYTE,   TOTAL:     54.1 MBYTE

 OPERATOR DM      FOR CENTER  0  COORDINATES:    0.000000    0.000000    0.000000


 **********************************************************************************************************************************
 DATASETS  * FILE   NREC   LENGTH (MB)   RECORD NAMES
              1      19       36.06       500      610      700      900      950      970     1000      129      960     1100   
                                          VAR    BASINP    GEOM    SYMINP    ZMAT    AOBASIS   BASIS     P2S    ABASIS      S 
                                         1400     1410     1200     1210     1080     1600     1650     1300     1700   
                                           T        V       H0       H01     AOSYM     SMH    MOLCAS    ERIS     OPER   

 PROGRAMS   *        TOTAL       INT
 CPU TIMES  *         0.62      0.48
 REAL TIME  *         1.34 SEC
 DISK USED  *        54.48 MB      
 **********************************************************************************************************************************

 Density functional group PBE0MOL=PBEX+PW91C
 Functional: PBEX(Automatically generated (new) PBEX)                          Gradient terms: 1
 Functional: PW91C(Automatically generated (new) PW91C)                        Gradient terms: 1
 Use grid at  1800.2


 Exact exchange will be calculated, factor:  0.2500

 Functional: PBEX                      Factor:  0.7500
 Functional: PW91C                     Factor:  1.0000

 Generated new metagrid on record  1800.2 with target accuracy 1.0D-06 and 24988 points in CPU time    0.6
 Computed new grid on record 1800.1 in CPU time    0.6
   50000 words reserved for DFT integration

 PROGRAM * UKS-SCF (Unrestricted Kohn-Sham)     Authors: W. Meyer, H.-J. Werner, P.J. Knowles, 1993

 NUMBER OF ELECTRONS:       9+    9-    SPACE SYMMETRY=1    SPIN SYMMETRY: Singlet 
 CONVERGENCE THRESHOLDS:    1.00E-05 (Density)    1.00E-06 (Energy)
 MAX. NUMBER OF ITERATIONS:       60
 INTERPOLATION TYPE:            DIIS
 INTERPOLATION STEPS:              2 (START)      1 (STEP)
 LEVEL SHIFTS:                 -0.20 (ALPHA)  -0.20 (BETA) 



 Use fine grid record 1800.2 for energy threshold  1.0D-06
 Orbital guess generated from atomic densities. Full valence occupancy:    9

 Molecular orbital dump at record        2200.2

 Initial alpha occupation   9
 Initial beta  occupation   9

 ITERATION    DDIFF          GRAD             ENERGY        2-EL.EN.            DIPOLE MOMENTS         DIIS
    1      0.000D+00      0.000D+00       -79.60820067    159.523834    0.00000   -0.00000   -0.00000    0
    2      0.130D-01      0.678D-02       -79.68835455    152.620808    0.00000    0.00000   -0.00000    1
    3      0.380D-02      0.248D-02       -79.69769580    154.075987   -0.00000    0.00000   -0.00000    2
    4      0.143D-02      0.312D-03       -79.69811194    154.010574    0.00000    0.00000   -0.00000    3
    5      0.774D-03      0.109D-03       -79.69817708    153.989359    0.00000    0.00000   -0.00000    4
    6      0.186D-03      0.206D-04       -79.69817960    153.985743   -0.00000   -0.00000   -0.00000    5
    7      0.245D-04      0.272D-05       -79.69817964    153.985702   -0.00000   -0.00000   -0.00000    5
    8      0.310D-05      0.434D-06       -79.69817965    153.985745    0.00000    0.00000   -0.00000    5
    9      0.527D-06      0.806D-07       -79.69817965    153.985719   -0.00000   -0.00000   -0.00000    5

 Final alpha occupancy:   9
 Final beta  occupancy:   9

 !UKS STATE 1.1 Energy                -79.698179645350
 Nuclear energy                        42.10919032
 One-electron energy                 -188.92360756
 Two-electron energy                   76.99285961
 Density functional                    -9.87662202     PBEX=-12.36745129 PW91C= -0.60103355
 Virial quotient                       -1.01362511
 !UKS STATE 1.1 Dipole moment          -0.00000000    -0.00000000    -0.00000000
 Dipole moment /Debye                  -0.00000000    -0.00000000    -0.00000000

 Orbital energies for positive spin:

         1.1          2.1          3.1          4.1          5.1          6.1          7.1          8.1          9.1         10.1
    -10.226659   -10.226591    -0.764872    -0.625025    -0.444617    -0.444615    -0.379770    -0.351318    -0.351316     0.076827

        11.1
      0.123263

 Orbital energies for negative spin:

         1.1          2.1          3.1          4.1          5.1          6.1          7.1          8.1          9.1         10.1
    -10.226659   -10.226591    -0.764872    -0.625025    -0.444617    -0.444615    -0.379770    -0.351318    -0.351316     0.076827

        11.1
      0.123263

 HOMO      9.1    -0.351316 =      -9.5598eV
 LUMO     10.1     0.076827 =       2.0906eV
 LUMO-HOMO         0.428143 =      11.6504eV

 EXPECTATION VALUE OF S**2:             0.00000000

 Natural orbitals saved to record    2200.2 (Orbital set 3)

 Orbital spaces for UNO-CAS (Min. occupation: 0.020  Max. occupation: 1.980):

 Closed:        9
 Active:        0


 **********************************************************************************************************************************
 DATASETS  * FILE   NREC   LENGTH (MB)   RECORD NAMES
              1      20       36.86       500      610      700      900      950      970     1000      129      960     1100   
                                          VAR    BASINP    GEOM    SYMINP    ZMAT    AOBASIS   BASIS     P2S    ABASIS      S 
                                         1400     1410     1200     1210     1080     1600     1650     1300     1700     1800   
                                           T        V       H0       H01     AOSYM     SMH    MOLCAS    ERIS     OPER     GRID   

              2       5        3.02       700     1000      520     1800     2200   
                                         GEOM     BASIS   MCVARS    GRID      UKS  

 PROGRAMS   *        TOTAL       UKS       INT
 CPU TIMES  *         4.47      3.85      0.48
 REAL TIME  *         6.55 SEC
 DISK USED  *        54.48 MB      
 **********************************************************************************************************************************


 PROGRAM * Intrinsic Basis Bonding Analysis (IBBA)          Author: G. Knizia

 Molecular orbitals read from record     2200.2  Type=UKS/ALPHA (state 1.1)
 Fock matrix read from record            2200.2  Type=UKS/TOTAL (state 1.1)
 Orbital energies read from record       2200.2  Type=UKS/ALPHA (state 1.1)
 Density matrix read from record         2200.2  Type=UKS/CHARGE (state 1.1)

 Number of core orbitals:           2 (   2 )
 Number of closed-shell orbitals:   7 (   7 )

 Basis set MINAO-AUTO-PP generated.      Number of basis functions:   16 

 Polarized AO type:                A = (O Ot + (1-O)(1-Ot)) P12
 Orthogonalization method:         Symmetric (Loewdin)
 Localization functional:          L = sum[A,i] <i|n_A|i>^4 -> max

 Localization group 1:   9 orbitals, occupancy  2.000
 Iterative localization: IB/PM,    7 iter; Final gradient 0.38E-09

 Bond order analysis:       [THRPRINT= 0.020]

   CEN ATOM   CEN ATOM     WIBERG.BO      RENORM.BO
     1   C  -   2   C       1.042898       1.034502
     1   C  -   7   H       0.964454       0.984298
     1   C  -   8   H       0.964454       0.984298
     1   C  -   6   H       0.964450       0.984299

     2   C  -   1   C       1.042898       1.034502
     2   C  -   4   H       0.964454       0.984298
     2   C  -   5   H       0.964454       0.984298
     2   C  -   3   H       0.964450       0.984299

     3   H  -   2   C       0.964450       0.984299

     4   H  -   2   C       0.964454       0.984298

     5   H  -   2   C       0.964454       0.984298

     6   H  -   1   C       0.964450       0.984299

     7   H  -   1   C       0.964454       0.984298

     8   H  -   1   C       0.964454       0.984298


 Valency analysis:

   CEN ATOM   TOT.VALENCE
     1   C       3.938922
     2   C       3.938922
     3   H       0.982468
     4   H       0.982473
     5   H       0.982473
     6   H       0.982468
     7   H       0.982473
     8   H       0.982473

 Total charge composition:

   CEN ATOM         s          p       ELECTRONS ->P.CHARGE
     1   C       3.01759    3.37960      6.39719   -0.39719
     2   C       3.01759    3.37960      6.39719   -0.39719
     3   H       0.86759                 0.86759    0.13241
     4   H       0.86761                 0.86761    0.13239
     5   H       0.86761                 0.86761    0.13239
     6   H       0.86759                 0.86759    0.13241
     7   H       0.86761                 0.86761    0.13239
     8   H       0.86761                 0.86761    0.13239

 Total charge composition, AO contributions:

   CEN ATOM SHL      SPHERICAL COMPONENTS
     1   C  1s       1.99095
     1   C  2s       1.02664
     1   C  2p       1.05567    1.16197    1.16196

     2   C  1s       1.99095
     2   C  2s       1.02664
     2   C  2p       1.05567    1.16197    1.16196

     3   H  1s       0.86759

     4   H  1s       0.86761

     5   H  1s       0.86761

     6   H  1s       0.86759

     7   H  1s       0.86761

     8   H  1s       0.86761

 Summary of localized orbital composition:   [THRPRINT= 0.020]

   ORB  GRP  ORB.ENERGY      CENTERS/CHARGES
     1   1   -10.111985      C  1   2.000
     2   1   -10.111985      C  2   2.000
     3   1    -0.573909      C  2   0.999   C  1   0.999
     4   1    -0.502820      C  2   1.129   H  4   0.862
     5   1    -0.502820      C  1   1.129   H  8   0.862
     6   1    -0.502820      C  2   1.129   H  5   0.862
     7   1    -0.502820      C  1   1.129   H  7   0.862
     8   1    -0.502817      C  1   1.130   H  6   0.862
     9   1    -0.502817      C  2   1.130   H  3   0.862

 Localized orbitals saved to record      2200.2  (orbital set 4)


 **********************************************************************************************************************************
 DATASETS  * FILE   NREC   LENGTH (MB)   RECORD NAMES
              1      20       36.86       500      610      700      900      950      970     1000      129      960     1100   
                                          VAR    BASINP    GEOM    SYMINP    ZMAT    AOBASIS   BASIS     P2S    ABASIS      S 
                                         1400     1410     1200     1210     1080     1600     1650     1300     1700     1800   
                                           T        V       H0       H01     AOSYM     SMH    MOLCAS    ERIS     OPER     GRID   

              2       5        3.05       700     1000      520     1800     2200   
                                         GEOM     BASIS   MCVARS    GRID      UKS  

 PROGRAMS   *        TOTAL      IBBA       UKS       INT
 CPU TIMES  *         4.50      0.02      3.85      0.48
 REAL TIME  *         6.62 SEC
 DISK USED  *        54.48 MB      
 **********************************************************************************************************************************
 Molecular orbitals read from record     2200.2  Type=UKS/LOCAL(IBO)  
 Occupation numbers read from record     2200.2  Type=UKS/LOCAL(IBO)  
 Orbital energies read from record       2200.2  Type=UKS/LOCAL(IBO)  
 Redundancy group numbers read from rec  2200.2  Type=UKS/BETA (state 1.1)

 IBBA/SVP energy=      0.000000000000

        UKS-SCF 
    -79.69817965
 **********************************************************************************************************************************
 Molpro calculation terminated
