
 Primary working directories    : /tmp/sb13343
 Secondary working directories  : /tmp/sb13343
 Wavefunction directory         : /panfs/panasas01/chem/sb13343/wfu/
 Main file repository           : /tmp/sb13343/

 SHA1      : b4a5b34a9e711420743f49e6833241d17c61fb3c
 NAME      : 2099.9.b4a5b34
 ARCHNAME  : linux/x86_64_openmp
 FC        : /cm/shared/languages/GCC-6.1/bin/gfortran
 BLASLIB   : -lblas
 id        : simonbennie

 Nodes     nprocs
 node35-048    1

 Using customized tuning parameters: mindgm=1; mindgv=20; mindgc=4; mindgr=1; noblas=0; minvec=7
 default implementation of scratch files=df  

 memory,500,m
 geomtyp=xyz
 nosym
 noorient
 geometry={
 C         -0.76527        0.00000        0.00000
 C          0.76527        0.00000        0.00000
 H          1.16435        1.02094        0.00000
 H          1.16435       -0.51047        0.88416
 H          1.16435       -0.51047       -0.88416
 H         -1.16435       -1.02094       -0.00000
 H         -1.16435        0.51047        0.88416
 H         -1.16435        0.51047       -0.88416
 }
 basis={ default,svp }
 {ks,LYP88,direct;wf,18,1,0}
 {ibba,bonds=1}

 Variables initialized (895), CPU time= 0.00 sec
 Commands  initialized (725), CPU time= 0.01 sec, 591 directives.
 Default parameters read. Elapsed time= 0.19 sec

 Checking input...
 Passed
1


                                         ***  PROGRAM SYSTEM MOLPRO  ***
                                       Copyright, TTI GmbH Stuttgart, 2015
                                    Version 2099.9 linked May 26 2017 16:03:21


 **********************************************************************************************************************************
 LABEL *                                                                                 
  64 bit serial version                                                                  DATE: 08-Jun-17          TIME: 08:25:18  
 **********************************************************************************************************************************

 SHA1:             b4a5b34a9e711420743f49e6833241d17c61fb3c
 **********************************************************************************************************************************
 SETTING GEOMTYP        =    XYZ

 Variable memory set to  500000000 words,  buffer space 

 ZSYMEL=NOSYM

 SETTING BASIS          =    SVP


 Recomputing integrals since basis changed


 Using spherical harmonics

 Library entry C      S def2-SVP             selected for orbital group  1
 Library entry C      P def2-SVP             selected for orbital group  1
 Library entry C      D def2-SVP             selected for orbital group  1
 Library entry H      S def2-SVP             selected for orbital group  2
 Library entry H      P def2-SVP             selected for orbital group  2


 PROGRAM * SEWARD (Integral evaluation for generally contracted gaussian basis sets)     Author: Roland Lindh, 1990

 Geometry written to block  1 of record 700


 Point group  C1  



 ATOMIC COORDINATES

 NR  ATOM    CHARGE       X              Y              Z

   1  C       6.00   -1.446150711    0.000000000    0.000000000
   2  C       6.00    1.446150711    0.000000000    0.000000000
   3  H       1.00    2.200302613    1.929296990    0.000000000
   4  H       1.00    2.200302613   -0.964648495    1.670820250
   5  H       1.00    2.200302613   -0.964648495   -1.670820250
   6  H       1.00   -2.200302613   -1.929296990   -0.000000000
   7  H       1.00   -2.200302613    0.964648495    1.670820250
   8  H       1.00   -2.200302613    0.964648495   -1.670820250

 Bond lengths in Bohr (Angstrom)

 1-2  2.892301423  1-6  2.071456484  1-7  2.071456521  1-8  2.071456521  2-3  2.071456484
     ( 1.530540000)     ( 1.096167565)     ( 1.096167584)     ( 1.096167584)     ( 1.096167565)

 2-4  2.071456521  2-5  2.071456521
     ( 1.096167584)     ( 1.096167584)

 Bond angles

  1-2-3  111.35026330   1-2-4  111.35026290   1-2-5  111.35026290   2-1-6  111.35026330

  2-1-7  111.35026290   2-1-8  111.35026290   3-2-4  107.52856653   3-2-5  107.52856653

  4-2-5  107.52856835   6-1-7  107.52856653   6-1-8  107.52856653   7-1-8  107.52856835

 NUCLEAR CHARGE:                   18
 NUMBER OF PRIMITIVE AOS:          92
 NUMBER OF SYMMETRY AOS:           90
 NUMBER OF CONTRACTIONS:           58   (  58A   )
 NUMBER OF CORE ORBITALS:           2   (   2A   )
 NUMBER OF VALENCE ORBITALS:       14   (  14A   )


 NUCLEAR REPULSION ENERGY   42.10919032


 Eigenvalues of metric

         1 0.452E-02 0.190E-01 0.404E-01 0.404E-01 0.408E-01 0.579E-01 0.579E-01 0.104E+00


 Contracted 2-electron integrals neglected if value below      1.0D-11
 AO integral compression algorithm  1   Integral accuracy      1.0D-11

     7.078 MB (compressed) written to integral file ( 50.5%)


 NUMBER OF SORTED TWO-ELECTRON INTEGRALS:    1464616.     BUFFER LENGTH:  32768
 NUMBER OF SEGMENTS:   1  SEGMENT LENGTH:    1464616      RECORD LENGTH: 524288

 Memory used in sort:       2.02 MW

 SORT1 READ     1695909. AND WROTE     1293745. INTEGRALS IN      4 RECORDS. CPU TIME:     0.02 SEC, REAL TIME:     0.05 SEC
 SORT2 READ     1293745. AND WROTE     1464616. INTEGRALS IN     27 RECORDS. CPU TIME:     0.07 SEC, REAL TIME:     0.08 SEC

 FILE SIZES:   FILE 1:    37.3 MBYTE,  FILE 4:    16.8 MBYTE,   TOTAL:     54.1 MBYTE

 OPERATOR DM      FOR CENTER  0  COORDINATES:    0.000000    0.000000    0.000000


 **********************************************************************************************************************************
 DATASETS  * FILE   NREC   LENGTH (MB)   RECORD NAMES
              1      19       36.06       500      610      700      900      950      970     1000      129      960     1100   
                                          VAR    BASINP    GEOM    SYMINP    ZMAT    AOBASIS   BASIS     P2S    ABASIS      S 
                                         1400     1410     1200     1210     1080     1600     1650     1300     1700   
                                           T        V       H0       H01     AOSYM     SMH    MOLCAS    ERIS     OPER   

 PROGRAMS   *        TOTAL       INT
 CPU TIMES  *         0.61      0.47
 REAL TIME  *         1.25 SEC
 DISK USED  *        54.48 MB      
 **********************************************************************************************************************************

 Density functional group LYP88=LYP
 Functional: LYP(Automatically generated (new) LYP)                            Gradient terms: 1
 Use grid at  1800.2

 Functional: LYP                       Factor:  1.0000

 Generated new metagrid on record  1800.2 with target accuracy 1.0D-06 and 24988 points in CPU time    0.6
 Computed new grid on record 1800.1 in CPU time    0.6
   50000 words reserved for DFT integration

 PROGRAM * RKS-SCF (Restricted closed shell Kohn-Sham)     Authors: W. Meyer, H.-J. Werner, P.J. Knowles, 1993

 NUMBER OF ELECTRONS:       9+    9-    SPACE SYMMETRY=1    SPIN SYMMETRY: Singlet 
 CONVERGENCE THRESHOLDS:    1.00E-05 (Density)    1.00E-06 (Energy)
 MAX. NUMBER OF ITERATIONS:       60
 INTERPOLATION TYPE:            DIIS
 INTERPOLATION STEPS:              2 (START)      1 (STEP)
 LEVEL SHIFTS:                  0.00 (CLOSED)  0.00 (OPEN) 



 Use fine grid record 1800.2 for energy threshold  1.0D-06
 Orbital guess generated from atomic densities. Full valence occupancy:    9

 Molecular orbital dump at record        2100.2

 Initial occupancy:   9

 ITERATION    DDIFF          GRAD             ENERGY        2-EL.EN.            DIPOLE MOMENTS         DIIS   ORB.
    1      0.000D+00      0.000D+00       -67.56721882    146.751857    0.00000    0.00000    0.00000    0    start
    2      0.000D+00      0.112D-01       -67.38690115    159.580887    0.00000   -0.00000    0.00000    1    diag
    3      0.315D-01      0.229D-01       -67.61523942    150.031089   -0.00000    0.00000    0.00000    2    diag
    4      0.233D-01      0.129D-02       -67.61606924    150.703037    0.00000   -0.00000   -0.00000    3    diag
    5      0.259D-02      0.302D-03       -67.61612344    150.581011   -0.00000   -0.00000    0.00000    4    diag
    6      0.637D-03      0.402D-04       -67.61612413    150.578224    0.00000    0.00000   -0.00000    5    diag
    7      0.472D-04      0.589D-05       -67.61612415    150.580727   -0.00000    0.00000   -0.00000    6    diag
    8      0.114D-04      0.267D-06       -67.61612415    150.580828   -0.00000   -0.00000    0.00000    7    diag
    9      0.651D-06      0.815D-08       -67.61612415    150.580820   -0.00000    0.00000   -0.00000    0    orth

 Final occupancy:   9

 !RKS STATE 1.1 Energy                -67.616124154073
 Nuclear energy                        42.10919032
 One-electron energy                 -184.47836515
 Two-electron energy                   75.29041013
 Density functional                    -0.53735946     LYP=-0.53735946
 Virial quotient                       -0.91798864
 !RKS STATE 1.1 Dipole moment          -0.00000000     0.00000000    -0.00000000
 Dipole moment /Debye                  -0.00000000     0.00000000    -0.00000000

 Orbital energies:

         1.1          2.1          3.1          4.1          5.1          6.1          7.1          8.1          9.1         10.1
     -8.212115    -8.209341    -0.358864    -0.225625    -0.111898    -0.111898    -0.052004    -0.006113    -0.006113     0.189203

        11.1
      0.241252

 HOMO      9.1    -0.006113 =      -0.1663eV
 LUMO     10.1     0.189203 =       5.1485eV
 LUMO-HOMO         0.195315 =       5.3148eV


 **********************************************************************************************************************************
 DATASETS  * FILE   NREC   LENGTH (MB)   RECORD NAMES
              1      20       36.86       500      610      700      900      950      970     1000      129      960     1100   
                                          VAR    BASINP    GEOM    SYMINP    ZMAT    AOBASIS   BASIS     P2S    ABASIS      S 
                                         1400     1410     1200     1210     1080     1600     1650     1300     1700     1800   
                                           T        V       H0       H01     AOSYM     SMH    MOLCAS    ERIS     OPER     GRID   

              2       5        2.94       700     1000      520     1800     2100   
                                         GEOM     BASIS   MCVARS    GRID      RKS  

 PROGRAMS   *        TOTAL        KS       INT
 CPU TIMES  *         3.10      2.49      0.47
 REAL TIME  *         4.14 SEC
 DISK USED  *        54.48 MB      
 **********************************************************************************************************************************


 PROGRAM * Intrinsic Basis Bonding Analysis (IBBA)          Author: G. Knizia

 Molecular orbitals read from record     2100.2  Type=RKS/CANONICAL (state 1.1)
 Fock matrix read from record            2100.2  Type=RKS/TOTAL (state 1.1)
 Orbital energies read from record       2100.2  Type=RKS/CANONICAL (state 1.1)
 Density matrix read from record         2100.2  Type=RKS/CHARGE (state 1.1)

 Number of core orbitals:           2 (   2 )
 Number of closed-shell orbitals:   7 (   7 )

 Basis set MINAO-AUTO-PP generated.      Number of basis functions:   16 

 Polarized AO type:                A = (O Ot + (1-O)(1-Ot)) P12
 Orthogonalization method:         Symmetric (Loewdin)
 Localization functional:          L = sum[A,i] <i|n_A|i>^4 -> max

 Localization group 1:   9 orbitals, occupancy  2.000
 Iterative localization: IB/PM,    7 iter; Final gradient 0.43E-09

 Bond order analysis:       [THRPRINT= 0.020]

   CEN ATOM   CEN ATOM     WIBERG.BO      RENORM.BO
     1   C  -   2   C       1.066415       1.067582
     1   C  -   6   H       0.962125       0.974313
     1   C  -   7   H       0.962125       0.974313
     1   C  -   8   H       0.962125       0.974313

     2   C  -   1   C       1.066415       1.067582
     2   C  -   3   H       0.962125       0.974313
     2   C  -   4   H       0.962125       0.974313
     2   C  -   5   H       0.962125       0.974313

     3   H  -   2   C       0.962125       0.974313
     3   H  -   6   H       0.024370       0.026525

     4   H  -   2   C       0.962125       0.974313
     4   H  -   8   H       0.024370       0.026525

     5   H  -   2   C       0.962125       0.974313
     5   H  -   7   H       0.024370       0.026525

     6   H  -   1   C       0.962125       0.974313
     6   H  -   3   H       0.024370       0.026525

     7   H  -   1   C       0.962125       0.974313
     7   H  -   5   H       0.024370       0.026525

     8   H  -   1   C       0.962125       0.974313
     8   H  -   4   H       0.024370       0.026525


 Valency analysis:

   CEN ATOM   TOT.VALENCE
     1   C       3.959481
     2   C       3.959481
     3   H       0.998279
     4   H       0.998279
     5   H       0.998279
     6   H       0.998279
     7   H       0.998279
     8   H       0.998279

 Total charge composition:

   CEN ATOM         s          p       ELECTRONS ->P.CHARGE
     1   C       2.86881    3.25563      6.12445   -0.12445
     2   C       2.86881    3.25563      6.12445   -0.12445
     3   H       0.95852                 0.95852    0.04148
     4   H       0.95852                 0.95852    0.04148
     5   H       0.95852                 0.95852    0.04148
     6   H       0.95852                 0.95852    0.04148
     7   H       0.95852                 0.95852    0.04148
     8   H       0.95852                 0.95852    0.04148

 Total charge composition, AO contributions:

   CEN ATOM SHL      SPHERICAL COMPONENTS
     1   C  1s       1.99792
     1   C  2s       0.87089
     1   C  2p       1.05276    1.10144    1.10144

     2   C  1s       1.99792
     2   C  2s       0.87089
     2   C  2p       1.05276    1.10144    1.10144

     3   H  1s       0.95852

     4   H  1s       0.95852

     5   H  1s       0.95852

     6   H  1s       0.95852

     7   H  1s       0.95852

     8   H  1s       0.95852

 Summary of localized orbital composition:   [THRPRINT= 0.020]

   ORB  GRP  ORB.ENERGY      CENTERS/CHARGES
     1   1    -8.132447      C  2   2.000
     2   1    -8.132447      C  1   2.000
     3   1    -0.210988      C  2   0.998   C  1   0.998
     4   1    -0.136348      C  2   1.036   H  3   0.948
     5   1    -0.136348      C  1   1.036   H  6   0.948
     6   1    -0.136348      C  1   1.036   H  7   0.948
     7   1    -0.136348      C  2   1.036   H  5   0.948
     8   1    -0.136348      C  2   1.036   H  4   0.948
     9   1    -0.136348      C  1   1.036   H  8   0.948

 Localized orbitals saved to record      2100.2  (orbital set 2)


 **********************************************************************************************************************************
 DATASETS  * FILE   NREC   LENGTH (MB)   RECORD NAMES
              1      20       36.86       500      610      700      900      950      970     1000      129      960     1100   
                                          VAR    BASINP    GEOM    SYMINP    ZMAT    AOBASIS   BASIS     P2S    ABASIS      S 
                                         1400     1410     1200     1210     1080     1600     1650     1300     1700     1800   
                                           T        V       H0       H01     AOSYM     SMH    MOLCAS    ERIS     OPER     GRID   

              2       5        2.97       700     1000      520     1800     2100   
                                         GEOM     BASIS   MCVARS    GRID      RKS  

 PROGRAMS   *        TOTAL      IBBA        KS       INT
 CPU TIMES  *         3.12      0.02      2.49      0.47
 REAL TIME  *         4.22 SEC
 DISK USED  *        54.48 MB      
 **********************************************************************************************************************************
 Molecular orbitals read from record     2100.2  Type=RKS/LOCAL(IBO)  
 Occupation numbers read from record     2100.2  Type=RKS/LOCAL(IBO)  
 Orbital energies read from record       2100.2  Type=RKS/LOCAL(IBO)  
 Redundancy group numbers read from rec  2100.2  Type=RKS/LOCAL(IBO)  

 IBBA/SVP energy=      0.000000000000

        KS-SCF  
    -67.61612415
 **********************************************************************************************************************************
 Molpro calculation terminated
