
 Primary working directories    : /tmp/sb13343
 Secondary working directories  : /tmp/sb13343
 Wavefunction directory         : /panfs/panasas01/chem/sb13343/wfu/
 Main file repository           : /tmp/sb13343/

 SHA1      : b4a5b34a9e711420743f49e6833241d17c61fb3c
 NAME      : 2099.9.b4a5b34
 ARCHNAME  : linux/x86_64_openmp
 FC        : /cm/shared/languages/GCC-6.1/bin/gfortran
 BLASLIB   : -lblas
 id        : simonbennie

 Nodes     nprocs
 node35-048    1

 Using customized tuning parameters: mindgm=1; mindgv=20; mindgc=4; mindgr=1; noblas=0; minvec=7
 default implementation of scratch files=df  

 memory,500,m
 geomtyp=xyz
 nosym
 noorient
 geometry={
 C         -0.76527        0.00000        0.00000
 C          0.76527        0.00000        0.00000
 H          1.16435        1.02094        0.00000
 H          1.16435       -0.51047        0.88416
 H          1.16435       -0.51047       -0.88416
 H         -1.16435       -1.02094       -0.00000
 H         -1.16435        0.51047        0.88416
 H         -1.16435        0.51047       -0.88416
 }
 basis={ default,svp }
 {uks,LSDC,direct;wf,18,1,0}
 {ibba,bonds=1}

 Variables initialized (895), CPU time= 0.00 sec
 Commands  initialized (725), CPU time= 0.01 sec, 591 directives.
 Default parameters read. Elapsed time= 5.86 sec

 Checking input...
 Passed
1


                                         ***  PROGRAM SYSTEM MOLPRO  ***
                                       Copyright, TTI GmbH Stuttgart, 2015
                                    Version 2099.9 linked May 26 2017 16:03:21


 **********************************************************************************************************************************
 LABEL *                                                                                 
  64 bit serial version                                                                  DATE: 08-Jun-17          TIME: 08:21:16  
 **********************************************************************************************************************************

 SHA1:             b4a5b34a9e711420743f49e6833241d17c61fb3c
 **********************************************************************************************************************************
 SETTING GEOMTYP        =    XYZ

 Variable memory set to  500000000 words,  buffer space 

 ZSYMEL=NOSYM

 SETTING BASIS          =    SVP


 Recomputing integrals since basis changed


 Using spherical harmonics

 Library entry C      S def2-SVP             selected for orbital group  1
 Library entry C      P def2-SVP             selected for orbital group  1
 Library entry C      D def2-SVP             selected for orbital group  1
 Library entry H      S def2-SVP             selected for orbital group  2
 Library entry H      P def2-SVP             selected for orbital group  2


 PROGRAM * SEWARD (Integral evaluation for generally contracted gaussian basis sets)     Author: Roland Lindh, 1990

 Geometry written to block  1 of record 700


 Point group  C1  



 ATOMIC COORDINATES

 NR  ATOM    CHARGE       X              Y              Z

   1  C       6.00   -1.446150711    0.000000000    0.000000000
   2  C       6.00    1.446150711    0.000000000    0.000000000
   3  H       1.00    2.200302613    1.929296990    0.000000000
   4  H       1.00    2.200302613   -0.964648495    1.670820250
   5  H       1.00    2.200302613   -0.964648495   -1.670820250
   6  H       1.00   -2.200302613   -1.929296990   -0.000000000
   7  H       1.00   -2.200302613    0.964648495    1.670820250
   8  H       1.00   -2.200302613    0.964648495   -1.670820250

 Bond lengths in Bohr (Angstrom)

 1-2  2.892301423  1-6  2.071456484  1-7  2.071456521  1-8  2.071456521  2-3  2.071456484
     ( 1.530540000)     ( 1.096167565)     ( 1.096167584)     ( 1.096167584)     ( 1.096167565)

 2-4  2.071456521  2-5  2.071456521
     ( 1.096167584)     ( 1.096167584)

 Bond angles

  1-2-3  111.35026330   1-2-4  111.35026290   1-2-5  111.35026290   2-1-6  111.35026330

  2-1-7  111.35026290   2-1-8  111.35026290   3-2-4  107.52856653   3-2-5  107.52856653

  4-2-5  107.52856835   6-1-7  107.52856653   6-1-8  107.52856653   7-1-8  107.52856835

 NUCLEAR CHARGE:                   18
 NUMBER OF PRIMITIVE AOS:          92
 NUMBER OF SYMMETRY AOS:           90
 NUMBER OF CONTRACTIONS:           58   (  58A   )
 NUMBER OF CORE ORBITALS:           2   (   2A   )
 NUMBER OF VALENCE ORBITALS:       14   (  14A   )


 NUCLEAR REPULSION ENERGY   42.10919032


 Eigenvalues of metric

         1 0.452E-02 0.190E-01 0.404E-01 0.404E-01 0.408E-01 0.579E-01 0.579E-01 0.104E+00


 Contracted 2-electron integrals neglected if value below      1.0D-11
 AO integral compression algorithm  1   Integral accuracy      1.0D-11

     7.078 MB (compressed) written to integral file ( 50.5%)


 NUMBER OF SORTED TWO-ELECTRON INTEGRALS:    1464616.     BUFFER LENGTH:  32768
 NUMBER OF SEGMENTS:   1  SEGMENT LENGTH:    1464616      RECORD LENGTH: 524288

 Memory used in sort:       2.02 MW

 SORT1 READ     1695909. AND WROTE     1293745. INTEGRALS IN      4 RECORDS. CPU TIME:     0.02 SEC, REAL TIME:     0.04 SEC
 SORT2 READ     1293745. AND WROTE     1464616. INTEGRALS IN     27 RECORDS. CPU TIME:     0.07 SEC, REAL TIME:     0.08 SEC

 FILE SIZES:   FILE 1:    37.3 MBYTE,  FILE 4:    16.8 MBYTE,   TOTAL:     54.1 MBYTE

 OPERATOR DM      FOR CENTER  0  COORDINATES:    0.000000    0.000000    0.000000


 **********************************************************************************************************************************
 DATASETS  * FILE   NREC   LENGTH (MB)   RECORD NAMES
              1      19       36.06       500      610      700      900      950      970     1000      129      960     1100   
                                          VAR    BASINP    GEOM    SYMINP    ZMAT    AOBASIS   BASIS     P2S    ABASIS      S 
                                         1400     1410     1200     1210     1080     1600     1650     1300     1700   
                                           T        V       H0       H01     AOSYM     SMH    MOLCAS    ERIS     OPER   

 PROGRAMS   *        TOTAL       INT
 CPU TIMES  *         0.62      0.48
 REAL TIME  *         7.42 SEC
 DISK USED  *        54.48 MB      
 **********************************************************************************************************************************

 Density functional group LSDC=PW92C
 Functional: PW92C(Automatically generated (new) PW92C)                        Gradient terms: 0
 Use grid at  1800.2

 Functional: PW92C                     Factor:  1.0000

 Generated new metagrid on record  1800.2 with target accuracy 1.0D-06 and 24988 points in CPU time    0.6
 Computed new grid on record 1800.1 in CPU time    0.6
   27902 words reserved for DFT integration

 PROGRAM * UKS-SCF (Unrestricted Kohn-Sham)     Authors: W. Meyer, H.-J. Werner, P.J. Knowles, 1993

 NUMBER OF ELECTRONS:       9+    9-    SPACE SYMMETRY=1    SPIN SYMMETRY: Singlet 
 CONVERGENCE THRESHOLDS:    1.00E-05 (Density)    1.00E-06 (Energy)
 MAX. NUMBER OF ITERATIONS:       60
 INTERPOLATION TYPE:            DIIS
 INTERPOLATION STEPS:              2 (START)      1 (STEP)
 LEVEL SHIFTS:                 -0.20 (ALPHA)  -0.20 (BETA) 



 Use fine grid record 1800.2 for energy threshold  1.0D-06
 Orbital guess generated from atomic densities. Full valence occupancy:    9

 Molecular orbital dump at record        2200.2

 Initial alpha occupation   9
 Initial beta  occupation   9

 ITERATION    DDIFF          GRAD             ENERGY        2-EL.EN.            DIPOLE MOMENTS         DIIS
    1      0.000D+00      0.000D+00       -68.08880932    147.360008    0.00000    0.00000   -0.00000    0
    2      0.120D-01      0.530D-02       -68.11110233    153.165921    0.00000   -0.00000    0.00000    1
    3      0.448D-02      0.358D-02       -68.13042584    150.684651    0.00000    0.00000    0.00000    2
    4      0.553D-03      0.120D-03       -68.13047479    150.768162    0.00000   -0.00000    0.00000    3
    5      0.333D-03      0.413D-04       -68.13048281    150.771107   -0.00000    0.00000    0.00000    4
    6      0.140D-03      0.956D-05       -68.13048350    150.773201    0.00000   -0.00000    0.00000    5
    7      0.249D-04      0.254D-05       -68.13048353    150.773652    0.00000    0.00000    0.00000    4
    8      0.920D-05      0.938D-06       -68.13048353    150.773426    0.00000   -0.00000    0.00000    5
    9      0.339D-05      0.229D-06       -68.13048353    150.773537    0.00000   -0.00000    0.00000    6

 Final alpha occupancy:   9
 Final beta  occupancy:   9

 !UKS STATE 1.1 Energy                -68.130483530875
 Nuclear energy                        42.10919032
 One-electron energy                 -184.57409446
 Two-electron energy                   75.38676870
 Density functional                    -1.05234810     PW92C=-1.05234810
 Virial quotient                       -0.92368340
 !UKS STATE 1.1 Dipole moment           0.00000000    -0.00000000     0.00000000
 Dipole moment /Debye                   0.00000000    -0.00000000     0.00000000

 Orbital energies for positive spin:

         1.1          2.1          3.1          4.1          5.1          6.1          7.1          8.1          9.1         10.1
     -8.250087    -8.247392    -0.376557    -0.244012    -0.128879    -0.128878    -0.068591    -0.024538    -0.024536     0.178448

        11.1
      0.229431

 Orbital energies for negative spin:

         1.1          2.1          3.1          4.1          5.1          6.1          7.1          8.1          9.1         10.1
     -8.250087    -8.247392    -0.376557    -0.244012    -0.128879    -0.128878    -0.068591    -0.024538    -0.024536     0.178448

        11.1
      0.229431

 HOMO      9.1    -0.024536 =      -0.6677eV
 LUMO     10.1     0.178448 =       4.8558eV
 LUMO-HOMO         0.202984 =       5.5235eV

 EXPECTATION VALUE OF S**2:             0.00000000

 Natural orbitals saved to record    2200.2 (Orbital set 3)

 Orbital spaces for UNO-CAS (Min. occupation: 0.020  Max. occupation: 1.980):

 Closed:        9
 Active:        0


 **********************************************************************************************************************************
 DATASETS  * FILE   NREC   LENGTH (MB)   RECORD NAMES
              1      20       36.86       500      610      700      900      950      970     1000      129      960     1100   
                                          VAR    BASINP    GEOM    SYMINP    ZMAT    AOBASIS   BASIS     P2S    ABASIS      S 
                                         1400     1410     1200     1210     1080     1600     1650     1300     1700     1800   
                                           T        V       H0       H01     AOSYM     SMH    MOLCAS    ERIS     OPER     GRID   

              2       5        3.02       700     1000      520     1800     2200   
                                         GEOM     BASIS   MCVARS    GRID      UKS  

 PROGRAMS   *        TOTAL       UKS       INT
 CPU TIMES  *         2.92      2.30      0.48
 REAL TIME  *        10.94 SEC
 DISK USED  *        54.48 MB      
 **********************************************************************************************************************************


 PROGRAM * Intrinsic Basis Bonding Analysis (IBBA)          Author: G. Knizia

 Molecular orbitals read from record     2200.2  Type=UKS/ALPHA (state 1.1)
 Fock matrix read from record            2200.2  Type=UKS/TOTAL (state 1.1)
 Orbital energies read from record       2200.2  Type=UKS/ALPHA (state 1.1)
 Density matrix read from record         2200.2  Type=UKS/CHARGE (state 1.1)

 Number of core orbitals:           2 (   2 )
 Number of closed-shell orbitals:   7 (   7 )

 Basis set MINAO-AUTO-PP generated.      Number of basis functions:   16 

 Polarized AO type:                A = (O Ot + (1-O)(1-Ot)) P12
 Orthogonalization method:         Symmetric (Loewdin)
 Localization functional:          L = sum[A,i] <i|n_A|i>^4 -> max

 Localization group 1:   9 orbitals, occupancy  2.000
 Iterative localization: IB/PM,    7 iter; Final gradient 0.68E-08

 Bond order analysis:       [THRPRINT= 0.020]

   CEN ATOM   CEN ATOM     WIBERG.BO      RENORM.BO
     1   C  -   2   C       1.065791       1.066924
     1   C  -   6   H       0.963052       0.974669
     1   C  -   7   H       0.963052       0.974667
     1   C  -   8   H       0.963052       0.974667

     2   C  -   1   C       1.065791       1.066924
     2   C  -   3   H       0.963052       0.974669
     2   C  -   4   H       0.963052       0.974667
     2   C  -   5   H       0.963052       0.974667

     3   H  -   2   C       0.963052       0.974669
     3   H  -   6   H       0.023958       0.025988

     4   H  -   2   C       0.963052       0.974667
     4   H  -   8   H       0.023960       0.025989

     5   H  -   2   C       0.963052       0.974667
     5   H  -   7   H       0.023960       0.025989

     6   H  -   1   C       0.963052       0.974669
     6   H  -   3   H       0.023958       0.025988

     7   H  -   1   C       0.963052       0.974667
     7   H  -   5   H       0.023960       0.025989

     8   H  -   1   C       0.963052       0.974667
     8   H  -   4   H       0.023960       0.025989


 Valency analysis:

   CEN ATOM   TOT.VALENCE
     1   C       3.961390
     2   C       3.961390
     3   H       0.998412
     4   H       0.998413
     5   H       0.998413
     6   H       0.998412
     7   H       0.998413
     8   H       0.998413

 Total charge composition:

   CEN ATOM         s          p       ELECTRONS ->P.CHARGE
     1   C       2.87103    3.24849      6.11952   -0.11952
     2   C       2.87103    3.24849      6.11952   -0.11952
     3   H       0.96015                 0.96015    0.03985
     4   H       0.96017                 0.96017    0.03983
     5   H       0.96017                 0.96017    0.03983
     6   H       0.96015                 0.96015    0.03985
     7   H       0.96017                 0.96017    0.03983
     8   H       0.96017                 0.96017    0.03983

 Total charge composition, AO contributions:

   CEN ATOM SHL      SPHERICAL COMPONENTS
     1   C  1s       1.99783
     1   C  2s       0.87320
     1   C  2p       1.05175    1.09838    1.09837

     2   C  1s       1.99783
     2   C  2s       0.87320
     2   C  2p       1.05175    1.09838    1.09837

     3   H  1s       0.96015

     4   H  1s       0.96017

     5   H  1s       0.96017

     6   H  1s       0.96015

     7   H  1s       0.96017

     8   H  1s       0.96017

 Summary of localized orbital composition:   [THRPRINT= 0.020]

   ORB  GRP  ORB.ENERGY      CENTERS/CHARGES
     1   1    -8.170039      C  1   2.000
     2   1    -8.170039      C  2   2.000
     3   1    -0.227233      C  1   0.998   C  2   0.998
     4   1    -0.154358      C  2   1.034   H  5   0.950
     5   1    -0.154358      C  1   1.034   H  8   0.950
     6   1    -0.154358      C  2   1.034   H  4   0.950
     7   1    -0.154358      C  1   1.034   H  7   0.950
     8   1    -0.154356      C  1   1.034   H  6   0.950
     9   1    -0.154356      C  2   1.034   H  3   0.950

 Localized orbitals saved to record      2200.2  (orbital set 4)


 **********************************************************************************************************************************
 DATASETS  * FILE   NREC   LENGTH (MB)   RECORD NAMES
              1      20       36.86       500      610      700      900      950      970     1000      129      960     1100   
                                          VAR    BASINP    GEOM    SYMINP    ZMAT    AOBASIS   BASIS     P2S    ABASIS      S 
                                         1400     1410     1200     1210     1080     1600     1650     1300     1700     1800   
                                           T        V       H0       H01     AOSYM     SMH    MOLCAS    ERIS     OPER     GRID   

              2       5        3.05       700     1000      520     1800     2200   
                                         GEOM     BASIS   MCVARS    GRID      UKS  

 PROGRAMS   *        TOTAL      IBBA       UKS       INT
 CPU TIMES  *         2.94      0.02      2.30      0.48
 REAL TIME  *        11.02 SEC
 DISK USED  *        54.48 MB      
 **********************************************************************************************************************************
 Molecular orbitals read from record     2200.2  Type=UKS/LOCAL(IBO)  
 Occupation numbers read from record     2200.2  Type=UKS/LOCAL(IBO)  
 Orbital energies read from record       2200.2  Type=UKS/LOCAL(IBO)  
 Redundancy group numbers read from rec  2200.2  Type=UKS/BETA (state 1.1)

 IBBA/SVP energy=      0.000000000000

        UKS-SCF 
    -68.13048353
 **********************************************************************************************************************************
 Molpro calculation terminated
