
 Primary working directories    : /tmp/sb13343
 Secondary working directories  : /tmp/sb13343
 Wavefunction directory         : /panfs/panasas01/chem/sb13343/wfu/
 Main file repository           : /tmp/sb13343/

 SHA1      : b4a5b34a9e711420743f49e6833241d17c61fb3c
 NAME      : 2099.9.b4a5b34
 ARCHNAME  : linux/x86_64_openmp
 FC        : /cm/shared/languages/GCC-6.1/bin/gfortran
 BLASLIB   : -lblas
 id        : simonbennie

 Nodes     nprocs
 node32-002    1

 Using customized tuning parameters: mindgm=1; mindgv=20; mindgc=4; mindgr=1; noblas=0; minvec=7
 default implementation of scratch files=df  

 memory,500,m
 geomtyp=xyz
 nosym
 noorient
 geometry={
 C          0.00000        0.00000        0.00000
 O          0.00000        0.00000        1.40962
 C          1.30608        0.00000        1.95787
 C          1.19221        0.00000        3.47353
 H          2.18666        0.00000        3.93332
 H         -1.04410        0.00000       -0.32474
 H          0.50079       -0.89267       -0.41051
 H          0.50079        0.89267       -0.41051
 H          1.86435       -0.88728        1.61056
 H          1.86435        0.88728        1.61056
 H          0.64981       -0.88690        3.81673
 H          0.64981        0.88690        3.81673
 }
 basis={ default,sto-3g }
 {uks,MM06-L,direct;wf,34,1,0}
 {ibba,bonds=1}

 Variables initialized (895), CPU time= 0.00 sec
 Commands  initialized (725), CPU time= 0.02 sec, 591 directives.
 Default parameters read. Elapsed time= 0.13 sec

 Checking input...
 Passed
1


                                         ***  PROGRAM SYSTEM MOLPRO  ***
                                       Copyright, TTI GmbH Stuttgart, 2015
                                    Version 2099.9 linked May 26 2017 16:03:21


 **********************************************************************************************************************************
 LABEL *                                                                                 
  64 bit serial version                                                                  DATE: 08-Jun-17          TIME: 09:42:07  
 **********************************************************************************************************************************

 SHA1:             b4a5b34a9e711420743f49e6833241d17c61fb3c
 **********************************************************************************************************************************
 SETTING GEOMTYP        =    XYZ

 Variable memory set to  500000000 words,  buffer space 

 ZSYMEL=NOSYM

 SETTING BASIS          =    STO-3G


 Recomputing integrals since basis changed


 Using spherical harmonics

 Library entry C      S STO-3G               selected for orbital group  1
 Library entry C      P STO-3G               selected for orbital group  1
 Library entry O      S STO-3G               selected for orbital group  2
 Library entry O      P STO-3G               selected for orbital group  2
 Library entry H      S STO-3G               selected for orbital group  4


 PROGRAM * SEWARD (Integral evaluation for generally contracted gaussian basis sets)     Author: Roland Lindh, 1990

 Geometry written to block  1 of record 700


 Point group  C1  



 ATOMIC COORDINATES

 NR  ATOM    CHARGE       X              Y              Z

   1  C       6.00    0.000000000    0.000000000    0.000000000
   2  O       8.00    0.000000000    0.000000000    2.663795740
   3  C       6.00    2.468133497    0.000000000    3.699838088
   4  C       6.00    2.252950383    0.000000000    6.564020385
   5  H       1.00    4.132188528    0.000000000    7.432897560
   6  H       1.00   -1.973063047    0.000000000   -0.613669662
   7  H       1.00    0.946355946   -1.686901820   -0.775751471
   8  H       1.00    0.946355946    1.686901820   -0.775751471
   9  H       1.00    3.523110900   -1.676716196    3.043517307
  10  H       1.00    3.523110900    1.676716196    3.043517307
  11  H       1.00    1.227962933   -1.675998100    7.212574391
  12  H       1.00    1.227962933    1.675998100    7.212574391

 Bond lengths in Bohr (Angstrom)

 1-2  2.663795740  1-6  2.066293358  1-7  2.083990804  1-8  2.083990804  2-3  2.676764223
     ( 1.409620000)     ( 1.093435356)     ( 1.102800441)     ( 1.102800441)     ( 1.416482626)

  3- 4  2.872254168   3- 9  2.086890388   3-10  2.086890388   4- 5  2.070382464   4-11  2.068862297
       ( 1.519931450)       ( 1.104334835)       ( 1.104334835)       ( 1.095599218)       ( 1.094794780)

  4-12  2.068862297
       ( 1.094794780)

 Bond angles

  1-2-3  112.77108340   2-1-6  107.27693969   2-1-7  111.85402987   2-1-8  111.85402987

  2- 3- 4  108.47458109   2- 3- 9  110.14508041   2- 3-10  110.14508041   3- 4- 5  110.51724552

  3- 4-11  110.47015208   3- 4-12  110.47015208   4- 3- 9  110.57823876   4- 3-10  110.57823876

  5- 4-11  108.55021133   5- 4-12  108.55021133   6- 1- 7  108.84842497   6- 1- 8  108.84842497

  7- 1- 8  108.08590744   9- 3-10  106.92203462  11- 4-12  108.21261054

 NUCLEAR CHARGE:                   34
 NUMBER OF PRIMITIVE AOS:          84
 NUMBER OF SYMMETRY AOS:           84
 NUMBER OF CONTRACTIONS:           28   (  28A   )
 NUMBER OF CORE ORBITALS:           4   (   4A   )
 NUMBER OF VALENCE ORBITALS:       24   (  24A   )


 NUCLEAR REPULSION ENERGY  133.31979421


 Eigenvalues of metric

         1 0.212E+00 0.234E+00 0.263E+00 0.352E+00 0.360E+00 0.368E+00 0.374E+00 0.394E+00


 Contracted 2-electron integrals neglected if value below      1.0D-11
 AO integral compression algorithm  1   Integral accuracy      1.0D-11

     0.786 MB (compressed) written to integral file ( 77.9%)


 NUMBER OF SORTED TWO-ELECTRON INTEGRALS:      82621.     BUFFER LENGTH:  32768
 NUMBER OF SEGMENTS:   1  SEGMENT LENGTH:      82621      RECORD LENGTH: 524288

 Memory used in sort:       0.64 MW

 SORT1 READ       95283. AND WROTE       67599. INTEGRALS IN      1 RECORDS. CPU TIME:     0.00 SEC, REAL TIME:     0.01 SEC
 SORT2 READ       67599. AND WROTE       82621. INTEGRALS IN      3 RECORDS. CPU TIME:     0.01 SEC, REAL TIME:     0.02 SEC

 FILE SIZES:   FILE 1:    31.0 MBYTE,  FILE 4:     4.2 MBYTE,   TOTAL:     35.2 MBYTE

 OPERATOR DM      FOR CENTER  0  COORDINATES:    0.000000    0.000000    0.000000


 **********************************************************************************************************************************
 DATASETS  * FILE   NREC   LENGTH (MB)   RECORD NAMES
              1      19       30.48       500      610      700      900      950      970     1000      129      960     1100   
                                          VAR    BASINP    GEOM    SYMINP    ZMAT    AOBASIS   BASIS     P2S    ABASIS      S 
                                         1400     1410     1200     1210     1080     1600     1650     1300     1700   
                                           T        V       H0       H01     AOSYM     SMH    MOLCAS    ERIS     OPER   

 PROGRAMS   *        TOTAL       INT
 CPU TIMES  *         0.48      0.33
 REAL TIME  *         1.19 SEC
 DISK USED  *        35.64 MB      
 **********************************************************************************************************************************

 Density functional group MM06-L=M06LX+M06LC
 Functional: M06LX(Automatically generated (new) M06LX)                        Gradient terms: 2
 Functional: M06LC(Automatically generated (new) M06LC)                        Gradient terms: 2
 Use grid at  1800.2

 Functional: M06LX                     Factor:  1.0000
 Functional: M06LC                     Factor:  1.0000

 Generated new metagrid on record  1800.2 with target accuracy 1.0D-06 and 44796 points in CPU time    1.2
 Computed new grid on record 1800.1 in CPU time    1.3
   47968 words reserved for DFT integration

 PROGRAM * UKS-SCF (Unrestricted Kohn-Sham)     Authors: W. Meyer, H.-J. Werner, P.J. Knowles, 1993

 NUMBER OF ELECTRONS:      17+   17-    SPACE SYMMETRY=1    SPIN SYMMETRY: Singlet 
 CONVERGENCE THRESHOLDS:    1.00E-05 (Density)    1.00E-06 (Energy)
 MAX. NUMBER OF ITERATIONS:       60
 INTERPOLATION TYPE:            DIIS
 INTERPOLATION STEPS:              2 (START)      1 (STEP)
 LEVEL SHIFTS:                 -0.20 (ALPHA)  -0.20 (BETA) 



 Use fine grid record 1800.2 for energy threshold  1.0D-06
 Orbital guess generated from atomic densities. Full valence occupancy:   17

 Molecular orbital dump at record        2200.2

 Initial alpha occupation  17
 Initial beta  occupation  17

 ITERATION    DDIFF          GRAD             ENERGY        2-EL.EN.            DIPOLE MOMENTS         DIIS
    1      0.000D+00      0.000D+00      -191.62861049    465.008462    1.02145   -0.00000   -0.62124    0
    2      0.572D-01      0.181D-01      -191.81578462    452.897159    0.16618   -0.00000   -0.02070    1
    3      0.849D-02      0.363D-02      -191.82212653    454.393849    0.36510   -0.00000   -0.16167    2
    4      0.131D-02      0.468D-03      -191.82226465    454.375817    0.35991   -0.00000   -0.16099    3
    5      0.433D-03      0.143D-03      -191.82228083    454.367456    0.36492   -0.00000   -0.16695    4
    6      0.136D-03      0.279D-04      -191.82228184    454.366689    0.36397   -0.00000   -0.16776    5
    7      0.290D-04      0.755D-05      -191.82228188    454.367537    0.36436   -0.00000   -0.16789    5
    8      0.922D-05      0.315D-05      -191.82228189    454.367170    0.36426   -0.00000   -0.16787    6
    9      0.108D-05      0.215D-06      -191.82228189    454.367211    0.36426   -0.00000   -0.16787    6

 Final alpha occupancy:  17
 Final beta  occupancy:  17

 !UKS STATE 1.1 Energy               -191.822281887612
 Nuclear energy                       133.31979421
 One-electron energy                 -524.46465949
 Two-electron energy                  227.18360551
 Density functional                   -27.86102212     M06LX=-26.64758980 M06LC= -1.21343231
 Virial quotient                       -1.01541789
 !UKS STATE 1.1 Dipole moment           0.36425970    -0.00000000    -0.16786998
 Dipole moment /Debye                   0.92579517    -0.00000000    -0.42665499

 Orbital energies for positive spin:

         1.1          2.1          3.1          4.1          5.1          6.1          7.1          8.1          9.1         10.1
    -18.689888    -9.921499    -9.913371    -9.871720    -0.933141    -0.688009    -0.601024    -0.532899    -0.401368    -0.399825

        11.1         12.1         13.1         14.1         15.1         16.1         17.1         18.1         19.1
     -0.369559    -0.349898    -0.315319    -0.289187    -0.286235    -0.168500    -0.082941     0.272268     0.362330

 Orbital energies for negative spin:

         1.1          2.1          3.1          4.1          5.1          6.1          7.1          8.1          9.1         10.1
    -18.689888    -9.921499    -9.913371    -9.871720    -0.933141    -0.688009    -0.601024    -0.532899    -0.401368    -0.399825

        11.1         12.1         13.1         14.1         15.1         16.1         17.1         18.1         19.1
     -0.369559    -0.349898    -0.315319    -0.289187    -0.286235    -0.168500    -0.082941     0.272268     0.362330

 HOMO     17.1    -0.082941 =      -2.2569eV
 LUMO     18.1     0.272268 =       7.4088eV
 LUMO-HOMO         0.355209 =       9.6657eV

 EXPECTATION VALUE OF S**2:            -0.00000000

 Natural orbitals saved to record    2200.2 (Orbital set 3)

 Orbital spaces for UNO-CAS (Min. occupation: 0.020  Max. occupation: 1.980):

 Closed:       17
 Active:        0


 **********************************************************************************************************************************
 DATASETS  * FILE   NREC   LENGTH (MB)   RECORD NAMES
              1      20       31.92       500      610      700      900      950      970     1000      129      960     1100   
                                          VAR    BASINP    GEOM    SYMINP    ZMAT    AOBASIS   BASIS     P2S    ABASIS      S 
                                         1400     1410     1200     1210     1080     1600     1650     1300     1700     1800   
                                           T        V       H0       H01     AOSYM     SMH    MOLCAS    ERIS     OPER     GRID   

              2       5        2.98       700     1000      520     1800     2200   
                                         GEOM     BASIS   MCVARS    GRID      UKS  

 PROGRAMS   *        TOTAL       UKS       INT
 CPU TIMES  *        10.48     10.00      0.33
 REAL TIME  *        15.66 SEC
 DISK USED  *        35.64 MB      
 **********************************************************************************************************************************


 PROGRAM * Intrinsic Basis Bonding Analysis (IBBA)          Author: G. Knizia

 Molecular orbitals read from record     2200.2  Type=UKS/ALPHA (state 1.1)
 Fock matrix read from record            2200.2  Type=UKS/TOTAL (state 1.1)
 Orbital energies read from record       2200.2  Type=UKS/ALPHA (state 1.1)
 Density matrix read from record         2200.2  Type=UKS/CHARGE (state 1.1)

 Number of core orbitals:           4 (   4 )
 Number of closed-shell orbitals:  13 (  13 )

 Basis set MINAO-AUTO-PP generated.      Number of basis functions:   28 

 Polarized AO type:                A = (O Ot + (1-O)(1-Ot)) P12
 Orthogonalization method:         Symmetric (Loewdin)
 Localization functional:          L = sum[A,i] <i|n_A|i>^4 -> max

 Localization group 1:  17 orbitals, occupancy  2.000
 Iterative localization: IB/PM,    7 iter; Final gradient 0.41E-09

 Bond order analysis:       [THRPRINT= 0.020]

   CEN ATOM   CEN ATOM     WIBERG.BO      RENORM.BO
     1   C  -   2   O       1.020554       1.021012
     1   C  -   6   H       0.956409       0.972453
     1   C  -   7   H       0.950575       0.939265
     1   C  -   8   H       0.950575       0.939265

     2   O  -   1   C       1.020554       1.021012
     2   O  -   3   C       1.001294       0.997805
     2   O  -   7   H       0.033364       0.019903
     2   O  -   8   H       0.033364       0.019903
     2   O  -  10   H       0.030697       0.018339
     2   O  -   9   H       0.030697       0.018339

     3   C  -   4   C       1.020414       1.011290
     3   C  -   2   O       1.001294       0.997805
     3   C  -   9   H       0.939472       0.928684
     3   C  -  10   H       0.939472       0.928684

     4   C  -   3   C       1.020414       1.011290
     4   C  -   5   H       0.964855       0.991165
     4   C  -  12   H       0.962949       0.985556
     4   C  -  11   H       0.962949       0.985556

     5   H  -   4   C       0.964855       0.991165

     6   H  -   1   C       0.956409       0.972453

     7   H  -   1   C       0.950575       0.939265
     7   H  -   2   O       0.033364       0.019903

     8   H  -   1   C       0.950575       0.939265
     8   H  -   2   O       0.033364       0.019903

     9   H  -   3   C       0.939472       0.928684
     9   H  -   2   O       0.030697       0.018339

    10   H  -   3   C       0.939472       0.928684
    10   H  -   2   O       0.030697       0.018339

    11   H  -   4   C       0.962949       0.985556

    12   H  -   4   C       0.962949       0.985556


 Valency analysis:

   CEN ATOM   TOT.VALENCE
     1   C       3.898550
     2   O       2.178721
     3   C       3.923959
     4   C       3.936173
     5   H       0.981698
     6   H       0.981127
     7   H       0.987684
     8   H       0.987684
     9   H       0.988193
    10   H       0.988193
    11   H       0.981454
    12   H       0.981454

 Total charge composition:

   CEN ATOM         s          p       ELECTRONS ->P.CHARGE
     1   C       3.01738    3.22908      6.24646   -0.24646
     2   O       3.66174    4.57296      8.23470   -0.23470
     3   C       2.99240    3.11949      6.11189   -0.11189
     4   C       3.00840    3.38285      6.39124   -0.39124
     5   H       0.86472                 0.86472    0.13528
     6   H       0.86262                 0.86262    0.13738
     7   H       0.88902                 0.88902    0.11098
     8   H       0.88902                 0.88902    0.11098
     9   H       0.89134                 0.89134    0.10866
    10   H       0.89134                 0.89134    0.10866
    11   H       0.86382                 0.86382    0.13618
    12   H       0.86382                 0.86382    0.13618

 Total charge composition, AO contributions:

   CEN ATOM SHL      SPHERICAL COMPONENTS
     1   C  1s       1.99229
     1   C  2s       1.02510
     1   C  2p       1.18134    1.17374    0.87399

     2   O  1s       1.99725
     2   O  2s       1.66449
     2   O  2p       1.40488    1.90173    1.26635

     3   C  1s       1.99250
     3   C  2s       0.99989
     3   C  2p       0.91278    1.16943    1.03729

     4   C  1s       1.99157
     4   C  2s       1.01683
     4   C  2p       1.16375    1.16948    1.04961

     5   H  1s       0.86472

     6   H  1s       0.86262

     7   H  1s       0.88902

     8   H  1s       0.88902

     9   H  1s       0.89134

    10   H  1s       0.89134

    11   H  1s       0.86382

    12   H  1s       0.86382

 Summary of localized orbital composition:   [THRPRINT= 0.020]

   ORB  GRP  ORB.ENERGY      CENTERS/CHARGES
     1   1   -18.527101      O  2   2.000
     2   1    -9.818110      C  3   2.000
     3   1    -9.805819      C  1   2.000
     4   1    -9.758208      C  4   2.000
     5   1    -0.629007      O  2   1.177   C  1   0.812
     6   1    -0.619070      O  2   1.180   C  3   0.805
     7   1    -0.511788      C  3   1.006   C  4   0.985
     8   1    -0.465196      O  2   1.970   (other: 0.030)
     9   1    -0.454586      C  1   1.139   H  6   0.853
    10   1    -0.453364      C  1   1.130   H  7   0.869
    11   1    -0.453364      C  1   1.130   H  8   0.869
    12   1    -0.450746      C  3   1.124   H 10   0.868
    13   1    -0.450746      C  3   1.124   H  9   0.868
    14   1    -0.438272      C  4   1.129   H  5   0.859
    15   1    -0.431269      C  4   1.132   H 12   0.858
    16   1    -0.431269      C  4   1.132   H 11   0.858
    17   1    -0.116457      O  2   1.901   (other: 0.099)

 Localized orbitals saved to record      2200.2  (orbital set 4)


 **********************************************************************************************************************************
 DATASETS  * FILE   NREC   LENGTH (MB)   RECORD NAMES
              1      20       31.92       500      610      700      900      950      970     1000      129      960     1100   
                                          VAR    BASINP    GEOM    SYMINP    ZMAT    AOBASIS   BASIS     P2S    ABASIS      S 
                                         1400     1410     1200     1210     1080     1600     1650     1300     1700     1800   
                                           T        V       H0       H01     AOSYM     SMH    MOLCAS    ERIS     OPER     GRID   

              2       5        2.99       700     1000      520     1800     2200   
                                         GEOM     BASIS   MCVARS    GRID      UKS  

 PROGRAMS   *        TOTAL      IBBA       UKS       INT
 CPU TIMES  *        10.51      0.03     10.00      0.33
 REAL TIME  *        15.80 SEC
 DISK USED  *        35.64 MB      
 **********************************************************************************************************************************
 Molecular orbitals read from record     2200.2  Type=UKS/LOCAL(IBO)  
 Occupation numbers read from record     2200.2  Type=UKS/LOCAL(IBO)  
 Orbital energies read from record       2200.2  Type=UKS/LOCAL(IBO)  
 Redundancy group numbers read from rec  2200.2  Type=UKS/BETA (state 1.1)

 IBBA/STO-3G energy=      0.000000000000

        UKS-SCF 
   -191.82228189
 **********************************************************************************************************************************
 Molpro calculation terminated
