
 Primary working directories    : /tmp/sb13343
 Secondary working directories  : /tmp/sb13343
 Wavefunction directory         : /panfs/panasas01/chem/sb13343/wfu/
 Main file repository           : /tmp/sb13343/

 SHA1      : b4a5b34a9e711420743f49e6833241d17c61fb3c
 NAME      : 2099.9.b4a5b34
 ARCHNAME  : linux/x86_64_openmp
 FC        : /cm/shared/languages/GCC-6.1/bin/gfortran
 BLASLIB   : -lblas
 id        : simonbennie

 Nodes     nprocs
 node32-030    1

 Using customized tuning parameters: mindgm=1; mindgv=20; mindgc=4; mindgr=1; noblas=0; minvec=7
 default implementation of scratch files=df  

 memory,500,m
 geomtyp=xyz
 nosym
 noorient
 geometry={
 C          0.00000        0.00000        0.00000
 O          0.00000        0.00000        1.40962
 C          1.30608        0.00000        1.95787
 C          1.19221        0.00000        3.47353
 H          2.18666        0.00000        3.93332
 H         -1.04410        0.00000       -0.32474
 H          0.50079       -0.89267       -0.41051
 H          0.50079        0.89267       -0.41051
 H          1.86435       -0.88728        1.61056
 H          1.86435        0.88728        1.61056
 H          0.64981       -0.88690        3.81673
 H          0.64981        0.88690        3.81673
 }
 basis={ default,svp }
 {ks,SOGGA11-X,direct;wf,34,1,0}
 {ibba,bonds=1}

 Variables initialized (895), CPU time= 0.01 sec
 Commands  initialized (725), CPU time= 0.01 sec, 591 directives.
 Default parameters read. Elapsed time= 0.10 sec

 Checking input...
 Passed
1


                                         ***  PROGRAM SYSTEM MOLPRO  ***
                                       Copyright, TTI GmbH Stuttgart, 2015
                                    Version 2099.9 linked May 26 2017 16:03:21


 **********************************************************************************************************************************
 LABEL *                                                                                 
  64 bit serial version                                                                  DATE: 08-Jun-17          TIME: 10:23:43  
 **********************************************************************************************************************************

 SHA1:             b4a5b34a9e711420743f49e6833241d17c61fb3c
 **********************************************************************************************************************************
 SETTING GEOMTYP        =    XYZ

 Variable memory set to  500000000 words,  buffer space 

 ZSYMEL=NOSYM

 SETTING BASIS          =    SVP


 Recomputing integrals since basis changed


 Using spherical harmonics

 Library entry C      S def2-SVP             selected for orbital group  1
 Library entry C      P def2-SVP             selected for orbital group  1
 Library entry C      D def2-SVP             selected for orbital group  1
 Library entry O      S def2-SVP             selected for orbital group  2
 Library entry O      P def2-SVP             selected for orbital group  2
 Library entry O      D def2-SVP             selected for orbital group  2
 Library entry H      S def2-SVP             selected for orbital group  4
 Library entry H      P def2-SVP             selected for orbital group  4


 PROGRAM * SEWARD (Integral evaluation for generally contracted gaussian basis sets)     Author: Roland Lindh, 1990

 Geometry written to block  1 of record 700


 Point group  C1  



 ATOMIC COORDINATES

 NR  ATOM    CHARGE       X              Y              Z

   1  C       6.00    0.000000000    0.000000000    0.000000000
   2  O       8.00    0.000000000    0.000000000    2.663795740
   3  C       6.00    2.468133497    0.000000000    3.699838088
   4  C       6.00    2.252950383    0.000000000    6.564020385
   5  H       1.00    4.132188528    0.000000000    7.432897560
   6  H       1.00   -1.973063047    0.000000000   -0.613669662
   7  H       1.00    0.946355946   -1.686901820   -0.775751471
   8  H       1.00    0.946355946    1.686901820   -0.775751471
   9  H       1.00    3.523110900   -1.676716196    3.043517307
  10  H       1.00    3.523110900    1.676716196    3.043517307
  11  H       1.00    1.227962933   -1.675998100    7.212574391
  12  H       1.00    1.227962933    1.675998100    7.212574391

 Bond lengths in Bohr (Angstrom)

 1-2  2.663795740  1-6  2.066293358  1-7  2.083990804  1-8  2.083990804  2-3  2.676764223
     ( 1.409620000)     ( 1.093435356)     ( 1.102800441)     ( 1.102800441)     ( 1.416482626)

  3- 4  2.872254168   3- 9  2.086890388   3-10  2.086890388   4- 5  2.070382464   4-11  2.068862297
       ( 1.519931450)       ( 1.104334835)       ( 1.104334835)       ( 1.095599218)       ( 1.094794780)

  4-12  2.068862297
       ( 1.094794780)

 Bond angles

  1-2-3  112.77108340   2-1-6  107.27693969   2-1-7  111.85402987   2-1-8  111.85402987

  2- 3- 4  108.47458109   2- 3- 9  110.14508041   2- 3-10  110.14508041   3- 4- 5  110.51724552

  3- 4-11  110.47015208   3- 4-12  110.47015208   4- 3- 9  110.57823876   4- 3-10  110.57823876

  5- 4-11  108.55021133   5- 4-12  108.55021133   6- 1- 7  108.84842497   6- 1- 8  108.84842497

  7- 1- 8  108.08590744   9- 3-10  106.92203462  11- 4-12  108.21261054

 NUCLEAR CHARGE:                   34
 NUMBER OF PRIMITIVE AOS:         156
 NUMBER OF SYMMETRY AOS:          152
 NUMBER OF CONTRACTIONS:           96   (  96A   )
 NUMBER OF CORE ORBITALS:           4   (   4A   )
 NUMBER OF VALENCE ORBITALS:       24   (  24A   )


 NUCLEAR REPULSION ENERGY  133.31979421


 Eigenvalues of metric

         1 0.364E-02 0.952E-02 0.147E-01 0.282E-01 0.312E-01 0.319E-01 0.432E-01 0.449E-01


 Contracted 2-electron integrals neglected if value below      1.0D-11
 AO integral compression algorithm  1   Integral accuracy      1.0D-11

     37.487 MB (compressed) written to integral file ( 40.8%)


 NUMBER OF SORTED TWO-ELECTRON INTEGRALS:   10841496.     BUFFER LENGTH:  32768
 NUMBER OF SEGMENTS:   1  SEGMENT LENGTH:   10841496      RECORD LENGTH: 524288

 Memory used in sort:      11.40 MW

 SORT1 READ    11483613. AND WROTE     8333550. INTEGRALS IN     24 RECORDS. CPU TIME:     0.14 SEC, REAL TIME:     0.25 SEC
 SORT2 READ     8333550. AND WROTE    10841496. INTEGRALS IN    143 RECORDS. CPU TIME:     0.29 SEC, REAL TIME:     0.35 SEC

 FILE SIZES:   FILE 1:    68.0 MBYTE,  FILE 4:   100.7 MBYTE,   TOTAL:    168.7 MBYTE

 OPERATOR DM      FOR CENTER  0  COORDINATES:    0.000000    0.000000    0.000000


 **********************************************************************************************************************************
 DATASETS  * FILE   NREC   LENGTH (MB)   RECORD NAMES
              1      19       62.89       500      610      700      900      950      970     1000      129      960     1100   
                                          VAR    BASINP    GEOM    SYMINP    ZMAT    AOBASIS   BASIS     P2S    ABASIS      S 
                                         1400     1410     1200     1210     1080     1600     1650     1300     1700   
                                           T        V       H0       H01     AOSYM     SMH    MOLCAS    ERIS     OPER   

 PROGRAMS   *        TOTAL       INT
 CPU TIMES  *         2.03      1.89
 REAL TIME  *         2.72 SEC
 DISK USED  *       169.15 MB      
 **********************************************************************************************************************************

 Density functional group SOGGA11-X=XC-SOGGA11-X
 Functional: XC-SOGGA11-X(via MFM 1.6)                                         Gradient terms: 1
 Use grid at  1800.2


 Exact exchange will be calculated, factor:  0.4015

 Functional: XC-SOGGA11-X              Factor:  1.0000

 Generated new metagrid on record  1800.2 with target accuracy 1.0D-06 and 44796 points in CPU time    1.1
 Computed new grid on record 1800.1 in CPU time    1.2
   80368 words reserved for DFT integration

 PROGRAM * RKS-SCF (Restricted closed shell Kohn-Sham)     Authors: W. Meyer, H.-J. Werner, P.J. Knowles, 1993

 NUMBER OF ELECTRONS:      17+   17-    SPACE SYMMETRY=1    SPIN SYMMETRY: Singlet 
 CONVERGENCE THRESHOLDS:    1.00E-05 (Density)    1.00E-06 (Energy)
 MAX. NUMBER OF ITERATIONS:       60
 INTERPOLATION TYPE:            DIIS
 INTERPOLATION STEPS:              2 (START)      1 (STEP)
 LEVEL SHIFTS:                  0.00 (CLOSED)  0.00 (OPEN) 



 Use fine grid record 1800.2 for energy threshold  1.0D-06
 Orbital guess generated from atomic densities. Full valence occupancy:   17

 Molecular orbital dump at record        2100.2

 Initial occupancy:  17

 ITERATION    DDIFF          GRAD             ENERGY        2-EL.EN.            DIPOLE MOMENTS         DIIS   ORB.
    1      0.000D+00      0.000D+00      -194.08651014    437.361248    0.75386   -0.00000   -0.46334    0    start
    2      0.000D+00      0.636D-02      -194.10113675    425.437814    0.11497   -0.00000   -0.07882    1    diag
    3      0.110D-01      0.598D-02      -194.14588691    431.366413    0.45702   -0.00000   -0.28857    2    diag
    4      0.543D-02      0.781D-03      -194.14639402    431.170787    0.41334   -0.00000   -0.26396    3    diag
    5      0.667D-03      0.317D-03      -194.14650581    431.157775    0.42504   -0.00000   -0.26861    4    diag
    6      0.251D-03      0.463D-04      -194.14650828    431.168597    0.42324   -0.00000   -0.26878    5    diag
    7      0.455D-04      0.137D-04      -194.14650852    431.169656    0.42367   -0.00000   -0.26857    6    diag
    8      0.119D-04      0.225D-05      -194.14650853    431.169641    0.42361   -0.00000   -0.26860    7    diag
    9      0.222D-05      0.295D-06      -194.14650853    431.169569    0.42360   -0.00000   -0.26859    0    orth

 Final occupancy:  17

 !RKS STATE 1.1 Energy               -194.146508528645
 Nuclear energy                       133.31979421
 One-electron energy                 -525.95390096
 Two-electron energy                  215.58478470
 SCF exchange energy                  -26.57671399     Factor= 0.4015
 Density functional                   -17.09718648     XC-SOGGA11-X=-17.09718648
 Virial quotient                       -1.01096777
 !RKS STATE 1.1 Dipole moment           0.42359981    -0.00000000    -0.26859282
 Dipole moment /Debye                   1.07661281    -0.00000000    -0.68265015

 Orbital energies:

         1.1          2.1          3.1          4.1          5.1          6.1          7.1          8.1          9.1         10.1
    -19.503173   -10.498017   -10.495182   -10.444647    -1.124091    -0.835925    -0.740499    -0.668003    -0.540956    -0.536496

        11.1         12.1         13.1         14.1         15.1         16.1         17.1         18.1         19.1
     -0.504971    -0.468898    -0.430323    -0.408983    -0.398688    -0.365234    -0.304398     0.090996     0.113215

 HOMO     17.1    -0.304398 =      -8.2831eV
 LUMO     18.1     0.090996 =       2.4761eV
 LUMO-HOMO         0.395394 =      10.7592eV


 **********************************************************************************************************************************
 DATASETS  * FILE   NREC   LENGTH (MB)   RECORD NAMES
              1      20       64.33       500      610      700      900      950      970     1000      129      960     1100   
                                          VAR    BASINP    GEOM    SYMINP    ZMAT    AOBASIS   BASIS     P2S    ABASIS      S 
                                         1400     1410     1200     1210     1080     1600     1650     1300     1700     1800   
                                           T        V       H0       H01     AOSYM     SMH    MOLCAS    ERIS     OPER     GRID   

              2       5        3.14       700     1000      520     1800     2100   
                                         GEOM     BASIS   MCVARS    GRID      RKS  

 PROGRAMS   *        TOTAL        KS       INT
 CPU TIMES  *        11.04      9.00      1.89
 REAL TIME  *        12.45 SEC
 DISK USED  *       169.15 MB      
 **********************************************************************************************************************************


 PROGRAM * Intrinsic Basis Bonding Analysis (IBBA)          Author: G. Knizia

 Molecular orbitals read from record     2100.2  Type=RKS/CANONICAL (state 1.1)
 Fock matrix read from record            2100.2  Type=RKS/TOTAL (state 1.1)
 Orbital energies read from record       2100.2  Type=RKS/CANONICAL (state 1.1)
 Density matrix read from record         2100.2  Type=RKS/CHARGE (state 1.1)

 Number of core orbitals:           4 (   4 )
 Number of closed-shell orbitals:  13 (  13 )

 Basis set MINAO-AUTO-PP generated.      Number of basis functions:   28 

 Polarized AO type:                A = (O Ot + (1-O)(1-Ot)) P12
 Orthogonalization method:         Symmetric (Loewdin)
 Localization functional:          L = sum[A,i] <i|n_A|i>^4 -> max

 Localization group 1:  17 orbitals, occupancy  2.000
 Iterative localization: IB/PM,    7 iter; Final gradient 0.23E-09

 Bond order analysis:       [THRPRINT= 0.020]

   CEN ATOM   CEN ATOM     WIBERG.BO      RENORM.BO
     1   C  -   2   O       0.982906       1.018625
     1   C  -   6   H       0.961144       0.978890
     1   C  -   7   H       0.953570       0.941851
     1   C  -   8   H       0.953570       0.941851

     2   O  -   1   C       0.982906       1.018625
     2   O  -   3   C       0.963182       0.990781
     2   O  -   8   H       0.031093       0.018345
     2   O  -   7   H       0.031093       0.018345
     2   O  -  10   H       0.028171       0.016593
     2   O  -   9   H       0.028171       0.016593

     3   C  -   4   C       1.028825       1.021123
     3   C  -   2   O       0.963182       0.990781
     3   C  -   9   H       0.941784       0.930225
     3   C  -  10   H       0.941784       0.930225

     4   C  -   3   C       1.028825       1.021123
     4   C  -   5   H       0.964402       0.989600
     4   C  -  12   H       0.961219       0.982532
     4   C  -  11   H       0.961219       0.982532

     5   H  -   4   C       0.964402       0.989600

     6   H  -   1   C       0.961144       0.978890

     7   H  -   1   C       0.953570       0.941851
     7   H  -   2   O       0.031093       0.018345

     8   H  -   1   C       0.953570       0.941851
     8   H  -   2   O       0.031093       0.018345

     9   H  -   3   C       0.941784       0.930225
     9   H  -   2   O       0.028171       0.016593

    10   H  -   3   C       0.941784       0.930225
    10   H  -   2   O       0.028171       0.016593

    11   H  -   4   C       0.961219       0.982532

    12   H  -   4   C       0.961219       0.982532


 Valency analysis:

   CEN ATOM   TOT.VALENCE
     1   C       3.869917
     2   O       2.096250
     3   C       3.897313
     4   C       3.941022
     5   H       0.983013
     6   H       0.979561
     7   H       0.988642
     8   H       0.988642
     9   H       0.989956
    10   H       0.989956
    11   H       0.981430
    12   H       0.981430

 Total charge composition:

   CEN ATOM         s          p       ELECTRONS ->P.CHARGE
     1   C       3.01999    3.14075      6.16073   -0.16073
     2   O       3.59731    4.80399      8.40130   -0.40130
     3   C       2.98671    3.02338      6.01010   -0.01010
     4   C       3.02294    3.36437      6.38731   -0.38731
     5   H       0.86966                 0.86966    0.13034
     6   H       0.85704                 0.85704    0.14296
     7   H       0.89343                 0.89343    0.10657
     8   H       0.89343                 0.89343    0.10657
     9   H       0.89978                 0.89978    0.10022
    10   H       0.89978                 0.89978    0.10022
    11   H       0.86373                 0.86373    0.13627
    12   H       0.86373                 0.86373    0.13627

 Total charge composition, AO contributions:

   CEN ATOM SHL      SPHERICAL COMPONENTS
     1   C  1s       1.99117
     1   C  2s       1.02882
     1   C  2p       1.17688    1.15682    0.80704

     2   O  1s       1.99693
     2   O  2s       1.60038
     2   O  2p       1.52384    1.91462    1.36552

     3   C  1s       1.99143
     3   C  2s       0.99529
     3   C  2p       0.85322    1.14894    1.02122

     4   C  1s       1.99034
     4   C  2s       1.03260
     4   C  2p       1.15475    1.16515    1.04446

     5   H  1s       0.86966

     6   H  1s       0.85704

     7   H  1s       0.89343

     8   H  1s       0.89343

     9   H  1s       0.89978

    10   H  1s       0.89978

    11   H  1s       0.86373

    12   H  1s       0.86373

 Summary of localized orbital composition:   [THRPRINT= 0.020]

   ORB  GRP  ORB.ENERGY      CENTERS/CHARGES
     1   1   -19.350688      O  2   2.000
     2   1   -10.390748      C  3   2.000
     3   1   -10.382369      C  1   2.000
     4   1   -10.325290      C  4   2.000
     5   1    -0.832975      O  2   1.255   C  1   0.736
     6   1    -0.824908      O  2   1.264   C  3   0.724
     7   1    -0.646987      C  3   1.005   C  4   0.988
     8   1    -0.624838      O  2   1.964   (other: 0.036)
     9   1    -0.576051      C  1   1.144   H  6   0.850
    10   1    -0.575948      C  1   1.123   H  8   0.875
    11   1    -0.575948      C  1   1.123   H  7   0.875
    12   1    -0.572247      C  3   1.112   H 10   0.878
    13   1    -0.572247      C  3   1.112   H  9   0.878
    14   1    -0.555698      C  4   1.122   H  5   0.863
    15   1    -0.549634      C  4   1.132   H 11   0.857
    16   1    -0.549634      C  4   1.132   H 12   0.857
    17   1    -0.362274      O  2   1.914   (other: 0.086)

 Localized orbitals saved to record      2100.2  (orbital set 2)


 **********************************************************************************************************************************
 DATASETS  * FILE   NREC   LENGTH (MB)   RECORD NAMES
              1      20       64.33       500      610      700      900      950      970     1000      129      960     1100   
                                          VAR    BASINP    GEOM    SYMINP    ZMAT    AOBASIS   BASIS     P2S    ABASIS      S 
                                         1400     1410     1200     1210     1080     1600     1650     1300     1700     1800   
                                           T        V       H0       H01     AOSYM     SMH    MOLCAS    ERIS     OPER     GRID   

              2       5        3.21       700     1000      520     1800     2100   
                                         GEOM     BASIS   MCVARS    GRID      RKS  

 PROGRAMS   *        TOTAL      IBBA        KS       INT
 CPU TIMES  *        11.07      0.02      9.00      1.89
 REAL TIME  *        12.57 SEC
 DISK USED  *       169.15 MB      
 **********************************************************************************************************************************
 Molecular orbitals read from record     2100.2  Type=RKS/LOCAL(IBO)  
 Occupation numbers read from record     2100.2  Type=RKS/LOCAL(IBO)  
 Orbital energies read from record       2100.2  Type=RKS/LOCAL(IBO)  
 Redundancy group numbers read from rec  2100.2  Type=RKS/LOCAL(IBO)  

 IBBA/SVP energy=      0.000000000000

        KS-SCF  
   -194.14650853
 **********************************************************************************************************************************
 Molpro calculation terminated
