
 Primary working directories    : /tmp/sb13343
 Secondary working directories  : /tmp/sb13343
 Wavefunction directory         : /panfs/panasas01/chem/sb13343/wfu/
 Main file repository           : /tmp/sb13343/

 SHA1      : b4a5b34a9e711420743f49e6833241d17c61fb3c
 NAME      : 2099.9.b4a5b34
 ARCHNAME  : linux/x86_64_openmp
 FC        : /cm/shared/languages/GCC-6.1/bin/gfortran
 BLASLIB   : -lblas
 id        : simonbennie

 Nodes     nprocs
 node32-045    1

 Using customized tuning parameters: mindgm=1; mindgv=20; mindgc=4; mindgr=1; noblas=0; minvec=7
 default implementation of scratch files=df  

 memory,500,m
 geomtyp=xyz
 nosym
 noorient
 geometry={
 C          0.00000        0.00000        0.00000
 O          0.00000        0.00000        1.40962
 C          1.30608        0.00000        1.95787
 C          1.19221        0.00000        3.47353
 H          2.18666        0.00000        3.93332
 H         -1.04410        0.00000       -0.32474
 H          0.50079       -0.89267       -0.41051
 H          0.50079        0.89267       -0.41051
 H          1.86435       -0.88728        1.61056
 H          1.86435        0.88728        1.61056
 H          0.64981       -0.88690        3.81673
 H          0.64981        0.88690        3.81673
 }
 basis={ default,svp }
 {ks,M06,direct;wf,34,1,0}
 {ibba,bonds=1}

 Variables initialized (895), CPU time= 0.00 sec
 Commands  initialized (725), CPU time= 0.01 sec, 591 directives.
 Default parameters read. Elapsed time= 0.07 sec

 Checking input...
 Passed
1


                                         ***  PROGRAM SYSTEM MOLPRO  ***
                                       Copyright, TTI GmbH Stuttgart, 2015
                                    Version 2099.9 linked May 26 2017 16:03:21


 **********************************************************************************************************************************
 LABEL *                                                                                 
  64 bit serial version                                                                  DATE: 08-Jun-17          TIME: 10:15:11  
 **********************************************************************************************************************************

 SHA1:             b4a5b34a9e711420743f49e6833241d17c61fb3c
 **********************************************************************************************************************************
 SETTING GEOMTYP        =    XYZ

 Variable memory set to  500000000 words,  buffer space 

 ZSYMEL=NOSYM

 SETTING BASIS          =    SVP


 Recomputing integrals since basis changed


 Using spherical harmonics

 Library entry C      S def2-SVP             selected for orbital group  1
 Library entry C      P def2-SVP             selected for orbital group  1
 Library entry C      D def2-SVP             selected for orbital group  1
 Library entry O      S def2-SVP             selected for orbital group  2
 Library entry O      P def2-SVP             selected for orbital group  2
 Library entry O      D def2-SVP             selected for orbital group  2
 Library entry H      S def2-SVP             selected for orbital group  4
 Library entry H      P def2-SVP             selected for orbital group  4


 PROGRAM * SEWARD (Integral evaluation for generally contracted gaussian basis sets)     Author: Roland Lindh, 1990

 Geometry written to block  1 of record 700


 Point group  C1  



 ATOMIC COORDINATES

 NR  ATOM    CHARGE       X              Y              Z

   1  C       6.00    0.000000000    0.000000000    0.000000000
   2  O       8.00    0.000000000    0.000000000    2.663795740
   3  C       6.00    2.468133497    0.000000000    3.699838088
   4  C       6.00    2.252950383    0.000000000    6.564020385
   5  H       1.00    4.132188528    0.000000000    7.432897560
   6  H       1.00   -1.973063047    0.000000000   -0.613669662
   7  H       1.00    0.946355946   -1.686901820   -0.775751471
   8  H       1.00    0.946355946    1.686901820   -0.775751471
   9  H       1.00    3.523110900   -1.676716196    3.043517307
  10  H       1.00    3.523110900    1.676716196    3.043517307
  11  H       1.00    1.227962933   -1.675998100    7.212574391
  12  H       1.00    1.227962933    1.675998100    7.212574391

 Bond lengths in Bohr (Angstrom)

 1-2  2.663795740  1-6  2.066293358  1-7  2.083990804  1-8  2.083990804  2-3  2.676764223
     ( 1.409620000)     ( 1.093435356)     ( 1.102800441)     ( 1.102800441)     ( 1.416482626)

  3- 4  2.872254168   3- 9  2.086890388   3-10  2.086890388   4- 5  2.070382464   4-11  2.068862297
       ( 1.519931450)       ( 1.104334835)       ( 1.104334835)       ( 1.095599218)       ( 1.094794780)

  4-12  2.068862297
       ( 1.094794780)

 Bond angles

  1-2-3  112.77108340   2-1-6  107.27693969   2-1-7  111.85402987   2-1-8  111.85402987

  2- 3- 4  108.47458109   2- 3- 9  110.14508041   2- 3-10  110.14508041   3- 4- 5  110.51724552

  3- 4-11  110.47015208   3- 4-12  110.47015208   4- 3- 9  110.57823876   4- 3-10  110.57823876

  5- 4-11  108.55021133   5- 4-12  108.55021133   6- 1- 7  108.84842497   6- 1- 8  108.84842497

  7- 1- 8  108.08590744   9- 3-10  106.92203462  11- 4-12  108.21261054

 NUCLEAR CHARGE:                   34
 NUMBER OF PRIMITIVE AOS:         156
 NUMBER OF SYMMETRY AOS:          152
 NUMBER OF CONTRACTIONS:           96   (  96A   )
 NUMBER OF CORE ORBITALS:           4   (   4A   )
 NUMBER OF VALENCE ORBITALS:       24   (  24A   )


 NUCLEAR REPULSION ENERGY  133.31979421


 Eigenvalues of metric

         1 0.364E-02 0.952E-02 0.147E-01 0.282E-01 0.312E-01 0.319E-01 0.432E-01 0.449E-01


 Contracted 2-electron integrals neglected if value below      1.0D-11
 AO integral compression algorithm  1   Integral accuracy      1.0D-11

     37.487 MB (compressed) written to integral file ( 40.8%)


 NUMBER OF SORTED TWO-ELECTRON INTEGRALS:   10841496.     BUFFER LENGTH:  32768
 NUMBER OF SEGMENTS:   1  SEGMENT LENGTH:   10841496      RECORD LENGTH: 524288

 Memory used in sort:      11.40 MW

 SORT1 READ    11483613. AND WROTE     8333550. INTEGRALS IN     24 RECORDS. CPU TIME:     0.12 SEC, REAL TIME:     0.24 SEC
 SORT2 READ     8333550. AND WROTE    10841496. INTEGRALS IN    143 RECORDS. CPU TIME:     0.26 SEC, REAL TIME:     0.32 SEC

 FILE SIZES:   FILE 1:    68.0 MBYTE,  FILE 4:   100.7 MBYTE,   TOTAL:    168.7 MBYTE

 OPERATOR DM      FOR CENTER  0  COORDINATES:    0.000000    0.000000    0.000000


 **********************************************************************************************************************************
 DATASETS  * FILE   NREC   LENGTH (MB)   RECORD NAMES
              1      19       62.89       500      610      700      900      950      970     1000      129      960     1100   
                                          VAR    BASINP    GEOM    SYMINP    ZMAT    AOBASIS   BASIS     P2S    ABASIS      S 
                                         1400     1410     1200     1210     1080     1600     1650     1300     1700   
                                           T        V       H0       H01     AOSYM     SMH    MOLCAS    ERIS     OPER   

 PROGRAMS   *        TOTAL       INT
 CPU TIMES  *         1.75      1.61
 REAL TIME  *         2.35 SEC
 DISK USED  *       169.15 MB      
 **********************************************************************************************************************************

 Density functional group M06=XC-M06
 Functional: XC-M06(via MFM 1.6)                                               Gradient terms: 1
 Use grid at  1800.2


 Exact exchange will be calculated, factor:  0.2700

 Functional: XC-M06                    Factor:  1.0000

 Generated new metagrid on record  1800.2 with target accuracy 1.0D-06 and 44796 points in CPU time    1.1
 Computed new grid on record 1800.1 in CPU time    1.2
   80368 words reserved for DFT integration

 PROGRAM * RKS-SCF (Restricted closed shell Kohn-Sham)     Authors: W. Meyer, H.-J. Werner, P.J. Knowles, 1993

 NUMBER OF ELECTRONS:      17+   17-    SPACE SYMMETRY=1    SPIN SYMMETRY: Singlet 
 CONVERGENCE THRESHOLDS:    1.00E-05 (Density)    1.00E-06 (Energy)
 MAX. NUMBER OF ITERATIONS:       60
 INTERPOLATION TYPE:            DIIS
 INTERPOLATION STEPS:              2 (START)      1 (STEP)
 LEVEL SHIFTS:                  0.00 (CLOSED)  0.00 (OPEN) 



 Use fine grid record 1800.2 for energy threshold  1.0D-06
 Orbital guess generated from atomic densities. Full valence occupancy:   17

 Molecular orbital dump at record        2100.2

 Initial occupancy:  17

 ITERATION    DDIFF          GRAD             ENERGY        2-EL.EN.            DIPOLE MOMENTS         DIIS   ORB.
    1      0.000D+00      0.000D+00      -193.94209568    448.348080    0.81266   -0.00000   -0.50697    0    start
    2      0.000D+00      0.888D-02      -193.90041408    427.461345   -0.20687    0.00000    0.10422    1    diag
    3      0.194D-01      0.109D-01      -194.05690847    439.040843    0.46761   -0.00000   -0.28284    2    diag
    4      0.113D-01      0.130D-02      -194.05852759    438.804039    0.38628    0.00000   -0.24031    3    diag
    5      0.108D-02      0.440D-03      -194.05872068    438.814099    0.40162    0.00000   -0.24718    4    diag
    6      0.334D-03      0.538D-04      -194.05872275    438.830466    0.40151    0.00000   -0.24792    5    diag
    7      0.728D-04      0.327D-04      -194.05872412    438.825292    0.40217    0.00000   -0.24764    6    diag
    8      0.266D-04      0.434D-05      -194.05872414    438.823365    0.40183    0.00000   -0.24762    7    diag
    9      0.392D-05      0.427D-06      -194.05872414    438.823301    0.40188    0.00000   -0.24760    0    orth

 Final occupancy:  17

 !RKS STATE 1.1 Energy               -194.058724141351
 Nuclear energy                       133.31979421
 One-electron energy                 -526.27052055
 Two-electron energy                  219.41165048
 SCF exchange energy                  -26.57360841     Factor= 0.2700
 Density functional                   -20.51964829     XC-M06=-20.51964829
 Virial quotient                       -1.01060690
 !RKS STATE 1.1 Dipole moment           0.40188066     0.00000000    -0.24759715
 Dipole moment /Debye                   1.02141185     0.00000000    -0.62928797

 Orbital energies:

         1.1          2.1          3.1          4.1          5.1          6.1          7.1          8.1          9.1         10.1
    -19.209293   -10.292130   -10.288090   -10.237141    -1.041967    -0.763029    -0.674329    -0.606739    -0.497828    -0.489074

        11.1         12.1         13.1         14.1         15.1         16.1         17.1         18.1         19.1
     -0.461812    -0.426351    -0.390830    -0.373823    -0.360134    -0.328454    -0.268817     0.068608     0.090050

 HOMO     17.1    -0.268817 =      -7.3149eV
 LUMO     18.1     0.068608 =       1.8669eV
 LUMO-HOMO         0.337425 =       9.1818eV


 **********************************************************************************************************************************
 DATASETS  * FILE   NREC   LENGTH (MB)   RECORD NAMES
              1      20       64.33       500      610      700      900      950      970     1000      129      960     1100   
                                          VAR    BASINP    GEOM    SYMINP    ZMAT    AOBASIS   BASIS     P2S    ABASIS      S 
                                         1400     1410     1200     1210     1080     1600     1650     1300     1700     1800   
                                           T        V       H0       H01     AOSYM     SMH    MOLCAS    ERIS     OPER     GRID   

              2       5        3.14       700     1000      520     1800     2100   
                                         GEOM     BASIS   MCVARS    GRID      RKS  

 PROGRAMS   *        TOTAL        KS       INT
 CPU TIMES  *        19.39     17.64      1.61
 REAL TIME  *        20.77 SEC
 DISK USED  *       169.15 MB      
 **********************************************************************************************************************************


 PROGRAM * Intrinsic Basis Bonding Analysis (IBBA)          Author: G. Knizia

 Molecular orbitals read from record     2100.2  Type=RKS/CANONICAL (state 1.1)
 Fock matrix read from record            2100.2  Type=RKS/TOTAL (state 1.1)
 Orbital energies read from record       2100.2  Type=RKS/CANONICAL (state 1.1)
 Density matrix read from record         2100.2  Type=RKS/CHARGE (state 1.1)

 Number of core orbitals:           4 (   4 )
 Number of closed-shell orbitals:  13 (  13 )

 Basis set MINAO-AUTO-PP generated.      Number of basis functions:   28 

 Polarized AO type:                A = (O Ot + (1-O)(1-Ot)) P12
 Orthogonalization method:         Symmetric (Loewdin)
 Localization functional:          L = sum[A,i] <i|n_A|i>^4 -> max

 Localization group 1:  17 orbitals, occupancy  2.000
 Iterative localization: IB/PM,    7 iter; Final gradient 0.27E-09

 Bond order analysis:       [THRPRINT= 0.020]

   CEN ATOM   CEN ATOM     WIBERG.BO      RENORM.BO
     1   C  -   2   O       0.984546       1.020093
     1   C  -   6   H       0.957930       0.977201
     1   C  -   7   H       0.949619       0.937306
     1   C  -   8   H       0.949619       0.937306

     2   O  -   1   C       0.984546       1.020093
     2   O  -   3   C       0.963495       0.991014
     2   O  -   7   H       0.033522       0.019923
     2   O  -   8   H       0.033522       0.019923
     2   O  -  10   H       0.030349       0.017960
     2   O  -   9   H       0.030349       0.017960

     3   C  -   4   C       1.029084       1.021617
     3   C  -   2   O       0.963495       0.991014
     3   C  -   9   H       0.937721       0.925222
     3   C  -  10   H       0.937721       0.925222

     4   C  -   3   C       1.029084       1.021617
     4   C  -   5   H       0.962342       0.989480
     4   C  -  12   H       0.958969       0.981779
     4   C  -  11   H       0.958969       0.981779

     5   H  -   4   C       0.962342       0.989480

     6   H  -   1   C       0.957930       0.977201

     7   H  -   1   C       0.949619       0.937306
     7   H  -   2   O       0.033522       0.019923

     8   H  -   1   C       0.949619       0.937306
     8   H  -   2   O       0.033522       0.019923

     9   H  -   3   C       0.937721       0.925222
     9   H  -   2   O       0.030349       0.017960

    10   H  -   3   C       0.937721       0.925222
    10   H  -   2   O       0.030349       0.017960

    11   H  -   4   C       0.958969       0.981779

    12   H  -   4   C       0.958969       0.981779


 Valency analysis:

   CEN ATOM   TOT.VALENCE
     1   C       3.860840
     2   O       2.109597
     3   C       3.891111
     4   C       3.936208
     5   H       0.981675
     6   H       0.977924
     7   H       0.987687
     8   H       0.987687
     9   H       0.989431
    10   H       0.989431
    11   H       0.980405
    12   H       0.980405

 Total charge composition:

   CEN ATOM         s          p       ELECTRONS ->P.CHARGE
     1   C       3.01346    3.16208      6.17553   -0.17553
     2   O       3.59844    4.80324      8.40168   -0.40168
     3   C       2.97732    3.03844      6.01577   -0.01577
     4   C       3.01678    3.38168      6.39846   -0.39846
     5   H       0.86463                 0.86463    0.13537
     6   H       0.85142                 0.85142    0.14858
     7   H       0.88904                 0.88904    0.11096
     8   H       0.88904                 0.88904    0.11096
     9   H       0.89720                 0.89720    0.10280
    10   H       0.89720                 0.89720    0.10280
    11   H       0.86002                 0.86002    0.13998
    12   H       0.86002                 0.86002    0.13998

 Total charge composition, AO contributions:

   CEN ATOM SHL      SPHERICAL COMPONENTS
     1   C  1s       1.99194
     1   C  2s       1.02151
     1   C  2p       1.18647    1.16617    0.80944

     2   O  1s       1.99713
     2   O  2s       1.60131
     2   O  2p       1.52641    1.90615    1.37068

     3   C  1s       1.99220
     3   C  2s       0.98512
     3   C  2p       0.85502    1.15489    1.02854

     4   C  1s       1.99117
     4   C  2s       1.02561
     4   C  2p       1.16083    1.17041    1.05043

     5   H  1s       0.86463

     6   H  1s       0.85142

     7   H  1s       0.88904

     8   H  1s       0.88904

     9   H  1s       0.89720

    10   H  1s       0.89720

    11   H  1s       0.86002

    12   H  1s       0.86002

 Summary of localized orbital composition:   [THRPRINT= 0.020]

   ORB  GRP  ORB.ENERGY      CENTERS/CHARGES
     1   1   -19.062746      O  2   2.000
     2   1   -10.188386      C  3   2.000
     3   1   -10.178821      C  1   2.000
     4   1   -10.121604      C  4   2.000
     5   1    -0.776331      O  2   1.260   C  1   0.731
     6   1    -0.767994      O  2   1.269   C  3   0.718
     7   1    -0.597665      C  3   1.006   C  4   0.986
     8   1    -0.567970      O  2   1.962   (other: 0.038)
     9   1    -0.525601      C  1   1.129   H  8   0.869
    10   1    -0.525601      C  1   1.129   H  7   0.869
    11   1    -0.525478      C  1   1.150   H  6   0.844
    12   1    -0.520923      C  3   1.116   H 10   0.874
    13   1    -0.520923      C  3   1.116   H  9   0.874
    14   1    -0.506440      C  4   1.127   H  5   0.858
    15   1    -0.500206      C  4   1.136   H 11   0.853
    16   1    -0.500206      C  4   1.136   H 12   0.853
    17   1    -0.322944      O  2   1.906   (other: 0.094)

 Localized orbitals saved to record      2100.2  (orbital set 2)


 **********************************************************************************************************************************
 DATASETS  * FILE   NREC   LENGTH (MB)   RECORD NAMES
              1      20       64.33       500      610      700      900      950      970     1000      129      960     1100   
                                          VAR    BASINP    GEOM    SYMINP    ZMAT    AOBASIS   BASIS     P2S    ABASIS      S 
                                         1400     1410     1200     1210     1080     1600     1650     1300     1700     1800   
                                           T        V       H0       H01     AOSYM     SMH    MOLCAS    ERIS     OPER     GRID   

              2       5        3.21       700     1000      520     1800     2100   
                                         GEOM     BASIS   MCVARS    GRID      RKS  

 PROGRAMS   *        TOTAL      IBBA        KS       INT
 CPU TIMES  *        19.42      0.03     17.64      1.61
 REAL TIME  *        20.88 SEC
 DISK USED  *       169.15 MB      
 **********************************************************************************************************************************
 Molecular orbitals read from record     2100.2  Type=RKS/LOCAL(IBO)  
 Occupation numbers read from record     2100.2  Type=RKS/LOCAL(IBO)  
 Orbital energies read from record       2100.2  Type=RKS/LOCAL(IBO)  
 Redundancy group numbers read from rec  2100.2  Type=RKS/LOCAL(IBO)  

 IBBA/SVP energy=      0.000000000000

        KS-SCF  
   -194.05872414
 **********************************************************************************************************************************
 Molpro calculation terminated
