
 Primary working directories    : /tmp/sb13343
 Secondary working directories  : /tmp/sb13343
 Wavefunction directory         : /panfs/panasas01/chem/sb13343/wfu/
 Main file repository           : /tmp/sb13343/

 SHA1      : b4a5b34a9e711420743f49e6833241d17c61fb3c
 NAME      : 2099.9.b4a5b34
 ARCHNAME  : linux/x86_64_openmp
 FC        : /cm/shared/languages/GCC-6.1/bin/gfortran
 BLASLIB   : -lblas
 id        : simonbennie

 Nodes     nprocs
 node32-030    1

 Using customized tuning parameters: mindgm=1; mindgv=20; mindgc=4; mindgr=1; noblas=0; minvec=7
 default implementation of scratch files=df  

 memory,500,m
 geomtyp=xyz
 nosym
 noorient
 geometry={
 C          0.00000        0.00000        0.00000
 O          0.00000        0.00000        1.40962
 C          1.30608        0.00000        1.95787
 C          1.19221        0.00000        3.47353
 H          2.18666        0.00000        3.93332
 H         -1.04410        0.00000       -0.32474
 H          0.50079       -0.89267       -0.41051
 H          0.50079        0.89267       -0.41051
 H          1.86435       -0.88728        1.61056
 H          1.86435        0.88728        1.61056
 H          0.64981       -0.88690        3.81673
 H          0.64981        0.88690        3.81673
 }
 basis={ default,sto-3g }
 {uks,M08-SO,direct;wf,34,1,0}
 {ibba,bonds=1}

 Variables initialized (895), CPU time= 0.01 sec
 Commands  initialized (725), CPU time= 0.01 sec, 591 directives.
 Default parameters read. Elapsed time= 0.08 sec

 Checking input...
 Passed
1


                                         ***  PROGRAM SYSTEM MOLPRO  ***
                                       Copyright, TTI GmbH Stuttgart, 2015
                                    Version 2099.9 linked May 26 2017 16:03:21


 **********************************************************************************************************************************
 LABEL *                                                                                 
  64 bit serial version                                                                  DATE: 08-Jun-17          TIME: 10:03:59  
 **********************************************************************************************************************************

 SHA1:             b4a5b34a9e711420743f49e6833241d17c61fb3c
 **********************************************************************************************************************************
 SETTING GEOMTYP        =    XYZ

 Variable memory set to  500000000 words,  buffer space 

 ZSYMEL=NOSYM

 SETTING BASIS          =    STO-3G


 Recomputing integrals since basis changed


 Using spherical harmonics

 Library entry C      S STO-3G               selected for orbital group  1
 Library entry C      P STO-3G               selected for orbital group  1
 Library entry O      S STO-3G               selected for orbital group  2
 Library entry O      P STO-3G               selected for orbital group  2
 Library entry H      S STO-3G               selected for orbital group  4


 PROGRAM * SEWARD (Integral evaluation for generally contracted gaussian basis sets)     Author: Roland Lindh, 1990

 Geometry written to block  1 of record 700


 Point group  C1  



 ATOMIC COORDINATES

 NR  ATOM    CHARGE       X              Y              Z

   1  C       6.00    0.000000000    0.000000000    0.000000000
   2  O       8.00    0.000000000    0.000000000    2.663795740
   3  C       6.00    2.468133497    0.000000000    3.699838088
   4  C       6.00    2.252950383    0.000000000    6.564020385
   5  H       1.00    4.132188528    0.000000000    7.432897560
   6  H       1.00   -1.973063047    0.000000000   -0.613669662
   7  H       1.00    0.946355946   -1.686901820   -0.775751471
   8  H       1.00    0.946355946    1.686901820   -0.775751471
   9  H       1.00    3.523110900   -1.676716196    3.043517307
  10  H       1.00    3.523110900    1.676716196    3.043517307
  11  H       1.00    1.227962933   -1.675998100    7.212574391
  12  H       1.00    1.227962933    1.675998100    7.212574391

 Bond lengths in Bohr (Angstrom)

 1-2  2.663795740  1-6  2.066293358  1-7  2.083990804  1-8  2.083990804  2-3  2.676764223
     ( 1.409620000)     ( 1.093435356)     ( 1.102800441)     ( 1.102800441)     ( 1.416482626)

  3- 4  2.872254168   3- 9  2.086890388   3-10  2.086890388   4- 5  2.070382464   4-11  2.068862297
       ( 1.519931450)       ( 1.104334835)       ( 1.104334835)       ( 1.095599218)       ( 1.094794780)

  4-12  2.068862297
       ( 1.094794780)

 Bond angles

  1-2-3  112.77108340   2-1-6  107.27693969   2-1-7  111.85402987   2-1-8  111.85402987

  2- 3- 4  108.47458109   2- 3- 9  110.14508041   2- 3-10  110.14508041   3- 4- 5  110.51724552

  3- 4-11  110.47015208   3- 4-12  110.47015208   4- 3- 9  110.57823876   4- 3-10  110.57823876

  5- 4-11  108.55021133   5- 4-12  108.55021133   6- 1- 7  108.84842497   6- 1- 8  108.84842497

  7- 1- 8  108.08590744   9- 3-10  106.92203462  11- 4-12  108.21261054

 NUCLEAR CHARGE:                   34
 NUMBER OF PRIMITIVE AOS:          84
 NUMBER OF SYMMETRY AOS:           84
 NUMBER OF CONTRACTIONS:           28   (  28A   )
 NUMBER OF CORE ORBITALS:           4   (   4A   )
 NUMBER OF VALENCE ORBITALS:       24   (  24A   )


 NUCLEAR REPULSION ENERGY  133.31979421


 Eigenvalues of metric

         1 0.212E+00 0.234E+00 0.263E+00 0.352E+00 0.360E+00 0.368E+00 0.374E+00 0.394E+00


 Contracted 2-electron integrals neglected if value below      1.0D-11
 AO integral compression algorithm  1   Integral accuracy      1.0D-11

     0.786 MB (compressed) written to integral file ( 77.9%)


 NUMBER OF SORTED TWO-ELECTRON INTEGRALS:      82621.     BUFFER LENGTH:  32768
 NUMBER OF SEGMENTS:   1  SEGMENT LENGTH:      82621      RECORD LENGTH: 524288

 Memory used in sort:       0.64 MW

 SORT1 READ       95283. AND WROTE       67599. INTEGRALS IN      1 RECORDS. CPU TIME:     0.00 SEC, REAL TIME:     0.01 SEC
 SORT2 READ       67599. AND WROTE       82621. INTEGRALS IN      3 RECORDS. CPU TIME:     0.01 SEC, REAL TIME:     0.02 SEC

 FILE SIZES:   FILE 1:    31.0 MBYTE,  FILE 4:     4.2 MBYTE,   TOTAL:     35.2 MBYTE

 OPERATOR DM      FOR CENTER  0  COORDINATES:    0.000000    0.000000    0.000000


 **********************************************************************************************************************************
 DATASETS  * FILE   NREC   LENGTH (MB)   RECORD NAMES
              1      19       30.48       500      610      700      900      950      970     1000      129      960     1100   
                                          VAR    BASINP    GEOM    SYMINP    ZMAT    AOBASIS   BASIS     P2S    ABASIS      S 
                                         1400     1410     1200     1210     1080     1600     1650     1300     1700   
                                           T        V       H0       H01     AOSYM     SMH    MOLCAS    ERIS     OPER   

 PROGRAMS   *        TOTAL       INT
 CPU TIMES  *         0.46      0.31
 REAL TIME  *         0.79 SEC
 DISK USED  *        35.64 MB      
 **********************************************************************************************************************************

 Density functional group M08-SO=XC-M08-SO
 Functional: XC-M08-SO(via MFM 1.6)                                            Gradient terms: 1
 Use grid at  1800.2


 Exact exchange will be calculated, factor:  0.5679

 Functional: XC-M08-SO                 Factor:  1.0000

 Generated new metagrid on record  1800.2 with target accuracy 1.0D-06 and 44796 points in CPU time    1.2
 Computed new grid on record 1800.1 in CPU time    1.3
   26632 words reserved for DFT integration

 PROGRAM * UKS-SCF (Unrestricted Kohn-Sham)     Authors: W. Meyer, H.-J. Werner, P.J. Knowles, 1993

 NUMBER OF ELECTRONS:      17+   17-    SPACE SYMMETRY=1    SPIN SYMMETRY: Singlet 
 CONVERGENCE THRESHOLDS:    1.00E-05 (Density)    1.00E-06 (Energy)
 MAX. NUMBER OF ITERATIONS:       60
 INTERPOLATION TYPE:            DIIS
 INTERPOLATION STEPS:              2 (START)      1 (STEP)
 LEVEL SHIFTS:                 -0.20 (ALPHA)  -0.20 (BETA) 



 Use fine grid record 1800.2 for energy threshold  1.0D-06
 Orbital guess generated from atomic densities. Full valence occupancy:   17

 Molecular orbital dump at record        2200.2

 Initial alpha occupation  17
 Initial beta  occupation  17

 ITERATION    DDIFF          GRAD             ENERGY        2-EL.EN.            DIPOLE MOMENTS         DIIS
    1      0.000D+00      0.000D+00      -191.52868696    433.082010    1.01362   -0.00000   -0.59653    0
    2      0.433D-01      0.165D-01      -191.68710165    424.230221    0.35702   -0.00000   -0.16822    1
    3      0.388D-02      0.179D-02      -191.68894995    424.030306    0.38079   -0.00000   -0.18720    2
    4      0.185D-02      0.589D-03      -191.68923927    423.982934    0.38444   -0.00000   -0.19064    3
    5      0.812D-03      0.199D-03      -191.68927751    423.976104    0.38784   -0.00000   -0.19401    4
    6      0.268D-03      0.524D-04      -191.68928112    423.975760    0.38703   -0.00000   -0.19412    5
    7      0.767D-04      0.139D-04      -191.68928136    423.975421    0.38710   -0.00000   -0.19413    5
    8      0.105D-04      0.283D-05      -191.68928137    423.975696    0.38706   -0.00000   -0.19410    6
    9      0.295D-05      0.829D-06      -191.68928137    423.975572    0.38706   -0.00000   -0.19408    6
   10      0.341D-06      0.203D-06      -191.68928137    423.975598    0.38706   -0.00000   -0.19409    6

 Final alpha occupancy:  17
 Final beta  occupancy:  17

 !UKS STATE 1.1 Energy               -191.689281366770
 Nuclear energy                       133.31979421
 One-electron energy                 -524.46203403
 Two-electron energy                  211.98779904
 Density functional                   -12.53484060     XC-M08-SO=-12.53484060
 Virial quotient                       -1.01539045
 !UKS STATE 1.1 Dipole moment           0.38705988    -0.00000000    -0.19408747
 Dipole moment /Debye                   0.98374364    -0.00000000    -0.49328883

 Orbital energies for positive spin:

         1.1          2.1          3.1          4.1          5.1          6.1          7.1          8.1          9.1         10.1
    -19.295836   -10.361925   -10.355721   -10.313536    -1.076546    -0.811547    -0.717154    -0.647062    -0.512143    -0.500688

        11.1         12.1         13.1         14.1         15.1         16.1         17.1         18.1         19.1
     -0.474894    -0.452203    -0.411120    -0.381924    -0.378332    -0.277460    -0.210394     0.373040     0.464708

 Orbital energies for negative spin:

         1.1          2.1          3.1          4.1          5.1          6.1          7.1          8.1          9.1         10.1
    -19.295836   -10.361926   -10.355721   -10.313536    -1.076545    -0.811547    -0.717154    -0.647063    -0.512143    -0.500688

        11.1         12.1         13.1         14.1         15.1         16.1         17.1         18.1         19.1
     -0.474894    -0.452203    -0.411120    -0.381924    -0.378332    -0.277459    -0.210394     0.373040     0.464708

 HOMO    -17.1    -0.210394 =      -5.7251eV
 LUMO    -18.1     0.373040 =      10.1509eV
 LUMO-HOMO         0.583434 =      15.8760eV

 EXPECTATION VALUE OF S**2:             0.00000000

 Occupation number threshold for canonical orbitals:  1.999000 (occupied),  0.001000 (virtual)

 Number of pseudo-canonical orbitals per symmetry:   17
 Number of active natural orbitals per symmetry:      0

 Natural orbitals saved to record    2200.2 (Orbital set 3)

 Orbital spaces for UNO-CAS (Min. occupation: 0.020  Max. occupation: 1.980):

 Closed:       17
 Active:        0


 **********************************************************************************************************************************
 DATASETS  * FILE   NREC   LENGTH (MB)   RECORD NAMES
              1      20       31.92       500      610      700      900      950      970     1000      129      960     1100   
                                          VAR    BASINP    GEOM    SYMINP    ZMAT    AOBASIS   BASIS     P2S    ABASIS      S 
                                         1400     1410     1200     1210     1080     1600     1650     1300     1700     1800   
                                           T        V       H0       H01     AOSYM     SMH    MOLCAS    ERIS     OPER     GRID   

              2       5        2.98       700     1000      520     1800     2200   
                                         GEOM     BASIS   MCVARS    GRID      UKS  

 PROGRAMS   *        TOTAL       UKS       INT
 CPU TIMES  *         8.32      7.85      0.31
 REAL TIME  *         9.10 SEC
 DISK USED  *        35.64 MB      
 **********************************************************************************************************************************


 PROGRAM * Intrinsic Basis Bonding Analysis (IBBA)          Author: G. Knizia

 Molecular orbitals read from record     2200.2  Type=UKS/ALPHA (state 1.1)
 Fock matrix read from record            2200.2  Type=UKS/TOTAL (state 1.1)
 Orbital energies read from record       2200.2  Type=UKS/ALPHA (state 1.1)
 Density matrix read from record         2200.2  Type=UKS/CHARGE (state 1.1)

 Number of core orbitals:           4 (   4 )
 Number of closed-shell orbitals:  13 (  13 )

 Basis set MINAO-AUTO-PP generated.      Number of basis functions:   28 

 Polarized AO type:                A = (O Ot + (1-O)(1-Ot)) P12
 Orthogonalization method:         Symmetric (Loewdin)
 Localization functional:          L = sum[A,i] <i|n_A|i>^4 -> max

 Localization group 1:  17 orbitals, occupancy  2.000
 Iterative localization: IB/PM,    7 iter; Final gradient 0.24E-09

 Bond order analysis:       [THRPRINT= 0.020]

   CEN ATOM   CEN ATOM     WIBERG.BO      RENORM.BO
     1   C  -   2   O       1.014036       1.015771
     1   C  -   6   H       0.957632       0.976498
     1   C  -   7   H       0.956608       0.952127
     1   C  -   8   H       0.956608       0.952127

     2   O  -   1   C       1.014036       1.015771
     2   O  -   3   C       0.999196       0.997592
     2   O  -   8   H       0.026761       0.015870
     2   O  -   7   H       0.026761       0.015870
     2   O  -  10   H       0.024789       0.014724
     2   O  -   9   H       0.024789       0.014724

     3   C  -   4   C       1.013838       1.007636
     3   C  -   2   O       0.999196       0.997592
     3   C  -   9   H       0.946933       0.942257
     3   C  -  10   H       0.946933       0.942257

     4   C  -   3   C       1.013838       1.007636
     4   C  -   5   H       0.965838       0.992232
     4   C  -  12   H       0.963582       0.987882
     4   C  -  11   H       0.963582       0.987882

     5   H  -   4   C       0.965838       0.992232

     6   H  -   1   C       0.957632       0.976498

     7   H  -   1   C       0.956608       0.952127
     7   H  -   2   O       0.026761       0.015870

     8   H  -   1   C       0.956608       0.952127
     8   H  -   2   O       0.026761       0.015870

     9   H  -   3   C       0.946933       0.942257
     9   H  -   2   O       0.024789       0.014724

    10   H  -   3   C       0.946933       0.942257
    10   H  -   2   O       0.024789       0.014724

    11   H  -   4   C       0.963582       0.987882

    12   H  -   4   C       0.963582       0.987882


 Valency analysis:

   CEN ATOM   TOT.VALENCE
     1   C       3.903297
     2   O       2.141506
     3   C       3.928563
     4   C       3.930182
     5   H       0.981997
     6   H       0.980601
     7   H       0.987244
     8   H       0.987244
     9   H       0.987708
    10   H       0.987708
    11   H       0.981425
    12   H       0.981425

 Total charge composition:

   CEN ATOM         s          p       ELECTRONS ->P.CHARGE
     1   C       2.99856    3.25580      6.25436   -0.25436
     2   O       3.63519    4.59374      8.22893   -0.22893
     3   C       2.97587    3.14532      6.12119   -0.12119
     4   C       2.98631    3.40287      6.38918   -0.38918
     5   H       0.86582                 0.86582    0.13418
     6   H       0.86072                 0.86072    0.13928
     7   H       0.88706                 0.88706    0.11294
     8   H       0.88706                 0.88706    0.11294
     9   H       0.88913                 0.88913    0.11087
    10   H       0.88913                 0.88913    0.11087
    11   H       0.86371                 0.86371    0.13629
    12   H       0.86371                 0.86371    0.13629

 Total charge composition, AO contributions:

   CEN ATOM SHL      SPHERICAL COMPONENTS
     1   C  1s       1.99235
     1   C  2s       1.00621
     1   C  2p       1.18854    1.17454    0.89273

     2   O  1s       1.99726
     2   O  2s       1.63792
     2   O  2p       1.41111    1.92389    1.25875

     3   C  1s       1.99256
     3   C  2s       0.98331
     3   C  2p       0.92858    1.17163    1.04511

     4   C  1s       1.99167
     4   C  2s       0.99464
     4   C  2p       1.17176    1.17747    1.05364

     5   H  1s       0.86582

     6   H  1s       0.86072

     7   H  1s       0.88706

     8   H  1s       0.88706

     9   H  1s       0.88913

    10   H  1s       0.88913

    11   H  1s       0.86371

    12   H  1s       0.86371

 Summary of localized orbital composition:   [THRPRINT= 0.020]

   ORB  GRP  ORB.ENERGY      CENTERS/CHARGES
     1   1   -19.130593      O  2   2.000
     2   1   -10.256264      C  3   2.000
     3   1   -10.246088      C  1   2.000
     4   1   -10.197986      C  4   2.000
     5   1    -0.750885      O  2   1.161   C  1   0.829
     6   1    -0.740945      O  2   1.165   C  3   0.823
     7   1    -0.617756      C  3   1.008   C  4   0.981
     8   1    -0.583479      O  2   1.974   (other: 0.026)
     9   1    -0.559880      C  1   1.141   H  6   0.852
    10   1    -0.558504      C  1   1.127   H  7   0.871
    11   1    -0.558504      C  1   1.127   H  8   0.871
    12   1    -0.554992      C  3   1.123   H  9   0.870
    13   1    -0.554992      C  3   1.123   H 10   0.870
    14   1    -0.541494      C  4   1.130   H  5   0.860
    15   1    -0.535054      C  4   1.133   H 12   0.858
    16   1    -0.535054      C  4   1.133   H 11   0.858
    17   1    -0.256008      O  2   1.924   (other: 0.076)

 Localized orbitals saved to record      2200.2  (orbital set 4)


 **********************************************************************************************************************************
 DATASETS  * FILE   NREC   LENGTH (MB)   RECORD NAMES
              1      20       31.92       500      610      700      900      950      970     1000      129      960     1100   
                                          VAR    BASINP    GEOM    SYMINP    ZMAT    AOBASIS   BASIS     P2S    ABASIS      S 
                                         1400     1410     1200     1210     1080     1600     1650     1300     1700     1800   
                                           T        V       H0       H01     AOSYM     SMH    MOLCAS    ERIS     OPER     GRID   

              2       5        2.99       700     1000      520     1800     2200   
                                         GEOM     BASIS   MCVARS    GRID      UKS  

 PROGRAMS   *        TOTAL      IBBA       UKS       INT
 CPU TIMES  *         8.35      0.02      7.85      0.31
 REAL TIME  *         9.23 SEC
 DISK USED  *        35.64 MB      
 **********************************************************************************************************************************
 Molecular orbitals read from record     2200.2  Type=UKS/LOCAL(IBO)  
 Occupation numbers read from record     2200.2  Type=UKS/LOCAL(IBO)  
 Orbital energies read from record       2200.2  Type=UKS/LOCAL(IBO)  
 Redundancy group numbers read from rec  2200.2  Type=UKS/BETA (state 1.1)

 IBBA/STO-3G energy=      0.000000000000

        UKS-SCF 
   -191.68928137
 **********************************************************************************************************************************
 Molpro calculation terminated
