
 Primary working directories    : /tmp/sb13343
 Secondary working directories  : /tmp/sb13343
 Wavefunction directory         : /panfs/panasas01/chem/sb13343/wfu/
 Main file repository           : /tmp/sb13343/

 SHA1      : b4a5b34a9e711420743f49e6833241d17c61fb3c
 NAME      : 2099.9.b4a5b34
 ARCHNAME  : linux/x86_64_openmp
 FC        : /cm/shared/languages/GCC-6.1/bin/gfortran
 BLASLIB   : -lblas
 id        : simonbennie

 Nodes     nprocs
 node32-017    1

 Using customized tuning parameters: mindgm=1; mindgv=20; mindgc=4; mindgr=1; noblas=0; minvec=7
 default implementation of scratch files=df  

 memory,500,m
 geomtyp=xyz
 nosym
 noorient
 geometry={
 C          0.00000        0.00000        0.00000
 O          0.00000        0.00000        1.40962
 C          1.30608        0.00000        1.95787
 C          1.19221        0.00000        3.47353
 H          2.18666        0.00000        3.93332
 H         -1.04410        0.00000       -0.32474
 H          0.50079       -0.89267       -0.41051
 H          0.50079        0.89267       -0.41051
 H          1.86435       -0.88728        1.61056
 H          1.86435        0.88728        1.61056
 H          0.64981       -0.88690        3.81673
 H          0.64981        0.88690        3.81673
 }
 basis={ default,svp }
 {uks,SOGGA,direct;wf,34,1,0}
 {ibba,bonds=1}

 Variables initialized (895), CPU time= 0.01 sec
 Commands  initialized (725), CPU time= 0.01 sec, 591 directives.
 Default parameters read. Elapsed time= 0.08 sec

 Checking input...
 Passed
1


                                         ***  PROGRAM SYSTEM MOLPRO  ***
                                       Copyright, TTI GmbH Stuttgart, 2015
                                    Version 2099.9 linked May 26 2017 16:03:21


 **********************************************************************************************************************************
 LABEL *                                                                                 
  64 bit serial version                                                                  DATE: 08-Jun-17          TIME: 10:02:55  
 **********************************************************************************************************************************

 SHA1:             b4a5b34a9e711420743f49e6833241d17c61fb3c
 **********************************************************************************************************************************
 SETTING GEOMTYP        =    XYZ

 Variable memory set to  500000000 words,  buffer space 

 ZSYMEL=NOSYM

 SETTING BASIS          =    SVP


 Recomputing integrals since basis changed


 Using spherical harmonics

 Library entry C      S def2-SVP             selected for orbital group  1
 Library entry C      P def2-SVP             selected for orbital group  1
 Library entry C      D def2-SVP             selected for orbital group  1
 Library entry O      S def2-SVP             selected for orbital group  2
 Library entry O      P def2-SVP             selected for orbital group  2
 Library entry O      D def2-SVP             selected for orbital group  2
 Library entry H      S def2-SVP             selected for orbital group  4
 Library entry H      P def2-SVP             selected for orbital group  4


 PROGRAM * SEWARD (Integral evaluation for generally contracted gaussian basis sets)     Author: Roland Lindh, 1990

 Geometry written to block  1 of record 700


 Point group  C1  



 ATOMIC COORDINATES

 NR  ATOM    CHARGE       X              Y              Z

   1  C       6.00    0.000000000    0.000000000    0.000000000
   2  O       8.00    0.000000000    0.000000000    2.663795740
   3  C       6.00    2.468133497    0.000000000    3.699838088
   4  C       6.00    2.252950383    0.000000000    6.564020385
   5  H       1.00    4.132188528    0.000000000    7.432897560
   6  H       1.00   -1.973063047    0.000000000   -0.613669662
   7  H       1.00    0.946355946   -1.686901820   -0.775751471
   8  H       1.00    0.946355946    1.686901820   -0.775751471
   9  H       1.00    3.523110900   -1.676716196    3.043517307
  10  H       1.00    3.523110900    1.676716196    3.043517307
  11  H       1.00    1.227962933   -1.675998100    7.212574391
  12  H       1.00    1.227962933    1.675998100    7.212574391

 Bond lengths in Bohr (Angstrom)

 1-2  2.663795740  1-6  2.066293358  1-7  2.083990804  1-8  2.083990804  2-3  2.676764223
     ( 1.409620000)     ( 1.093435356)     ( 1.102800441)     ( 1.102800441)     ( 1.416482626)

  3- 4  2.872254168   3- 9  2.086890388   3-10  2.086890388   4- 5  2.070382464   4-11  2.068862297
       ( 1.519931450)       ( 1.104334835)       ( 1.104334835)       ( 1.095599218)       ( 1.094794780)

  4-12  2.068862297
       ( 1.094794780)

 Bond angles

  1-2-3  112.77108340   2-1-6  107.27693969   2-1-7  111.85402987   2-1-8  111.85402987

  2- 3- 4  108.47458109   2- 3- 9  110.14508041   2- 3-10  110.14508041   3- 4- 5  110.51724552

  3- 4-11  110.47015208   3- 4-12  110.47015208   4- 3- 9  110.57823876   4- 3-10  110.57823876

  5- 4-11  108.55021133   5- 4-12  108.55021133   6- 1- 7  108.84842497   6- 1- 8  108.84842497

  7- 1- 8  108.08590744   9- 3-10  106.92203462  11- 4-12  108.21261054

 NUCLEAR CHARGE:                   34
 NUMBER OF PRIMITIVE AOS:         156
 NUMBER OF SYMMETRY AOS:          152
 NUMBER OF CONTRACTIONS:           96   (  96A   )
 NUMBER OF CORE ORBITALS:           4   (   4A   )
 NUMBER OF VALENCE ORBITALS:       24   (  24A   )


 NUCLEAR REPULSION ENERGY  133.31979421


 Eigenvalues of metric

         1 0.364E-02 0.952E-02 0.147E-01 0.282E-01 0.312E-01 0.319E-01 0.432E-01 0.449E-01


 Contracted 2-electron integrals neglected if value below      1.0D-11
 AO integral compression algorithm  1   Integral accuracy      1.0D-11

     37.487 MB (compressed) written to integral file ( 40.8%)


 NUMBER OF SORTED TWO-ELECTRON INTEGRALS:   10841496.     BUFFER LENGTH:  32768
 NUMBER OF SEGMENTS:   1  SEGMENT LENGTH:   10841496      RECORD LENGTH: 524288

 Memory used in sort:      11.40 MW

 SORT1 READ    11483613. AND WROTE     8333550. INTEGRALS IN     24 RECORDS. CPU TIME:     0.13 SEC, REAL TIME:     0.25 SEC
 SORT2 READ     8333550. AND WROTE    10841496. INTEGRALS IN    143 RECORDS. CPU TIME:     0.27 SEC, REAL TIME:     0.33 SEC

 FILE SIZES:   FILE 1:    68.0 MBYTE,  FILE 4:   100.7 MBYTE,   TOTAL:    168.7 MBYTE

 OPERATOR DM      FOR CENTER  0  COORDINATES:    0.000000    0.000000    0.000000


 **********************************************************************************************************************************
 DATASETS  * FILE   NREC   LENGTH (MB)   RECORD NAMES
              1      19       62.89       500      610      700      900      950      970     1000      129      960     1100   
                                          VAR    BASINP    GEOM    SYMINP    ZMAT    AOBASIS   BASIS     P2S    ABASIS      S 
                                         1400     1410     1200     1210     1080     1600     1650     1300     1700   
                                           T        V       H0       H01     AOSYM     SMH    MOLCAS    ERIS     OPER   

 PROGRAMS   *        TOTAL       INT
 CPU TIMES  *         1.83      1.69
 REAL TIME  *         2.43 SEC
 DISK USED  *       169.15 MB      
 **********************************************************************************************************************************

 Density functional group SOGGA=XC-SOGGA
 Functional: XC-SOGGA(via MFM 1.6)                                             Gradient terms: 1
 Use grid at  1800.2

 Functional: XC-SOGGA                  Factor:  1.0000

 Generated new metagrid on record  1800.2 with target accuracy 1.0D-06 and 44796 points in CPU time    1.1
 Computed new grid on record 1800.1 in CPU time    1.3
   80368 words reserved for DFT integration

 PROGRAM * UKS-SCF (Unrestricted Kohn-Sham)     Authors: W. Meyer, H.-J. Werner, P.J. Knowles, 1993

 NUMBER OF ELECTRONS:      17+   17-    SPACE SYMMETRY=1    SPIN SYMMETRY: Singlet 
 CONVERGENCE THRESHOLDS:    1.00E-05 (Density)    1.00E-06 (Energy)
 MAX. NUMBER OF ITERATIONS:       60
 INTERPOLATION TYPE:            DIIS
 INTERPOLATION STEPS:              2 (START)      1 (STEP)
 LEVEL SHIFTS:                 -0.20 (ALPHA)  -0.20 (BETA) 



 Use fine grid record 1800.2 for energy threshold  1.0D-06
 Orbital guess generated from atomic densities. Full valence occupancy:   17

 Molecular orbital dump at record        2200.2

 Initial alpha occupation  17
 Initial beta  occupation  17

 ITERATION    DDIFF          GRAD             ENERGY        2-EL.EN.            DIPOLE MOMENTS         DIIS
    1      0.000D+00      0.000D+00      -192.80468819    464.728127    0.75212   -0.00000   -0.49176    0
    2      0.128D-01      0.571D-02      -192.94463208    448.606225    0.29211   -0.00000   -0.17661    1
    3      0.426D-02      0.281D-02      -192.97529797    453.196059    0.42405   -0.00000   -0.26669    2
    4      0.116D-02      0.416D-03      -192.97616577    452.783527    0.37388   -0.00000   -0.23593    3
    5      0.708D-03      0.227D-03      -192.97648931    452.785630    0.37393   -0.00000   -0.23468    4
    6      0.555D-03      0.612D-04      -192.97655560    452.732122    0.36241   -0.00000   -0.22846    5
    7      0.112D-03      0.203D-04      -192.97655933    452.736891    0.36270   -0.00000   -0.22690    6
    8      0.350D-04      0.102D-04      -192.97655998    452.733008    0.36177   -0.00000   -0.22703    7
    9      0.114D-04      0.173D-05      -192.97656002    452.732934    0.36163   -0.00000   -0.22682    7
   10      0.263D-05      0.456D-06      -192.97656002    452.733436    0.36162   -0.00000   -0.22681    7
   11      0.636D-06      0.227D-06      -192.97656002    452.733135    0.36161   -0.00000   -0.22681    7

 Final alpha occupancy:  17
 Final beta  occupancy:  17

 !UKS STATE 1.1 Energy               -192.976560021434
 Nuclear energy                       133.31979421
 One-electron energy                 -526.11186222
 Two-electron energy                  226.36656747
 Density functional                   -26.55105949     XC-SOGGA=-26.55105949
 Virial quotient                       -1.00687056
 !UKS STATE 1.1 Dipole moment           0.36160775    -0.00000000    -0.22680656
 Dipole moment /Debye                   0.91905503    -0.00000000    -0.57644702

 Orbital energies for positive spin:

         1.1          2.1          3.1          4.1          5.1          6.1          7.1          8.1          9.1         10.1
    -18.674070    -9.868943    -9.864359    -9.818594    -0.925481    -0.677484    -0.592880    -0.528086    -0.434735    -0.419755

        11.1         12.1         13.1         14.1         15.1         16.1         17.1         18.1         19.1
     -0.395004    -0.362950    -0.329532    -0.313485    -0.298704    -0.260912    -0.197709     0.045120     0.070090

 Orbital energies for negative spin:

         1.1          2.1          3.1          4.1          5.1          6.1          7.1          8.1          9.1         10.1
    -18.674070    -9.868943    -9.864359    -9.818594    -0.925481    -0.677484    -0.592880    -0.528086    -0.434735    -0.419755

        11.1         12.1         13.1         14.1         15.1         16.1         17.1         18.1         19.1
     -0.395004    -0.362950    -0.329532    -0.313485    -0.298704    -0.260912    -0.197709     0.045120     0.070090

 HOMO     17.1    -0.197709 =      -5.3799eV
 LUMO     18.1     0.045120 =       1.2278eV
 LUMO-HOMO         0.242829 =       6.6077eV

 EXPECTATION VALUE OF S**2:            -0.00000000

 Natural orbitals saved to record    2200.2 (Orbital set 3)

 Orbital spaces for UNO-CAS (Min. occupation: 0.020  Max. occupation: 1.980):

 Closed:       17
 Active:        0


 **********************************************************************************************************************************
 DATASETS  * FILE   NREC   LENGTH (MB)   RECORD NAMES
              1      20       64.33       500      610      700      900      950      970     1000      129      960     1100   
                                          VAR    BASINP    GEOM    SYMINP    ZMAT    AOBASIS   BASIS     P2S    ABASIS      S 
                                         1400     1410     1200     1210     1080     1600     1650     1300     1700     1800   
                                           T        V       H0       H01     AOSYM     SMH    MOLCAS    ERIS     OPER     GRID   

              2       5        3.33       700     1000      520     1800     2200   
                                         GEOM     BASIS   MCVARS    GRID      UKS  

 PROGRAMS   *        TOTAL       UKS       INT
 CPU TIMES  *        15.80     13.97      1.69
 REAL TIME  *        17.24 SEC
 DISK USED  *       169.15 MB      
 **********************************************************************************************************************************


 PROGRAM * Intrinsic Basis Bonding Analysis (IBBA)          Author: G. Knizia

 Molecular orbitals read from record     2200.2  Type=UKS/ALPHA (state 1.1)
 Fock matrix read from record            2200.2  Type=UKS/TOTAL (state 1.1)
 Orbital energies read from record       2200.2  Type=UKS/ALPHA (state 1.1)
 Density matrix read from record         2200.2  Type=UKS/CHARGE (state 1.1)

 Number of core orbitals:           4 (   4 )
 Number of closed-shell orbitals:  13 (  13 )

 Basis set MINAO-AUTO-PP generated.      Number of basis functions:   28 

 Polarized AO type:                A = (O Ot + (1-O)(1-Ot)) P12
 Orthogonalization method:         Symmetric (Loewdin)
 Localization functional:          L = sum[A,i] <i|n_A|i>^4 -> max

 Localization group 1:  17 orbitals, occupancy  2.000
 Iterative localization: IB/PM,    7 iter; Final gradient 0.25E-09

 Bond order analysis:       [THRPRINT= 0.020]

   CEN ATOM   CEN ATOM     WIBERG.BO      RENORM.BO
     1   C  -   2   O       0.998010       1.020558
     1   C  -   6   H       0.953385       0.975828
     1   C  -   7   H       0.943040       0.930746
     1   C  -   8   H       0.943040       0.930746

     2   O  -   1   C       0.998010       1.020558
     2   O  -   3   C       0.975685       0.987068
     2   O  -   8   H       0.036948       0.022251
     2   O  -   7   H       0.036948       0.022251
     2   O  -  10   H       0.033105       0.019900
     2   O  -   9   H       0.033105       0.019900

     3   C  -   4   C       1.031843       1.021993
     3   C  -   2   O       0.975685       0.987068
     3   C  -   9   H       0.930335       0.918630
     3   C  -  10   H       0.930335       0.918630

     4   C  -   3   C       1.031843       1.021993
     4   C  -   5   H       0.955668       0.987997
     4   C  -  12   H       0.953486       0.979474
     4   C  -  11   H       0.953486       0.979474

     5   H  -   4   C       0.955668       0.987997

     6   H  -   1   C       0.953385       0.975828

     7   H  -   1   C       0.943040       0.930746
     7   H  -   2   O       0.036948       0.022251

     8   H  -   1   C       0.943040       0.930746
     8   H  -   2   O       0.036948       0.022251

     9   H  -   3   C       0.930335       0.918630
     9   H  -   2   O       0.033105       0.019900

    10   H  -   3   C       0.930335       0.918630
    10   H  -   2   O       0.033105       0.019900

    11   H  -   4   C       0.953486       0.979474

    12   H  -   4   C       0.953486       0.979474


 Valency analysis:

   CEN ATOM   TOT.VALENCE
     1   C       3.859977
     2   O       2.153830
     3   C       3.894460
     4   C       3.926455
     5   H       0.978420
     6   H       0.975318
     7   H       0.985823
     8   H       0.985823
     9   H       0.987294
    10   H       0.987294
    11   H       0.977467
    12   H       0.977467

 Total charge composition:

   CEN ATOM         s          p       ELECTRONS ->P.CHARGE
     1   C       3.02023    3.20519      6.22542   -0.22542
     2   O       3.59110    4.76016      8.35126   -0.35126
     3   C       2.98494    3.07511      6.06005   -0.06005
     4   C       3.01958    3.41148      6.43106   -0.43106
     5   H       0.85310                 0.85310    0.14690
     6   H       0.84289                 0.84289    0.15711
     7   H       0.88093                 0.88093    0.11907
     8   H       0.88093                 0.88093    0.11907
     9   H       0.88728                 0.88728    0.11272
    10   H       0.88728                 0.88728    0.11272
    11   H       0.84989                 0.84989    0.15011
    12   H       0.84989                 0.84989    0.15011

 Total charge composition, AO contributions:

   CEN ATOM SHL      SPHERICAL COMPONENTS
     1   C  1s       1.99221
     1   C  2s       1.02802
     1   C  2p       1.19830    1.18156    0.82533

     2   O  1s       1.99725
     2   O  2s       1.59385
     2   O  2p       1.50974    1.89685    1.35357

     3   C  1s       1.99248
     3   C  2s       0.99246
     3   C  2p       0.87234    1.17216    1.03061

     4   C  1s       1.99148
     4   C  2s       1.02810
     4   C  2p       1.17322    1.18409    1.05417

     5   H  1s       0.85310

     6   H  1s       0.84289

     7   H  1s       0.88093

     8   H  1s       0.88093

     9   H  1s       0.88728

    10   H  1s       0.88728

    11   H  1s       0.84989

    12   H  1s       0.84989

 Summary of localized orbital composition:   [THRPRINT= 0.020]

   ORB  GRP  ORB.ENERGY      CENTERS/CHARGES
     1   1   -18.539691      O  2   2.000
     2   1    -9.768851      C  3   2.000
     3   1    -9.759037      C  1   2.000
     4   1    -9.707501      C  4   2.000
     5   1    -0.691494      O  2   1.241   C  1   0.749
     6   1    -0.682239      O  2   1.251   C  3   0.736
     7   1    -0.524611      C  3   1.003   C  4   0.988
     8   1    -0.466984      O  2   1.958   (other: 0.042)
     9   1    -0.456777      C  1   1.139   H  8   0.858
    10   1    -0.456777      C  1   1.139   H  7   0.858
    11   1    -0.456743      C  1   1.158   H  6   0.834
    12   1    -0.452268      C  3   1.128   H 10   0.862
    13   1    -0.452268      C  3   1.128   H  9   0.862
    14   1    -0.439000      C  4   1.137   H  5   0.845
    15   1    -0.432670      C  4   1.146   H 11   0.842
    16   1    -0.432670      C  4   1.146   H 12   0.842
    17   1    -0.243143      O  2   1.897   C  1   0.021   (other: 0.083)

 Localized orbitals saved to record      2200.2  (orbital set 4)


 **********************************************************************************************************************************
 DATASETS  * FILE   NREC   LENGTH (MB)   RECORD NAMES
              1      20       64.33       500      610      700      900      950      970     1000      129      960     1100   
                                          VAR    BASINP    GEOM    SYMINP    ZMAT    AOBASIS   BASIS     P2S    ABASIS      S 
                                         1400     1410     1200     1210     1080     1600     1650     1300     1700     1800   
                                           T        V       H0       H01     AOSYM     SMH    MOLCAS    ERIS     OPER     GRID   

              2       5        3.40       700     1000      520     1800     2200   
                                         GEOM     BASIS   MCVARS    GRID      UKS  

 PROGRAMS   *        TOTAL      IBBA       UKS       INT
 CPU TIMES  *        15.83      0.03     13.97      1.69
 REAL TIME  *        17.34 SEC
 DISK USED  *       169.15 MB      
 **********************************************************************************************************************************
 Molecular orbitals read from record     2200.2  Type=UKS/LOCAL(IBO)  
 Occupation numbers read from record     2200.2  Type=UKS/LOCAL(IBO)  
 Orbital energies read from record       2200.2  Type=UKS/LOCAL(IBO)  
 Redundancy group numbers read from rec  2200.2  Type=UKS/BETA (state 1.1)

 IBBA/SVP energy=      0.000000000000

        UKS-SCF 
   -192.97656002
 **********************************************************************************************************************************
 Molpro calculation terminated
