
 Primary working directories    : /tmp/sb13343
 Secondary working directories  : /tmp/sb13343
 Wavefunction directory         : /panfs/panasas01/chem/sb13343/wfu/
 Main file repository           : /tmp/sb13343/

 SHA1      : b4a5b34a9e711420743f49e6833241d17c61fb3c
 NAME      : 2099.9.b4a5b34
 ARCHNAME  : linux/x86_64_openmp
 FC        : /cm/shared/languages/GCC-6.1/bin/gfortran
 BLASLIB   : -lblas
 id        : simonbennie

 Nodes     nprocs
 node32-020    1

 Using customized tuning parameters: mindgm=1; mindgv=20; mindgc=4; mindgr=1; noblas=0; minvec=7
 default implementation of scratch files=df  

 memory,500,m
 geomtyp=xyz
 nosym
 noorient
 geometry={
 C          0.00000        0.00000        0.00000
 O          0.00000        0.00000        1.40962
 C          1.30608        0.00000        1.95787
 C          1.19221        0.00000        3.47353
 H          2.18666        0.00000        3.93332
 H         -1.04410        0.00000       -0.32474
 H          0.50079       -0.89267       -0.41051
 H          0.50079        0.89267       -0.41051
 H          1.86435       -0.88728        1.61056
 H          1.86435        0.88728        1.61056
 H          0.64981       -0.88690        3.81673
 H          0.64981        0.88690        3.81673
 }
 basis={ default,sto-3g }
 {uks,PBEREV,direct;wf,34,1,0}
 {ibba,bonds=1}

 Variables initialized (895), CPU time= 0.01 sec
 Commands  initialized (725), CPU time= 0.01 sec, 591 directives.
 Default parameters read. Elapsed time= 0.09 sec

 Checking input...
 Passed
1


                                         ***  PROGRAM SYSTEM MOLPRO  ***
                                       Copyright, TTI GmbH Stuttgart, 2015
                                    Version 2099.9 linked May 26 2017 16:03:21


 **********************************************************************************************************************************
 LABEL *                                                                                 
  64 bit serial version                                                                  DATE: 08-Jun-17          TIME: 09:56:31  
 **********************************************************************************************************************************

 SHA1:             b4a5b34a9e711420743f49e6833241d17c61fb3c
 **********************************************************************************************************************************
 SETTING GEOMTYP        =    XYZ

 Variable memory set to  500000000 words,  buffer space 

 ZSYMEL=NOSYM

 SETTING BASIS          =    STO-3G


 Recomputing integrals since basis changed


 Using spherical harmonics

 Library entry C      S STO-3G               selected for orbital group  1
 Library entry C      P STO-3G               selected for orbital group  1
 Library entry O      S STO-3G               selected for orbital group  2
 Library entry O      P STO-3G               selected for orbital group  2
 Library entry H      S STO-3G               selected for orbital group  4


 PROGRAM * SEWARD (Integral evaluation for generally contracted gaussian basis sets)     Author: Roland Lindh, 1990

 Geometry written to block  1 of record 700


 Point group  C1  



 ATOMIC COORDINATES

 NR  ATOM    CHARGE       X              Y              Z

   1  C       6.00    0.000000000    0.000000000    0.000000000
   2  O       8.00    0.000000000    0.000000000    2.663795740
   3  C       6.00    2.468133497    0.000000000    3.699838088
   4  C       6.00    2.252950383    0.000000000    6.564020385
   5  H       1.00    4.132188528    0.000000000    7.432897560
   6  H       1.00   -1.973063047    0.000000000   -0.613669662
   7  H       1.00    0.946355946   -1.686901820   -0.775751471
   8  H       1.00    0.946355946    1.686901820   -0.775751471
   9  H       1.00    3.523110900   -1.676716196    3.043517307
  10  H       1.00    3.523110900    1.676716196    3.043517307
  11  H       1.00    1.227962933   -1.675998100    7.212574391
  12  H       1.00    1.227962933    1.675998100    7.212574391

 Bond lengths in Bohr (Angstrom)

 1-2  2.663795740  1-6  2.066293358  1-7  2.083990804  1-8  2.083990804  2-3  2.676764223
     ( 1.409620000)     ( 1.093435356)     ( 1.102800441)     ( 1.102800441)     ( 1.416482626)

  3- 4  2.872254168   3- 9  2.086890388   3-10  2.086890388   4- 5  2.070382464   4-11  2.068862297
       ( 1.519931450)       ( 1.104334835)       ( 1.104334835)       ( 1.095599218)       ( 1.094794780)

  4-12  2.068862297
       ( 1.094794780)

 Bond angles

  1-2-3  112.77108340   2-1-6  107.27693969   2-1-7  111.85402987   2-1-8  111.85402987

  2- 3- 4  108.47458109   2- 3- 9  110.14508041   2- 3-10  110.14508041   3- 4- 5  110.51724552

  3- 4-11  110.47015208   3- 4-12  110.47015208   4- 3- 9  110.57823876   4- 3-10  110.57823876

  5- 4-11  108.55021133   5- 4-12  108.55021133   6- 1- 7  108.84842497   6- 1- 8  108.84842497

  7- 1- 8  108.08590744   9- 3-10  106.92203462  11- 4-12  108.21261054

 NUCLEAR CHARGE:                   34
 NUMBER OF PRIMITIVE AOS:          84
 NUMBER OF SYMMETRY AOS:           84
 NUMBER OF CONTRACTIONS:           28   (  28A   )
 NUMBER OF CORE ORBITALS:           4   (   4A   )
 NUMBER OF VALENCE ORBITALS:       24   (  24A   )


 NUCLEAR REPULSION ENERGY  133.31979421


 Eigenvalues of metric

         1 0.212E+00 0.234E+00 0.263E+00 0.352E+00 0.360E+00 0.368E+00 0.374E+00 0.394E+00


 Contracted 2-electron integrals neglected if value below      1.0D-11
 AO integral compression algorithm  1   Integral accuracy      1.0D-11

     0.786 MB (compressed) written to integral file ( 77.9%)


 NUMBER OF SORTED TWO-ELECTRON INTEGRALS:      82621.     BUFFER LENGTH:  32768
 NUMBER OF SEGMENTS:   1  SEGMENT LENGTH:      82621      RECORD LENGTH: 524288

 Memory used in sort:       0.64 MW

 SORT1 READ       95283. AND WROTE       67599. INTEGRALS IN      1 RECORDS. CPU TIME:     0.00 SEC, REAL TIME:     0.01 SEC
 SORT2 READ       67599. AND WROTE       82621. INTEGRALS IN      3 RECORDS. CPU TIME:     0.01 SEC, REAL TIME:     0.01 SEC

 FILE SIZES:   FILE 1:    31.0 MBYTE,  FILE 4:     4.2 MBYTE,   TOTAL:     35.2 MBYTE

 OPERATOR DM      FOR CENTER  0  COORDINATES:    0.000000    0.000000    0.000000


 **********************************************************************************************************************************
 DATASETS  * FILE   NREC   LENGTH (MB)   RECORD NAMES
              1      19       30.48       500      610      700      900      950      970     1000      129      960     1100   
                                          VAR    BASINP    GEOM    SYMINP    ZMAT    AOBASIS   BASIS     P2S    ABASIS      S 
                                         1400     1410     1200     1210     1080     1600     1650     1300     1700   
                                           T        V       H0       H01     AOSYM     SMH    MOLCAS    ERIS     OPER   

 PROGRAMS   *        TOTAL       INT
 CPU TIMES  *         0.47      0.33
 REAL TIME  *         0.83 SEC
 DISK USED  *        35.64 MB      
 **********************************************************************************************************************************

 Density functional group PBEREV=PBEXREV+PBEC
 Functional: PBEXREV(Automatically generated (new) PBEXREV)                    Gradient terms: 1
 Functional: PBEC(Automatically generated (new) PBEC)                          Gradient terms: 1
 Use grid at  1800.2

 Functional: PBEXREV                   Factor:  1.0000
 Functional: PBEC                      Factor:  1.0000

 Generated new metagrid on record  1800.2 with target accuracy 1.0D-06 and 44796 points in CPU time    1.3
 Computed new grid on record 1800.1 in CPU time    1.4
   26632 words reserved for DFT integration

 PROGRAM * UKS-SCF (Unrestricted Kohn-Sham)     Authors: W. Meyer, H.-J. Werner, P.J. Knowles, 1993

 NUMBER OF ELECTRONS:      17+   17-    SPACE SYMMETRY=1    SPIN SYMMETRY: Singlet 
 CONVERGENCE THRESHOLDS:    1.00E-05 (Density)    1.00E-06 (Energy)
 MAX. NUMBER OF ITERATIONS:       60
 INTERPOLATION TYPE:            DIIS
 INTERPOLATION STEPS:              2 (START)      1 (STEP)
 LEVEL SHIFTS:                 -0.20 (ALPHA)  -0.20 (BETA) 



 Use fine grid record 1800.2 for energy threshold  1.0D-06
 Orbital guess generated from atomic densities. Full valence occupancy:   17

 Molecular orbital dump at record        2200.2

 Initial alpha occupation  17
 Initial beta  occupation  17

 ITERATION    DDIFF          GRAD             ENERGY        2-EL.EN.            DIPOLE MOMENTS         DIIS
    1      0.000D+00      0.000D+00      -191.63126336    465.078594    0.97727   -0.00000   -0.60067    0
    2      0.597D-01      0.187D-01      -191.82396964    452.385505    0.14662   -0.00000   -0.01121    1
    3      0.991D-02      0.421D-02      -191.83256811    454.269611    0.33470   -0.00000   -0.14638    2
    4      0.151D-02      0.503D-03      -191.83273253    454.253307    0.32946   -0.00000   -0.14259    3
    5      0.540D-03      0.183D-03      -191.83275749    454.242117    0.33414   -0.00000   -0.14684    4
    6      0.190D-03      0.363D-04      -191.83275918    454.240412    0.33267   -0.00000   -0.14698    5
    7      0.409D-04      0.139D-04      -191.83275930    454.241406    0.33327   -0.00000   -0.14721    6
    8      0.101D-04      0.286D-05      -191.83275930    454.241370    0.33316   -0.00000   -0.14719    6
    9      0.142D-05      0.249D-06      -191.83275930    454.241386    0.33316   -0.00000   -0.14719    6
   10      0.178D-06      0.355D-07      -191.83275930    454.241397    0.33317   -0.00000   -0.14719    5

 Final alpha occupancy:  17
 Final beta  occupancy:  17

 !UKS STATE 1.1 Energy               -191.832759304561
 Nuclear energy                       133.31979421
 One-electron energy                 -524.41463694
 Two-electron energy                  227.12069828
 Density functional                   -27.85861486     PBEXREV=-26.72103803 PBEC= -1.13757683
 Virial quotient                       -1.01612526
 !UKS STATE 1.1 Dipole moment           0.33316536    -0.00000000    -0.14719160
 Dipole moment /Debye                   0.84676642    -0.00000000    -0.37409923

 Orbital energies for positive spin:

         1.1          2.1          3.1          4.1          5.1          6.1          7.1          8.1          9.1         10.1
    -18.515340    -9.771832    -9.764821    -9.726621    -0.882322    -0.650113    -0.567153    -0.502854    -0.382189    -0.381517

        11.1         12.1         13.1         14.1         15.1         16.1         17.1         18.1         19.1
     -0.352515    -0.332472    -0.299433    -0.273437    -0.271281    -0.153579    -0.074155     0.255488     0.347658

 Orbital energies for negative spin:

         1.1          2.1          3.1          4.1          5.1          6.1          7.1          8.1          9.1         10.1
    -18.515340    -9.771832    -9.764821    -9.726621    -0.882322    -0.650113    -0.567153    -0.502854    -0.382189    -0.381517

        11.1         12.1         13.1         14.1         15.1         16.1         17.1         18.1         19.1
     -0.352515    -0.332472    -0.299433    -0.273437    -0.271281    -0.153579    -0.074155     0.255488     0.347658

 HOMO     17.1    -0.074155 =      -2.0179eV
 LUMO     18.1     0.255488 =       6.9522eV
 LUMO-HOMO         0.329644 =       8.9701eV

 EXPECTATION VALUE OF S**2:            -0.00000000

 Natural orbitals saved to record    2200.2 (Orbital set 3)

 Orbital spaces for UNO-CAS (Min. occupation: 0.020  Max. occupation: 1.980):

 Closed:       17
 Active:        0


 **********************************************************************************************************************************
 DATASETS  * FILE   NREC   LENGTH (MB)   RECORD NAMES
              1      20       31.92       500      610      700      900      950      970     1000      129      960     1100   
                                          VAR    BASINP    GEOM    SYMINP    ZMAT    AOBASIS   BASIS     P2S    ABASIS      S 
                                         1400     1410     1200     1210     1080     1600     1650     1300     1700     1800   
                                           T        V       H0       H01     AOSYM     SMH    MOLCAS    ERIS     OPER     GRID   

              2       5        2.98       700     1000      520     1800     2200   
                                         GEOM     BASIS   MCVARS    GRID      UKS  

 PROGRAMS   *        TOTAL       UKS       INT
 CPU TIMES  *         4.73      4.26      0.33
 REAL TIME  *         5.47 SEC
 DISK USED  *        35.64 MB      
 **********************************************************************************************************************************


 PROGRAM * Intrinsic Basis Bonding Analysis (IBBA)          Author: G. Knizia

 Molecular orbitals read from record     2200.2  Type=UKS/ALPHA (state 1.1)
 Fock matrix read from record            2200.2  Type=UKS/TOTAL (state 1.1)
 Orbital energies read from record       2200.2  Type=UKS/ALPHA (state 1.1)
 Density matrix read from record         2200.2  Type=UKS/CHARGE (state 1.1)

 Number of core orbitals:           4 (   4 )
 Number of closed-shell orbitals:  13 (  13 )

 Basis set MINAO-AUTO-PP generated.      Number of basis functions:   28 

 Polarized AO type:                A = (O Ot + (1-O)(1-Ot)) P12
 Orthogonalization method:         Symmetric (Loewdin)
 Localization functional:          L = sum[A,i] <i|n_A|i>^4 -> max

 Localization group 1:  17 orbitals, occupancy  2.000
 Iterative localization: IB/PM,    7 iter; Final gradient 0.58E-09

 Bond order analysis:       [THRPRINT= 0.020]

   CEN ATOM   CEN ATOM     WIBERG.BO      RENORM.BO
     1   C  -   2   O       1.025122       1.020641
     1   C  -   6   H       0.955289       0.972620
     1   C  -   7   H       0.949706       0.938758
     1   C  -   8   H       0.949706       0.938758

     2   O  -   1   C       1.025122       1.020641
     2   O  -   3   C       1.007243       0.998275
     2   O  -   8   H       0.033699       0.020123
     2   O  -   7   H       0.033699       0.020123
     2   O  -  10   H       0.030997       0.018545
     2   O  -   9   H       0.030997       0.018545

     3   C  -   4   C       1.017977       1.008852
     3   C  -   2   O       1.007243       0.998275
     3   C  -   9   H       0.939013       0.928528
     3   C  -  10   H       0.939013       0.928528

     4   C  -   3   C       1.017977       1.008852
     4   C  -   5   H       0.963601       0.991195
     4   C  -  12   H       0.962061       0.986011
     4   C  -  11   H       0.962061       0.986011

     5   H  -   4   C       0.963601       0.991195

     6   H  -   1   C       0.955289       0.972620

     7   H  -   1   C       0.949706       0.938758
     7   H  -   2   O       0.033699       0.020123

     8   H  -   1   C       0.949706       0.938758
     8   H  -   2   O       0.033699       0.020123

     9   H  -   3   C       0.939013       0.928528
     9   H  -   2   O       0.030997       0.018545

    10   H  -   3   C       0.939013       0.928528
    10   H  -   2   O       0.030997       0.018545

    11   H  -   4   C       0.962061       0.986011

    12   H  -   4   C       0.962061       0.986011


 Valency analysis:

   CEN ATOM   TOT.VALENCE
     1   C       3.901177
     2   O       2.191501
     3   C       3.927348
     4   C       3.932169
     5   H       0.981229
     6   H       0.980660
     7   H       0.987642
     8   H       0.987642
     9   H       0.988056
    10   H       0.988056
    11   H       0.980960
    12   H       0.980960

 Total charge composition:

   CEN ATOM         s          p       ELECTRONS ->P.CHARGE
     1   C       3.01171    3.25125      6.26296   -0.26296
     2   O       3.65672    4.54842      8.20514   -0.20514
     3   C       2.98870    3.13999      6.12869   -0.12869
     4   C       2.99928    3.39689      6.39617   -0.39617
     5   H       0.86299                 0.86299    0.13701
     6   H       0.86093                 0.86093    0.13907
     7   H       0.88883                 0.88883    0.11117
     8   H       0.88883                 0.88883    0.11117
     9   H       0.89071                 0.89071    0.10929
    10   H       0.89071                 0.89071    0.10929
    11   H       0.86202                 0.86202    0.13798
    12   H       0.86202                 0.86202    0.13798

 Total charge composition, AO contributions:

   CEN ATOM SHL      SPHERICAL COMPONENTS
     1   C  1s       1.99255
     1   C  2s       1.01916
     1   C  2p       1.18630    1.17741    0.88754

     2   O  1s       1.99731
     2   O  2s       1.65941
     2   O  2p       1.39454    1.90096    1.25292

     3   C  1s       1.99276
     3   C  2s       0.99594
     3   C  2p       0.92511    1.17351    1.04137

     4   C  1s       1.99187
     4   C  2s       1.00741
     4   C  2p       1.16932    1.17503    1.05254

     5   H  1s       0.86299

     6   H  1s       0.86093

     7   H  1s       0.88883

     8   H  1s       0.88883

     9   H  1s       0.89071

    10   H  1s       0.89071

    11   H  1s       0.86202

    12   H  1s       0.86202

 Summary of localized orbital composition:   [THRPRINT= 0.020]

   ORB  GRP  ORB.ENERGY      CENTERS/CHARGES
     1   1   -18.359357      O  2   2.000
     2   1    -9.670689      C  3   2.000
     3   1    -9.659863      C  1   2.000
     4   1    -9.616054      C  4   2.000
     5   1    -0.600175      O  2   1.163   C  1   0.826
     6   1    -0.590313      O  2   1.166   C  3   0.819
     7   1    -0.485294      C  3   1.006   C  4   0.984
     8   1    -0.433470      C  1   1.140   H  6   0.851
     9   1    -0.429854      C  1   1.130   H  8   0.869
    10   1    -0.429854      C  1   1.130   H  7   0.869
    11   1    -0.427898      O  2   1.969   (other: 0.031)
    12   1    -0.426953      C  3   1.125   H  9   0.867
    13   1    -0.426953      C  3   1.125   H 10   0.867
    14   1    -0.417051      C  4   1.131   H  5   0.857
    15   1    -0.410858      C  4   1.134   H 11   0.856
    16   1    -0.410858      C  4   1.134   H 12   0.856
    17   1    -0.106141      O  2   1.901   C  1   0.020   (other: 0.079)

 Localized orbitals saved to record      2200.2  (orbital set 4)


 **********************************************************************************************************************************
 DATASETS  * FILE   NREC   LENGTH (MB)   RECORD NAMES
              1      20       31.92       500      610      700      900      950      970     1000      129      960     1100   
                                          VAR    BASINP    GEOM    SYMINP    ZMAT    AOBASIS   BASIS     P2S    ABASIS      S 
                                         1400     1410     1200     1210     1080     1600     1650     1300     1700     1800   
                                           T        V       H0       H01     AOSYM     SMH    MOLCAS    ERIS     OPER     GRID   

              2       5        2.99       700     1000      520     1800     2200   
                                         GEOM     BASIS   MCVARS    GRID      UKS  

 PROGRAMS   *        TOTAL      IBBA       UKS       INT
 CPU TIMES  *         4.76      0.02      4.26      0.33
 REAL TIME  *         5.59 SEC
 DISK USED  *        35.64 MB      
 **********************************************************************************************************************************
 Molecular orbitals read from record     2200.2  Type=UKS/LOCAL(IBO)  
 Occupation numbers read from record     2200.2  Type=UKS/LOCAL(IBO)  
 Orbital energies read from record       2200.2  Type=UKS/LOCAL(IBO)  
 Redundancy group numbers read from rec  2200.2  Type=UKS/BETA (state 1.1)

 IBBA/STO-3G energy=      0.000000000000

        UKS-SCF 
   -191.83275930
 **********************************************************************************************************************************
 Molpro calculation terminated
