
 Primary working directories    : /tmp/sb13343
 Secondary working directories  : /tmp/sb13343
 Wavefunction directory         : /panfs/panasas01/chem/sb13343/wfu/
 Main file repository           : /tmp/sb13343/

 SHA1      : b4a5b34a9e711420743f49e6833241d17c61fb3c
 NAME      : 2099.9.b4a5b34
 ARCHNAME  : linux/x86_64_openmp
 FC        : /cm/shared/languages/GCC-6.1/bin/gfortran
 BLASLIB   : -lblas
 id        : simonbennie

 Nodes     nprocs
 node32-034    1

 Using customized tuning parameters: mindgm=1; mindgv=20; mindgc=4; mindgr=1; noblas=0; minvec=7
 default implementation of scratch files=df  

 memory,500,m
 geomtyp=xyz
 nosym
 noorient
 geometry={
 C          0.00000        0.00000        0.00000
 O          0.00000        0.00000        1.40962
 C          1.30608        0.00000        1.95787
 C          1.19221        0.00000        3.47353
 H          2.18666        0.00000        3.93332
 H         -1.04410        0.00000       -0.32474
 H          0.50079       -0.89267       -0.41051
 H          0.50079        0.89267       -0.41051
 H          1.86435       -0.88728        1.61056
 H          1.86435        0.88728        1.61056
 H          0.64981       -0.88690        3.81673
 H          0.64981        0.88690        3.81673
 }
 basis={ default,sto-3g }
 {uks,LSDAC,direct;wf,34,1,0}
 {ibba,bonds=1}

 Variables initialized (895), CPU time= 0.00 sec
 Commands  initialized (725), CPU time= 0.02 sec, 591 directives.
 Default parameters read. Elapsed time= 0.08 sec

 Checking input...
 Passed
1


                                         ***  PROGRAM SYSTEM MOLPRO  ***
                                       Copyright, TTI GmbH Stuttgart, 2015
                                    Version 2099.9 linked May 26 2017 16:03:21


 **********************************************************************************************************************************
 LABEL *                                                                                 
  64 bit serial version                                                                  DATE: 08-Jun-17          TIME: 09:39:59  
 **********************************************************************************************************************************

 SHA1:             b4a5b34a9e711420743f49e6833241d17c61fb3c
 **********************************************************************************************************************************
 SETTING GEOMTYP        =    XYZ

 Variable memory set to  500000000 words,  buffer space 

 ZSYMEL=NOSYM

 SETTING BASIS          =    STO-3G


 Recomputing integrals since basis changed


 Using spherical harmonics

 Library entry C      S STO-3G               selected for orbital group  1
 Library entry C      P STO-3G               selected for orbital group  1
 Library entry O      S STO-3G               selected for orbital group  2
 Library entry O      P STO-3G               selected for orbital group  2
 Library entry H      S STO-3G               selected for orbital group  4


 PROGRAM * SEWARD (Integral evaluation for generally contracted gaussian basis sets)     Author: Roland Lindh, 1990

 Geometry written to block  1 of record 700


 Point group  C1  



 ATOMIC COORDINATES

 NR  ATOM    CHARGE       X              Y              Z

   1  C       6.00    0.000000000    0.000000000    0.000000000
   2  O       8.00    0.000000000    0.000000000    2.663795740
   3  C       6.00    2.468133497    0.000000000    3.699838088
   4  C       6.00    2.252950383    0.000000000    6.564020385
   5  H       1.00    4.132188528    0.000000000    7.432897560
   6  H       1.00   -1.973063047    0.000000000   -0.613669662
   7  H       1.00    0.946355946   -1.686901820   -0.775751471
   8  H       1.00    0.946355946    1.686901820   -0.775751471
   9  H       1.00    3.523110900   -1.676716196    3.043517307
  10  H       1.00    3.523110900    1.676716196    3.043517307
  11  H       1.00    1.227962933   -1.675998100    7.212574391
  12  H       1.00    1.227962933    1.675998100    7.212574391

 Bond lengths in Bohr (Angstrom)

 1-2  2.663795740  1-6  2.066293358  1-7  2.083990804  1-8  2.083990804  2-3  2.676764223
     ( 1.409620000)     ( 1.093435356)     ( 1.102800441)     ( 1.102800441)     ( 1.416482626)

  3- 4  2.872254168   3- 9  2.086890388   3-10  2.086890388   4- 5  2.070382464   4-11  2.068862297
       ( 1.519931450)       ( 1.104334835)       ( 1.104334835)       ( 1.095599218)       ( 1.094794780)

  4-12  2.068862297
       ( 1.094794780)

 Bond angles

  1-2-3  112.77108340   2-1-6  107.27693969   2-1-7  111.85402987   2-1-8  111.85402987

  2- 3- 4  108.47458109   2- 3- 9  110.14508041   2- 3-10  110.14508041   3- 4- 5  110.51724552

  3- 4-11  110.47015208   3- 4-12  110.47015208   4- 3- 9  110.57823876   4- 3-10  110.57823876

  5- 4-11  108.55021133   5- 4-12  108.55021133   6- 1- 7  108.84842497   6- 1- 8  108.84842497

  7- 1- 8  108.08590744   9- 3-10  106.92203462  11- 4-12  108.21261054

 NUCLEAR CHARGE:                   34
 NUMBER OF PRIMITIVE AOS:          84
 NUMBER OF SYMMETRY AOS:           84
 NUMBER OF CONTRACTIONS:           28   (  28A   )
 NUMBER OF CORE ORBITALS:           4   (   4A   )
 NUMBER OF VALENCE ORBITALS:       24   (  24A   )


 NUCLEAR REPULSION ENERGY  133.31979421


 Eigenvalues of metric

         1 0.212E+00 0.234E+00 0.263E+00 0.352E+00 0.360E+00 0.368E+00 0.374E+00 0.394E+00


 Contracted 2-electron integrals neglected if value below      1.0D-11
 AO integral compression algorithm  1   Integral accuracy      1.0D-11

     0.786 MB (compressed) written to integral file ( 77.9%)


 NUMBER OF SORTED TWO-ELECTRON INTEGRALS:      82621.     BUFFER LENGTH:  32768
 NUMBER OF SEGMENTS:   1  SEGMENT LENGTH:      82621      RECORD LENGTH: 524288

 Memory used in sort:       0.64 MW

 SORT1 READ       95283. AND WROTE       67599. INTEGRALS IN      1 RECORDS. CPU TIME:     0.01 SEC, REAL TIME:     0.00 SEC
 SORT2 READ       67599. AND WROTE       82621. INTEGRALS IN      3 RECORDS. CPU TIME:     0.01 SEC, REAL TIME:     0.01 SEC

 FILE SIZES:   FILE 1:    31.0 MBYTE,  FILE 4:     4.2 MBYTE,   TOTAL:     35.2 MBYTE

 OPERATOR DM      FOR CENTER  0  COORDINATES:    0.000000    0.000000    0.000000


 **********************************************************************************************************************************
 DATASETS  * FILE   NREC   LENGTH (MB)   RECORD NAMES
              1      19       30.48       500      610      700      900      950      970     1000      129      960     1100   
                                          VAR    BASINP    GEOM    SYMINP    ZMAT    AOBASIS   BASIS     P2S    ABASIS      S 
                                         1400     1410     1200     1210     1080     1600     1650     1300     1700   
                                           T        V       H0       H01     AOSYM     SMH    MOLCAS    ERIS     OPER   

 PROGRAMS   *        TOTAL       INT
 CPU TIMES  *         0.46      0.32
 REAL TIME  *         0.77 SEC
 DISK USED  *        35.64 MB      
 **********************************************************************************************************************************

 Density functional group LSDAC=PW92C
 Functional: PW92C(Automatically generated (new) PW92C)                        Gradient terms: 0
 Use grid at  1800.2

 Functional: PW92C                     Factor:  1.0000

 Generated new metagrid on record  1800.2 with target accuracy 1.0D-06 and 44796 points in CPU time    1.1
 Computed new grid on record 1800.1 in CPU time    1.2
   15964 words reserved for DFT integration

 PROGRAM * UKS-SCF (Unrestricted Kohn-Sham)     Authors: W. Meyer, H.-J. Werner, P.J. Knowles, 1993

 NUMBER OF ELECTRONS:      17+   17-    SPACE SYMMETRY=1    SPIN SYMMETRY: Singlet 
 CONVERGENCE THRESHOLDS:    1.00E-05 (Density)    1.00E-06 (Energy)
 MAX. NUMBER OF ITERATIONS:       60
 INTERPOLATION TYPE:            DIIS
 INTERPOLATION STEPS:              2 (START)      1 (STEP)
 LEVEL SHIFTS:                 -0.20 (ALPHA)  -0.20 (BETA) 



 Use fine grid record 1800.2 for energy threshold  1.0D-06
 Orbital guess generated from atomic densities. Full valence occupancy:   17

 Molecular orbital dump at record        2200.2

 Initial alpha occupation  17
 Initial beta  occupation  17

 ITERATION    DDIFF          GRAD             ENERGY        2-EL.EN.            DIPOLE MOMENTS         DIIS
    1      0.000D+00      0.000D+00      -166.24790838    450.804402   -0.06196   -0.00000    0.00230    0
    2      0.251D-01      0.830D-02      -166.27713576    446.598476   -0.07022   -0.00000    0.11675    1
    3      0.726D-02      0.345D-02      -166.28220322    447.560011   -0.07862   -0.00000    0.11385    2
    4      0.157D-02      0.581D-03      -166.28243670    447.588312   -0.05861   -0.00000    0.10832    3
    5      0.790D-03      0.220D-03      -166.28247823    447.532779   -0.06737   -0.00000    0.11631    4
    6      0.368D-03      0.724D-04      -166.28248369    447.534783   -0.06670   -0.00000    0.11636    5
    7      0.729D-04      0.274D-04      -166.28248403    447.537040   -0.06628   -0.00000    0.11636    6
    8      0.258D-04      0.777D-05      -166.28248407    447.535908   -0.06656   -0.00000    0.11652    7
    9      0.481D-05      0.807D-06      -166.28248407    447.535861   -0.06656   -0.00000    0.11651    6
   10      0.114D-05      0.388D-06      -166.28248407    447.535900   -0.06656   -0.00000    0.11652    7

 Final alpha occupancy:  17
 Final beta  occupancy:  17

 !UKS STATE 1.1 Energy               -166.282484068248
 Nuclear energy                       133.31979421
 One-electron energy                 -521.22448014
 Two-electron energy                  223.76794994
 Density functional                    -2.14574809     PW92C=-2.14574809
 Virial quotient                       -0.89676258
 !UKS STATE 1.1 Dipole moment          -0.06655857    -0.00000000     0.11651786
 Dipole moment /Debye                  -0.16916393    -0.00000000     0.29613947

 Orbital energies for positive spin:

         1.1          2.1          3.1          4.1          5.1          6.1          7.1          8.1          9.1         10.1
    -15.868218    -7.755819    -7.753685    -7.746039    -0.356710    -0.174609    -0.082848    -0.025148     0.051295     0.070014

        11.1         12.1         13.1         14.1         15.1         16.1         17.1         18.1         19.1
      0.095711     0.114420     0.153163     0.184685     0.196087     0.390866     0.458485     0.759011     0.813947

 Orbital energies for negative spin:

         1.1          2.1          3.1          4.1          5.1          6.1          7.1          8.1          9.1         10.1
    -15.868218    -7.755819    -7.753685    -7.746039    -0.356710    -0.174609    -0.082848    -0.025148     0.051295     0.070014

        11.1         12.1         13.1         14.1         15.1         16.1         17.1         18.1         19.1
      0.095711     0.114420     0.153163     0.184685     0.196087     0.390866     0.458485     0.759011     0.813947

 HOMO     17.1     0.458485 =      12.4760eV
 LUMO     18.1     0.759011 =      20.6537eV
 LUMO-HOMO         0.300526 =       8.1777eV

 EXPECTATION VALUE OF S**2:            -0.00000000

 Natural orbitals saved to record    2200.2 (Orbital set 3)

 Orbital spaces for UNO-CAS (Min. occupation: 0.020  Max. occupation: 1.980):

 Closed:       17
 Active:        0


 **********************************************************************************************************************************
 DATASETS  * FILE   NREC   LENGTH (MB)   RECORD NAMES
              1      20       31.92       500      610      700      900      950      970     1000      129      960     1100   
                                          VAR    BASINP    GEOM    SYMINP    ZMAT    AOBASIS   BASIS     P2S    ABASIS      S 
                                         1400     1410     1200     1210     1080     1600     1650     1300     1700     1800   
                                           T        V       H0       H01     AOSYM     SMH    MOLCAS    ERIS     OPER     GRID   

              2       5        2.98       700     1000      520     1800     2200   
                                         GEOM     BASIS   MCVARS    GRID      UKS  

 PROGRAMS   *        TOTAL       UKS       INT
 CPU TIMES  *         3.23      2.77      0.32
 REAL TIME  *         3.64 SEC
 DISK USED  *        35.64 MB      
 **********************************************************************************************************************************


 PROGRAM * Intrinsic Basis Bonding Analysis (IBBA)          Author: G. Knizia

 Molecular orbitals read from record     2200.2  Type=UKS/ALPHA (state 1.1)
 Fock matrix read from record            2200.2  Type=UKS/TOTAL (state 1.1)
 Orbital energies read from record       2200.2  Type=UKS/ALPHA (state 1.1)
 Density matrix read from record         2200.2  Type=UKS/CHARGE (state 1.1)

 Number of core orbitals:           4 (   4 )
 Number of closed-shell orbitals:  13 (  13 )

 Basis set MINAO-AUTO-PP generated.      Number of basis functions:   28 

 Polarized AO type:                A = (O Ot + (1-O)(1-Ot)) P12
 Orthogonalization method:         Symmetric (Loewdin)
 Localization functional:          L = sum[A,i] <i|n_A|i>^4 -> max

 Localization group 1:  17 orbitals, occupancy  2.000
 Iterative localization: IB/PM,    7 iter; Final gradient 0.20E-08

 Bond order analysis:       [THRPRINT= 0.020]

   CEN ATOM   CEN ATOM     WIBERG.BO      RENORM.BO
     1   C  -   2   O       1.098107       1.050425
     1   C  -   6   H       0.955848       0.952637
     1   C  -   7   H       0.934221       0.897736
     1   C  -   8   H       0.934221       0.897736

     2   O  -   1   C       1.098107       1.050425
     2   O  -   3   C       1.073456       1.027282
     2   O  -   8   H       0.053829       0.030645
     2   O  -   7   H       0.053829       0.030645
     2   O  -  10   H       0.049958       0.028459
     2   O  -   9   H       0.049958       0.028459

     3   C  -   2   O       1.073456       1.027282
     3   C  -   4   C       1.006026       0.999972
     3   C  -  10   H       0.922686       0.888651
     3   C  -   9   H       0.922686       0.888651

     4   C  -   3   C       1.006026       0.999972
     4   C  -   5   H       0.968924       0.987476
     4   C  -  12   H       0.968597       0.983546
     4   C  -  11   H       0.968597       0.983546

     5   H  -   4   C       0.968924       0.987476

     6   H  -   1   C       0.955848       0.952637

     7   H  -   1   C       0.934221       0.897736
     7   H  -   2   O       0.053829       0.030645

     8   H  -   1   C       0.934221       0.897736
     8   H  -   2   O       0.053829       0.030645

     9   H  -   3   C       0.922686       0.888651
     9   H  -   2   O       0.049958       0.028459

    10   H  -   3   C       0.922686       0.888651
    10   H  -   2   O       0.049958       0.028459

    11   H  -   4   C       0.968597       0.983546

    12   H  -   4   C       0.968597       0.983546


 Valency analysis:

   CEN ATOM   TOT.VALENCE
     1   C       3.947503
     2   O       2.431880
     3   C       3.958573
     4   C       3.949859
     5   H       0.995223
     6   H       0.997033
     7   H       0.999378
     8   H       0.999378
     9   H       0.999460
    10   H       0.999460
    11   H       0.995789
    12   H       0.995789

 Total charge composition:

   CEN ATOM         s          p       ELECTRONS ->P.CHARGE
     1   C       2.90954    3.25093      6.16047   -0.16047
     2   O       3.55174    4.35001      7.90175    0.09825
     3   C       2.89805    3.18325      6.08130   -0.08130
     4   C       2.88346    3.32273      6.20619   -0.20619
     5   H       0.93088                 0.93088    0.06912
     6   H       0.94553                 0.94553    0.05447
     7   H       0.97506                 0.97506    0.02494
     8   H       0.97506                 0.97506    0.02494
     9   H       0.97676                 0.97676    0.02324
    10   H       0.97676                 0.97676    0.02324
    11   H       0.93511                 0.93511    0.06489
    12   H       0.93511                 0.93511    0.06489

 Total charge composition, AO contributions:

   CEN ATOM SHL      SPHERICAL COMPONENTS
     1   C  1s       1.99824
     1   C  2s       0.91130
     1   C  2p       1.13962    1.14718    0.96414

     2   O  1s       1.99886
     2   O  2s       1.55288
     2   O  2p       1.34553    1.81801    1.18647

     3   C  1s       1.99828
     3   C  2s       0.89977
     3   C  2p       0.98193    1.14145    1.05987

     4   C  1s       1.99809
     4   C  2s       0.88538
     4   C  2p       1.12506    1.12188    1.07579

     5   H  1s       0.93088

     6   H  1s       0.94553

     7   H  1s       0.97506

     8   H  1s       0.97506

     9   H  1s       0.97676

    10   H  1s       0.97676

    11   H  1s       0.93511

    12   H  1s       0.93511

 Summary of localized orbital composition:   [THRPRINT= 0.020]

   ORB  GRP  ORB.ENERGY      CENTERS/CHARGES
     1   1   -15.769004      O  2   2.000
     2   1    -7.675146      C  3   2.000
     3   1    -7.673880      C  1   2.000
     4   1    -7.663151      C  4   2.000
     5   1    -0.108416      O  2   1.066   C  1   0.920
     6   1    -0.101008      O  2   1.066   C  3   0.915
     7   1    -0.005861      C  4   0.997   C  3   0.990
     8   1     0.030099      C  1   1.064   H  6   0.928
     9   1     0.036023      C  4   1.061   H 12   0.927
    10   1     0.036023      C  4   1.061   H 11   0.927
    11   1     0.037496      C  4   1.065   H  5   0.922
    12   1     0.039508      C  1   1.055   H  7   0.942
    13   1     0.039508      C  1   1.055   H  8   0.942
    14   1     0.040537      C  3   1.048   H  9   0.941
    15   1     0.040537      C  3   1.048   H 10   0.941
    16   1     0.223460      O  2   1.943   (other: 0.057)
    17   1     0.424928      O  2   1.818   C  1   0.043   C  3   0.040   H  7   0.026   H  8   0.026   H  9   0.024   H 10   0.024

 Localized orbitals saved to record      2200.2  (orbital set 4)


 **********************************************************************************************************************************
 DATASETS  * FILE   NREC   LENGTH (MB)   RECORD NAMES
              1      20       31.92       500      610      700      900      950      970     1000      129      960     1100   
                                          VAR    BASINP    GEOM    SYMINP    ZMAT    AOBASIS   BASIS     P2S    ABASIS      S 
                                         1400     1410     1200     1210     1080     1600     1650     1300     1700     1800   
                                           T        V       H0       H01     AOSYM     SMH    MOLCAS    ERIS     OPER     GRID   

              2       5        2.99       700     1000      520     1800     2200   
                                         GEOM     BASIS   MCVARS    GRID      UKS  

 PROGRAMS   *        TOTAL      IBBA       UKS       INT
 CPU TIMES  *         3.25      0.02      2.77      0.32
 REAL TIME  *         3.74 SEC
 DISK USED  *        35.64 MB      
 **********************************************************************************************************************************
 Molecular orbitals read from record     2200.2  Type=UKS/LOCAL(IBO)  
 Occupation numbers read from record     2200.2  Type=UKS/LOCAL(IBO)  
 Orbital energies read from record       2200.2  Type=UKS/LOCAL(IBO)  
 Redundancy group numbers read from rec  2200.2  Type=UKS/BETA (state 1.1)

 IBBA/STO-3G energy=      0.000000000000

        UKS-SCF 
   -166.28248407
 **********************************************************************************************************************************
 Molpro calculation terminated
