
 Primary working directories    : /tmp/sb13343
 Secondary working directories  : /tmp/sb13343
 Wavefunction directory         : /panfs/panasas01/chem/sb13343/wfu/
 Main file repository           : /tmp/sb13343/

 SHA1      : b4a5b34a9e711420743f49e6833241d17c61fb3c
 NAME      : 2099.9.b4a5b34
 ARCHNAME  : linux/x86_64_openmp
 FC        : /cm/shared/languages/GCC-6.1/bin/gfortran
 BLASLIB   : -lblas
 id        : simonbennie

 Nodes     nprocs
 node32-002    1

 Using customized tuning parameters: mindgm=1; mindgv=20; mindgc=4; mindgr=1; noblas=0; minvec=7
 default implementation of scratch files=df  

 memory,500,m
 geomtyp=xyz
 nosym
 noorient
 geometry={
 C          0.00000        0.00000        0.00000
 O          0.00000        0.00000        1.40962
 C          1.30608        0.00000        1.95787
 C          1.19221        0.00000        3.47353
 H          2.18666        0.00000        3.93332
 H         -1.04410        0.00000       -0.32474
 H          0.50079       -0.89267       -0.41051
 H          0.50079        0.89267       -0.41051
 H          1.86435       -0.88728        1.61056
 H          1.86435        0.88728        1.61056
 H          0.64981       -0.88690        3.81673
 H          0.64981        0.88690        3.81673
 }
 basis={ default,sto-3g }
 {ks,B97,direct;wf,34,1,0}
 {ibba,bonds=1}

 Variables initialized (895), CPU time= 0.00 sec
 Commands  initialized (725), CPU time= 0.02 sec, 591 directives.
 Default parameters read. Elapsed time= 0.10 sec

 Checking input...
 Passed
1


                                         ***  PROGRAM SYSTEM MOLPRO  ***
                                       Copyright, TTI GmbH Stuttgart, 2015
                                    Version 2099.9 linked May 26 2017 16:03:21


 **********************************************************************************************************************************
 LABEL *                                                                                 
  64 bit serial version                                                                  DATE: 08-Jun-17          TIME: 09:53:51  
 **********************************************************************************************************************************

 SHA1:             b4a5b34a9e711420743f49e6833241d17c61fb3c
 **********************************************************************************************************************************
 SETTING GEOMTYP        =    XYZ

 Variable memory set to  500000000 words,  buffer space 

 ZSYMEL=NOSYM

 SETTING BASIS          =    STO-3G


 Recomputing integrals since basis changed


 Using spherical harmonics

 Library entry C      S STO-3G               selected for orbital group  1
 Library entry C      P STO-3G               selected for orbital group  1
 Library entry O      S STO-3G               selected for orbital group  2
 Library entry O      P STO-3G               selected for orbital group  2
 Library entry H      S STO-3G               selected for orbital group  4


 PROGRAM * SEWARD (Integral evaluation for generally contracted gaussian basis sets)     Author: Roland Lindh, 1990

 Geometry written to block  1 of record 700


 Point group  C1  



 ATOMIC COORDINATES

 NR  ATOM    CHARGE       X              Y              Z

   1  C       6.00    0.000000000    0.000000000    0.000000000
   2  O       8.00    0.000000000    0.000000000    2.663795740
   3  C       6.00    2.468133497    0.000000000    3.699838088
   4  C       6.00    2.252950383    0.000000000    6.564020385
   5  H       1.00    4.132188528    0.000000000    7.432897560
   6  H       1.00   -1.973063047    0.000000000   -0.613669662
   7  H       1.00    0.946355946   -1.686901820   -0.775751471
   8  H       1.00    0.946355946    1.686901820   -0.775751471
   9  H       1.00    3.523110900   -1.676716196    3.043517307
  10  H       1.00    3.523110900    1.676716196    3.043517307
  11  H       1.00    1.227962933   -1.675998100    7.212574391
  12  H       1.00    1.227962933    1.675998100    7.212574391

 Bond lengths in Bohr (Angstrom)

 1-2  2.663795740  1-6  2.066293358  1-7  2.083990804  1-8  2.083990804  2-3  2.676764223
     ( 1.409620000)     ( 1.093435356)     ( 1.102800441)     ( 1.102800441)     ( 1.416482626)

  3- 4  2.872254168   3- 9  2.086890388   3-10  2.086890388   4- 5  2.070382464   4-11  2.068862297
       ( 1.519931450)       ( 1.104334835)       ( 1.104334835)       ( 1.095599218)       ( 1.094794780)

  4-12  2.068862297
       ( 1.094794780)

 Bond angles

  1-2-3  112.77108340   2-1-6  107.27693969   2-1-7  111.85402987   2-1-8  111.85402987

  2- 3- 4  108.47458109   2- 3- 9  110.14508041   2- 3-10  110.14508041   3- 4- 5  110.51724552

  3- 4-11  110.47015208   3- 4-12  110.47015208   4- 3- 9  110.57823876   4- 3-10  110.57823876

  5- 4-11  108.55021133   5- 4-12  108.55021133   6- 1- 7  108.84842497   6- 1- 8  108.84842497

  7- 1- 8  108.08590744   9- 3-10  106.92203462  11- 4-12  108.21261054

 NUCLEAR CHARGE:                   34
 NUMBER OF PRIMITIVE AOS:          84
 NUMBER OF SYMMETRY AOS:           84
 NUMBER OF CONTRACTIONS:           28   (  28A   )
 NUMBER OF CORE ORBITALS:           4   (   4A   )
 NUMBER OF VALENCE ORBITALS:       24   (  24A   )


 NUCLEAR REPULSION ENERGY  133.31979421


 Eigenvalues of metric

         1 0.212E+00 0.234E+00 0.263E+00 0.352E+00 0.360E+00 0.368E+00 0.374E+00 0.394E+00


 Contracted 2-electron integrals neglected if value below      1.0D-11
 AO integral compression algorithm  1   Integral accuracy      1.0D-11

     0.786 MB (compressed) written to integral file ( 77.9%)


 NUMBER OF SORTED TWO-ELECTRON INTEGRALS:      82621.     BUFFER LENGTH:  32768
 NUMBER OF SEGMENTS:   1  SEGMENT LENGTH:      82621      RECORD LENGTH: 524288

 Memory used in sort:       0.64 MW

 SORT1 READ       95283. AND WROTE       67599. INTEGRALS IN      1 RECORDS. CPU TIME:     0.00 SEC, REAL TIME:     0.01 SEC
 SORT2 READ       67599. AND WROTE       82621. INTEGRALS IN      3 RECORDS. CPU TIME:     0.01 SEC, REAL TIME:     0.01 SEC

 FILE SIZES:   FILE 1:    31.0 MBYTE,  FILE 4:     4.2 MBYTE,   TOTAL:     35.2 MBYTE

 OPERATOR DM      FOR CENTER  0  COORDINATES:    0.000000    0.000000    0.000000


 **********************************************************************************************************************************
 DATASETS  * FILE   NREC   LENGTH (MB)   RECORD NAMES
              1      19       30.48       500      610      700      900      950      970     1000      129      960     1100   
                                          VAR    BASINP    GEOM    SYMINP    ZMAT    AOBASIS   BASIS     P2S    ABASIS      S 
                                         1400     1410     1200     1210     1080     1600     1650     1300     1700   
                                           T        V       H0       H01     AOSYM     SMH    MOLCAS    ERIS     OPER   

 PROGRAMS   *        TOTAL       INT
 CPU TIMES  *         0.47      0.32
 REAL TIME  *         1.16 SEC
 DISK USED  *        35.64 MB      
 **********************************************************************************************************************************

 Density functional group B97=B97DF
 Functional: B97DF(Automatically generated (new) B97DF)                        Gradient terms: 1
 Use grid at  1800.2


 Exact exchange will be calculated, factor:  0.1943

 Functional: B97DF                     Factor:  1.0000

 Generated new metagrid on record  1800.2 with target accuracy 1.0D-06 and 44796 points in CPU time    1.2
 Computed new grid on record 1800.1 in CPU time    1.3
   26632 words reserved for DFT integration

 PROGRAM * RKS-SCF (Restricted closed shell Kohn-Sham)     Authors: W. Meyer, H.-J. Werner, P.J. Knowles, 1993

 NUMBER OF ELECTRONS:      17+   17-    SPACE SYMMETRY=1    SPIN SYMMETRY: Singlet 
 CONVERGENCE THRESHOLDS:    1.00E-05 (Density)    1.00E-06 (Energy)
 MAX. NUMBER OF ITERATIONS:       60
 INTERPOLATION TYPE:            DIIS
 INTERPOLATION STEPS:              2 (START)      1 (STEP)
 LEVEL SHIFTS:                  0.00 (CLOSED)  0.00 (OPEN) 



 Use fine grid record 1800.2 for energy threshold  1.0D-06
 Orbital guess generated from atomic densities. Full valence occupancy:   17

 Molecular orbital dump at record        2100.2

 Initial occupancy:  17

 ITERATION    DDIFF          GRAD             ENERGY        2-EL.EN.            DIPOLE MOMENTS         DIIS   ORB.
    1      0.000D+00      0.000D+00      -191.66091189    453.992512    1.00865   -0.00000   -0.60797    0    start
    2      0.000D+00      0.259D-01      -191.71841162    436.507228   -0.36009   -0.00000    0.39672    1    diag
    3      0.861D-01      0.222D-01      -191.83927934    443.773897    0.42789   -0.00000   -0.21475    2    diag
    4      0.401D-01      0.281D-02      -191.84093097    443.973472    0.35377   -0.00000   -0.16799    3    diag
    5      0.514D-02      0.604D-03      -191.84100956    443.931297    0.36007   -0.00000   -0.17001    4    diag
    6      0.908D-03      0.479D-04      -191.84101008    443.930476    0.36049   -0.00000   -0.17064    5    diag
    7      0.110D-03      0.174D-04      -191.84101015    443.930625    0.36101   -0.00000   -0.17067    6    diag
    8      0.312D-04      0.110D-05      -191.84101015    443.930539    0.36094   -0.00000   -0.17068    7    diag
    9      0.259D-05      0.266D-06      -191.84101015    443.930510    0.36094   -0.00000   -0.17067    0    orth

 Final occupancy:  17

 !RKS STATE 1.1 Energy               -191.841010152723
 Nuclear energy                       133.31979421
 One-electron energy                 -524.44788251
 Two-electron energy                  221.96525485
 SCF exchange energy                  -26.74082714     Factor= 0.1943
 Density functional                   -22.67817670     B97DF=-22.67817670
 Virial quotient                       -1.01595310
 !RKS STATE 1.1 Dipole moment           0.36093612    -0.00000000    -0.17067248
 Dipole moment /Debye                   0.91734803    -0.00000000    -0.43377775

 Orbital energies:

         1.1          2.1          3.1          4.1          5.1          6.1          7.1          8.1          9.1         10.1
    -18.858505   -10.040560   -10.033743    -9.993016    -0.968575    -0.719591    -0.631673    -0.564419    -0.434403    -0.429461

        11.1         12.1         13.1         14.1         15.1         16.1         17.1         18.1         19.1
     -0.402039    -0.381320    -0.344633    -0.316272    -0.315694    -0.204187    -0.130506     0.304932     0.398308

 HOMO     17.1    -0.130506 =      -3.5512eV
 LUMO     18.1     0.304932 =       8.2976eV
 LUMO-HOMO         0.435437 =      11.8488eV


 **********************************************************************************************************************************
 DATASETS  * FILE   NREC   LENGTH (MB)   RECORD NAMES
              1      20       31.92       500      610      700      900      950      970     1000      129      960     1100   
                                          VAR    BASINP    GEOM    SYMINP    ZMAT    AOBASIS   BASIS     P2S    ABASIS      S 
                                         1400     1410     1200     1210     1080     1600     1650     1300     1700     1800   
                                           T        V       H0       H01     AOSYM     SMH    MOLCAS    ERIS     OPER     GRID   

              2       5        2.96       700     1000      520     1800     2100   
                                         GEOM     BASIS   MCVARS    GRID      RKS  

 PROGRAMS   *        TOTAL        KS       INT
 CPU TIMES  *         3.76      3.29      0.32
 REAL TIME  *         6.21 SEC
 DISK USED  *        35.64 MB      
 **********************************************************************************************************************************


 PROGRAM * Intrinsic Basis Bonding Analysis (IBBA)          Author: G. Knizia

 Molecular orbitals read from record     2100.2  Type=RKS/CANONICAL (state 1.1)
 Fock matrix read from record            2100.2  Type=RKS/TOTAL (state 1.1)
 Orbital energies read from record       2100.2  Type=RKS/CANONICAL (state 1.1)
 Density matrix read from record         2100.2  Type=RKS/CHARGE (state 1.1)

 Number of core orbitals:           4 (   4 )
 Number of closed-shell orbitals:  13 (  13 )

 Basis set MINAO-AUTO-PP generated.      Number of basis functions:   28 

 Polarized AO type:                A = (O Ot + (1-O)(1-Ot)) P12
 Orthogonalization method:         Symmetric (Loewdin)
 Localization functional:          L = sum[A,i] <i|n_A|i>^4 -> max

 Localization group 1:  17 orbitals, occupancy  2.000
 Iterative localization: IB/PM,    7 iter; Final gradient 0.52E-09

 Bond order analysis:       [THRPRINT= 0.020]

   CEN ATOM   CEN ATOM     WIBERG.BO      RENORM.BO
     1   C  -   2   O       1.018165       1.017935
     1   C  -   6   H       0.956995       0.974796
     1   C  -   7   H       0.953873       0.946149
     1   C  -   8   H       0.953873       0.946149

     2   O  -   1   C       1.018165       1.017935
     2   O  -   3   C       1.001758       0.997683
     2   O  -   8   H       0.029804       0.017716
     2   O  -   7   H       0.029804       0.017716
     2   O  -  10   H       0.027504       0.016374
     2   O  -   9   H       0.027504       0.016374

     3   C  -   4   C       1.016657       1.008824
     3   C  -   2   O       1.001758       0.997683
     3   C  -   9   H       0.943647       0.935928
     3   C  -  10   H       0.943647       0.935928

     4   C  -   3   C       1.016657       1.008824
     4   C  -   5   H       0.965151       0.991677
     4   C  -  12   H       0.963135       0.986888
     4   C  -  11   H       0.963135       0.986888

     5   H  -   4   C       0.965151       0.991677

     6   H  -   1   C       0.956995       0.974796

     7   H  -   1   C       0.953873       0.946149
     7   H  -   2   O       0.029804       0.017716

     8   H  -   1   C       0.953873       0.946149
     8   H  -   2   O       0.029804       0.017716

     9   H  -   3   C       0.943647       0.935928
     9   H  -   2   O       0.027504       0.016374

    10   H  -   3   C       0.943647       0.935928
    10   H  -   2   O       0.027504       0.016374

    11   H  -   4   C       0.963135       0.986888

    12   H  -   4   C       0.963135       0.986888


 Valency analysis:

   CEN ATOM   TOT.VALENCE
     1   C       3.902821
     2   O       2.161532
     3   C       3.928379
     4   C       3.932587
     5   H       0.981751
     6   H       0.980778
     7   H       0.987510
     8   H       0.987510
     9   H       0.988034
    10   H       0.988034
    11   H       0.981267
    12   H       0.981267

 Total charge composition:

   CEN ATOM         s          p       ELECTRONS ->P.CHARGE
     1   C       3.00790    3.24648      6.25438   -0.25438
     2   O       3.65072    4.57265      8.22337   -0.22337
     3   C       2.98504    3.13541      6.12045   -0.12045
     4   C       2.99655    3.39501      6.39156   -0.39156
     5   H       0.86491                 0.86491    0.13509
     6   H       0.86136                 0.86136    0.13864
     7   H       0.88824                 0.88824    0.11176
     8   H       0.88824                 0.88824    0.11176
     9   H       0.89061                 0.89061    0.10939
    10   H       0.89061                 0.89061    0.10939
    11   H       0.86313                 0.86313    0.13687
    12   H       0.86313                 0.86313    0.13687

 Total charge composition, AO contributions:

   CEN ATOM SHL      SPHERICAL COMPONENTS
     1   C  1s       1.99237
     1   C  2s       1.01553
     1   C  2p       1.18550    1.17376    0.88722

     2   O  1s       1.99726
     2   O  2s       1.65346
     2   O  2p       1.40247    1.91404    1.25615

     3   C  1s       1.99258
     3   C  2s       0.99246
     3   C  2p       0.92355    1.16997    1.04189

     4   C  1s       1.99168
     4   C  2s       1.00486
     4   C  2p       1.16877    1.17472    1.05152

     5   H  1s       0.86491

     6   H  1s       0.86136

     7   H  1s       0.88824

     8   H  1s       0.88824

     9   H  1s       0.89061

    10   H  1s       0.89061

    11   H  1s       0.86313

    12   H  1s       0.86313

 Summary of localized orbital composition:   [THRPRINT= 0.020]

   ORB  GRP  ORB.ENERGY      CENTERS/CHARGES
     1   1   -18.695327      O  2   2.000
     2   1    -9.936924      C  3   2.000
     3   1    -9.926191      C  1   2.000
     4   1    -9.879597      C  4   2.000
     5   1    -0.661812      O  2   1.164   C  1   0.826
     6   1    -0.651979      O  2   1.168   C  3   0.819
     7   1    -0.540398      C  3   1.007   C  4   0.983
     8   1    -0.500084      O  2   1.972   (other: 0.028)
     9   1    -0.486153      C  1   1.140   H  6   0.852
    10   1    -0.483761      C  1   1.128   H  7   0.870
    11   1    -0.483761      C  1   1.128   H  8   0.870
    12   1    -0.480536      C  3   1.123   H  9   0.870
    13   1    -0.480536      C  3   1.123   H 10   0.870
    14   1    -0.468729      C  4   1.130   H  5   0.859
    15   1    -0.462578      C  4   1.134   H 11   0.857
    16   1    -0.462578      C  4   1.134   H 12   0.857
    17   1    -0.167655      O  2   1.914   (other: 0.086)

 Localized orbitals saved to record      2100.2  (orbital set 2)


 **********************************************************************************************************************************
 DATASETS  * FILE   NREC   LENGTH (MB)   RECORD NAMES
              1      20       31.92       500      610      700      900      950      970     1000      129      960     1100   
                                          VAR    BASINP    GEOM    SYMINP    ZMAT    AOBASIS   BASIS     P2S    ABASIS      S 
                                         1400     1410     1200     1210     1080     1600     1650     1300     1700     1800   
                                           T        V       H0       H01     AOSYM     SMH    MOLCAS    ERIS     OPER     GRID   

              2       5        2.97       700     1000      520     1800     2100   
                                         GEOM     BASIS   MCVARS    GRID      RKS  

 PROGRAMS   *        TOTAL      IBBA        KS       INT
 CPU TIMES  *         3.79      0.03      3.29      0.32
 REAL TIME  *         6.35 SEC
 DISK USED  *        35.64 MB      
 **********************************************************************************************************************************
 Molecular orbitals read from record     2100.2  Type=RKS/LOCAL(IBO)  
 Occupation numbers read from record     2100.2  Type=RKS/LOCAL(IBO)  
 Orbital energies read from record       2100.2  Type=RKS/LOCAL(IBO)  
 Redundancy group numbers read from rec  2100.2  Type=RKS/LOCAL(IBO)  

 IBBA/STO-3G energy=      0.000000000000

        KS-SCF  
   -191.84101015
 **********************************************************************************************************************************
 Molpro calculation terminated
