
 Primary working directories    : /tmp/sb13343
 Secondary working directories  : /tmp/sb13343
 Wavefunction directory         : /panfs/panasas01/chem/sb13343/wfu/
 Main file repository           : /tmp/sb13343/

 SHA1      : b4a5b34a9e711420743f49e6833241d17c61fb3c
 NAME      : 2099.9.b4a5b34
 ARCHNAME  : linux/x86_64_openmp
 FC        : /cm/shared/languages/GCC-6.1/bin/gfortran
 BLASLIB   : -lblas
 id        : simonbennie

 Nodes     nprocs
 node35-048    1

 Using customized tuning parameters: mindgm=1; mindgv=20; mindgc=4; mindgr=1; noblas=0; minvec=7
 default implementation of scratch files=df  

 memory,500,m
 geomtyp=xyz
 nosym
 noorient
 geometry={
 C          0.00000        0.00000        0.00000
 O          0.00000        0.00000        1.40962
 C          1.30608        0.00000        1.95787
 C          1.19221        0.00000        3.47353
 H          2.18666        0.00000        3.93332
 H         -1.04410        0.00000       -0.32474
 H          0.50079       -0.89267       -0.41051
 H          0.50079        0.89267       -0.41051
 H          1.86435       -0.88728        1.61056
 H          1.86435        0.88728        1.61056
 H          0.64981       -0.88690        3.81673
 H          0.64981        0.88690        3.81673
 }
 basis={ default,sto-3g }
 {uks,HFS,direct;wf,34,1,0}
 {ibba,bonds=1}

 Variables initialized (895), CPU time= 0.00 sec
 Commands  initialized (725), CPU time= 0.01 sec, 591 directives.
 Default parameters read. Elapsed time= 0.09 sec

 Checking input...
 Passed
1


                                         ***  PROGRAM SYSTEM MOLPRO  ***
                                       Copyright, TTI GmbH Stuttgart, 2015
                                    Version 2099.9 linked May 26 2017 16:03:21


 **********************************************************************************************************************************
 LABEL *                                                                                 
  64 bit serial version                                                                  DATE: 08-Jun-17          TIME: 09:54:23  
 **********************************************************************************************************************************

 SHA1:             b4a5b34a9e711420743f49e6833241d17c61fb3c
 **********************************************************************************************************************************
 SETTING GEOMTYP        =    XYZ

 Variable memory set to  500000000 words,  buffer space 

 ZSYMEL=NOSYM

 SETTING BASIS          =    STO-3G


 Recomputing integrals since basis changed


 Using spherical harmonics

 Library entry C      S STO-3G               selected for orbital group  1
 Library entry C      P STO-3G               selected for orbital group  1
 Library entry O      S STO-3G               selected for orbital group  2
 Library entry O      P STO-3G               selected for orbital group  2
 Library entry H      S STO-3G               selected for orbital group  4


 PROGRAM * SEWARD (Integral evaluation for generally contracted gaussian basis sets)     Author: Roland Lindh, 1990

 Geometry written to block  1 of record 700


 Point group  C1  



 ATOMIC COORDINATES

 NR  ATOM    CHARGE       X              Y              Z

   1  C       6.00    0.000000000    0.000000000    0.000000000
   2  O       8.00    0.000000000    0.000000000    2.663795740
   3  C       6.00    2.468133497    0.000000000    3.699838088
   4  C       6.00    2.252950383    0.000000000    6.564020385
   5  H       1.00    4.132188528    0.000000000    7.432897560
   6  H       1.00   -1.973063047    0.000000000   -0.613669662
   7  H       1.00    0.946355946   -1.686901820   -0.775751471
   8  H       1.00    0.946355946    1.686901820   -0.775751471
   9  H       1.00    3.523110900   -1.676716196    3.043517307
  10  H       1.00    3.523110900    1.676716196    3.043517307
  11  H       1.00    1.227962933   -1.675998100    7.212574391
  12  H       1.00    1.227962933    1.675998100    7.212574391

 Bond lengths in Bohr (Angstrom)

 1-2  2.663795740  1-6  2.066293358  1-7  2.083990804  1-8  2.083990804  2-3  2.676764223
     ( 1.409620000)     ( 1.093435356)     ( 1.102800441)     ( 1.102800441)     ( 1.416482626)

  3- 4  2.872254168   3- 9  2.086890388   3-10  2.086890388   4- 5  2.070382464   4-11  2.068862297
       ( 1.519931450)       ( 1.104334835)       ( 1.104334835)       ( 1.095599218)       ( 1.094794780)

  4-12  2.068862297
       ( 1.094794780)

 Bond angles

  1-2-3  112.77108340   2-1-6  107.27693969   2-1-7  111.85402987   2-1-8  111.85402987

  2- 3- 4  108.47458109   2- 3- 9  110.14508041   2- 3-10  110.14508041   3- 4- 5  110.51724552

  3- 4-11  110.47015208   3- 4-12  110.47015208   4- 3- 9  110.57823876   4- 3-10  110.57823876

  5- 4-11  108.55021133   5- 4-12  108.55021133   6- 1- 7  108.84842497   6- 1- 8  108.84842497

  7- 1- 8  108.08590744   9- 3-10  106.92203462  11- 4-12  108.21261054

 NUCLEAR CHARGE:                   34
 NUMBER OF PRIMITIVE AOS:          84
 NUMBER OF SYMMETRY AOS:           84
 NUMBER OF CONTRACTIONS:           28   (  28A   )
 NUMBER OF CORE ORBITALS:           4   (   4A   )
 NUMBER OF VALENCE ORBITALS:       24   (  24A   )


 NUCLEAR REPULSION ENERGY  133.31979421


 Eigenvalues of metric

         1 0.212E+00 0.234E+00 0.263E+00 0.352E+00 0.360E+00 0.368E+00 0.374E+00 0.394E+00


 Contracted 2-electron integrals neglected if value below      1.0D-11
 AO integral compression algorithm  1   Integral accuracy      1.0D-11

     0.786 MB (compressed) written to integral file ( 77.9%)


 NUMBER OF SORTED TWO-ELECTRON INTEGRALS:      82621.     BUFFER LENGTH:  32768
 NUMBER OF SEGMENTS:   1  SEGMENT LENGTH:      82621      RECORD LENGTH: 524288

 Memory used in sort:       0.64 MW

 SORT1 READ       95283. AND WROTE       67599. INTEGRALS IN      1 RECORDS. CPU TIME:     0.00 SEC, REAL TIME:     0.01 SEC
 SORT2 READ       67599. AND WROTE       82621. INTEGRALS IN      3 RECORDS. CPU TIME:     0.01 SEC, REAL TIME:     0.02 SEC

 FILE SIZES:   FILE 1:    31.0 MBYTE,  FILE 4:     4.2 MBYTE,   TOTAL:     35.2 MBYTE

 OPERATOR DM      FOR CENTER  0  COORDINATES:    0.000000    0.000000    0.000000


 **********************************************************************************************************************************
 DATASETS  * FILE   NREC   LENGTH (MB)   RECORD NAMES
              1      19       30.48       500      610      700      900      950      970     1000      129      960     1100   
                                          VAR    BASINP    GEOM    SYMINP    ZMAT    AOBASIS   BASIS     P2S    ABASIS      S 
                                         1400     1410     1200     1210     1080     1600     1650     1300     1700   
                                           T        V       H0       H01     AOSYM     SMH    MOLCAS    ERIS     OPER   

 PROGRAMS   *        TOTAL       INT
 CPU TIMES  *         0.56      0.40
 REAL TIME  *         1.74 SEC
 DISK USED  *        35.64 MB      
 **********************************************************************************************************************************

 Density functional group HFS=DIRAC
 Functional: DIRAC(Automatically generated (new) DIRAC)                        Gradient terms: 0
 Use grid at  1800.2

 Functional: DIRAC                     Factor:  1.0000

 Generated new metagrid on record  1800.2 with target accuracy 1.0D-06 and 44796 points in CPU time    1.2
 Computed new grid on record 1800.1 in CPU time    1.3
   15964 words reserved for DFT integration

 PROGRAM * UKS-SCF (Unrestricted Kohn-Sham)     Authors: W. Meyer, H.-J. Werner, P.J. Knowles, 1993

 NUMBER OF ELECTRONS:      17+   17-    SPACE SYMMETRY=1    SPIN SYMMETRY: Singlet 
 CONVERGENCE THRESHOLDS:    1.00E-05 (Density)    1.00E-06 (Energy)
 MAX. NUMBER OF ITERATIONS:       60
 INTERPOLATION TYPE:            DIIS
 INTERPOLATION STEPS:              2 (START)      1 (STEP)
 LEVEL SHIFTS:                 -0.20 (ALPHA)  -0.20 (BETA) 



 Use fine grid record 1800.2 for energy threshold  1.0D-06
 Orbital guess generated from atomic densities. Full valence occupancy:   17

 Molecular orbital dump at record        2200.2

 Initial alpha occupation  17
 Initial beta  occupation  17

 ITERATION    DDIFF          GRAD             ENERGY        2-EL.EN.            DIPOLE MOMENTS         DIIS
    1      0.000D+00      0.000D+00      -187.80120120    465.707299    0.97297   -0.00000   -0.60209    0
    2      0.623D-01      0.195D-01      -188.00598648    452.405153    0.16090   -0.00000   -0.01859    1
    3      0.109D-01      0.464D-02      -188.01643249    454.550951    0.34342   -0.00000   -0.15149    2
    4      0.155D-02      0.501D-03      -188.01660434    454.528985    0.33983   -0.00000   -0.14815    3
    5      0.572D-03      0.196D-03      -188.01663288    454.518511    0.34370   -0.00000   -0.15187    4
    6      0.219D-03      0.417D-04      -188.01663505    454.515810    0.34173   -0.00000   -0.15163    5
    7      0.475D-04      0.176D-04      -188.01663522    454.517247    0.34254   -0.00000   -0.15197    6
    8      0.115D-04      0.328D-05      -188.01663523    454.517175    0.34240   -0.00000   -0.15193    6
    9      0.172D-05      0.298D-06      -188.01663523    454.517189    0.34240   -0.00000   -0.15194    6
   10      0.307D-06      0.828D-07      -188.01663523    454.517201    0.34241   -0.00000   -0.15193    5

 Final alpha occupancy:  17
 Final beta  occupancy:  17

 !UKS STATE 1.1 Energy               -188.016635231168
 Nuclear energy                       133.31979421
 One-electron energy                 -524.56408206
 Two-electron energy                  227.25860068
 Density functional                   -24.03094806     DIRAC=-24.03094806
 Virial quotient                       -0.99721019
 !UKS STATE 1.1 Dipole moment           0.34240521    -0.00000000    -0.15193477
 Dipole moment /Debye                   0.87025024    -0.00000000    -0.38615437

 Orbital energies for positive spin:

         1.1          2.1          3.1          4.1          5.1          6.1          7.1          8.1          9.1         10.1
    -18.241184    -9.541751    -9.533428    -9.496279    -0.808610    -0.579366    -0.495716    -0.432251    -0.319024    -0.317850

        11.1         12.1         13.1         14.1         15.1         16.1         17.1         18.1         19.1
     -0.287617    -0.266145    -0.231624    -0.207060    -0.201842    -0.081556    -0.002769     0.316834     0.408176

 Orbital energies for negative spin:

         1.1          2.1          3.1          4.1          5.1          6.1          7.1          8.1          9.1         10.1
    -18.241184    -9.541751    -9.533428    -9.496279    -0.808610    -0.579366    -0.495716    -0.432251    -0.319024    -0.317850

        11.1         12.1         13.1         14.1         15.1         16.1         17.1         18.1         19.1
     -0.287617    -0.266145    -0.231624    -0.207060    -0.201842    -0.081556    -0.002769     0.316834     0.408176

 HOMO     17.1    -0.002769 =      -0.0754eV
 LUMO     18.1     0.316834 =       8.6215eV
 LUMO-HOMO         0.319604 =       8.6969eV

 EXPECTATION VALUE OF S**2:            -0.00000000

 Natural orbitals saved to record    2200.2 (Orbital set 3)

 Orbital spaces for UNO-CAS (Min. occupation: 0.020  Max. occupation: 1.980):

 Closed:       17
 Active:        0


 **********************************************************************************************************************************
 DATASETS  * FILE   NREC   LENGTH (MB)   RECORD NAMES
              1      20       31.92       500      610      700      900      950      970     1000      129      960     1100   
                                          VAR    BASINP    GEOM    SYMINP    ZMAT    AOBASIS   BASIS     P2S    ABASIS      S 
                                         1400     1410     1200     1210     1080     1600     1650     1300     1700     1800   
                                           T        V       H0       H01     AOSYM     SMH    MOLCAS    ERIS     OPER     GRID   

              2       5        2.98       700     1000      520     1800     2200   
                                         GEOM     BASIS   MCVARS    GRID      UKS  

 PROGRAMS   *        TOTAL       UKS       INT
 CPU TIMES  *         3.45      2.89      0.40
 REAL TIME  *         4.87 SEC
 DISK USED  *        35.64 MB      
 **********************************************************************************************************************************


 PROGRAM * Intrinsic Basis Bonding Analysis (IBBA)          Author: G. Knizia

 Molecular orbitals read from record     2200.2  Type=UKS/ALPHA (state 1.1)
 Fock matrix read from record            2200.2  Type=UKS/TOTAL (state 1.1)
 Orbital energies read from record       2200.2  Type=UKS/ALPHA (state 1.1)
 Density matrix read from record         2200.2  Type=UKS/CHARGE (state 1.1)

 Number of core orbitals:           4 (   4 )
 Number of closed-shell orbitals:  13 (  13 )

 Basis set MINAO-AUTO-PP generated.      Number of basis functions:   28 

 Polarized AO type:                A = (O Ot + (1-O)(1-Ot)) P12
 Orthogonalization method:         Symmetric (Loewdin)
 Localization functional:          L = sum[A,i] <i|n_A|i>^4 -> max

 Localization group 1:  17 orbitals, occupancy  2.000
 Iterative localization: IB/PM,    7 iter; Final gradient 0.66E-09

 Bond order analysis:       [THRPRINT= 0.020]

   CEN ATOM   CEN ATOM     WIBERG.BO      RENORM.BO
     1   C  -   2   O       1.027311       1.020189
     1   C  -   6   H       0.950881       0.971975
     1   C  -   7   H       0.945622       0.937583
     1   C  -   8   H       0.945622       0.937583

     2   O  -   1   C       1.027311       1.020189
     2   O  -   3   C       1.009711       0.997037
     2   O  -   8   H       0.034757       0.020993
     2   O  -   7   H       0.034757       0.020993
     2   O  -  10   H       0.031922       0.019314
     2   O  -   9   H       0.031922       0.019314

     3   C  -   4   C       1.015676       1.006894
     3   C  -   2   O       1.009711       0.997037
     3   C  -   9   H       0.935230       0.927496
     3   C  -  10   H       0.935230       0.927496

     4   C  -   3   C       1.015676       1.006894
     4   C  -   5   H       0.959300       0.991278
     4   C  -  12   H       0.958020       0.986066
     4   C  -  11   H       0.958020       0.986066

     5   H  -   4   C       0.959300       0.991278

     6   H  -   1   C       0.950881       0.971975

     7   H  -   1   C       0.945622       0.937583
     7   H  -   2   O       0.034757       0.020993

     8   H  -   1   C       0.945622       0.937583
     8   H  -   2   O       0.034757       0.020993

     9   H  -   3   C       0.935230       0.927496
     9   H  -   2   O       0.031922       0.019314

    10   H  -   3   C       0.935230       0.927496
    10   H  -   2   O       0.031922       0.019314

    11   H  -   4   C       0.958020       0.986066

    12   H  -   4   C       0.958020       0.986066


 Valency analysis:

   CEN ATOM   TOT.VALENCE
     1   C       3.891097
     2   O       2.202742
     3   C       3.921238
     4   C       3.919670
     5   H       0.978584
     6   H       0.978020
     7   H       0.985615
     8   H       0.985615
     9   H       0.986044
    10   H       0.986044
    11   H       0.978372
    12   H       0.978372

 Total charge composition:

   CEN ATOM         s          p       ELECTRONS ->P.CHARGE
     1   C       3.00314    3.29424      6.29738   -0.29738
     2   O       3.64414    4.54532      8.18945   -0.18945
     3   C       2.97930    3.17578      6.15508   -0.15508
     4   C       2.98837    3.43458      6.42295   -0.42295
     5   H       0.85366                 0.85366    0.14634
     6   H       0.85174                 0.85174    0.14826
     7   H       0.88006                 0.88006    0.11994
     8   H       0.88006                 0.88006    0.11994
     9   H       0.88187                 0.88187    0.11813
    10   H       0.88187                 0.88187    0.11813
    11   H       0.85293                 0.85293    0.14707
    12   H       0.85293                 0.85293    0.14707

 Total charge composition, AO contributions:

   CEN ATOM SHL      SPHERICAL COMPONENTS
     1   C  1s       1.99344
     1   C  2s       1.00970
     1   C  2p       1.20245    1.19377    0.89802

     2   O  1s       1.99752
     2   O  2s       1.64662
     2   O  2p       1.39568    1.89821    1.25143

     3   C  1s       1.99365
     3   C  2s       0.98566
     3   C  2p       0.93620    1.18959    1.05000

     4   C  1s       1.99285
     4   C  2s       0.99552
     4   C  2p       1.18409    1.19001    1.06048

     5   H  1s       0.85366

     6   H  1s       0.85174

     7   H  1s       0.88006

     8   H  1s       0.88006

     9   H  1s       0.88187

    10   H  1s       0.88187

    11   H  1s       0.85293

    12   H  1s       0.85293

 Summary of localized orbital composition:   [THRPRINT= 0.020]

   ORB  GRP  ORB.ENERGY      CENTERS/CHARGES
     1   1   -18.094584      O  2   2.000
     2   1    -9.443045      C  3   2.000
     3   1    -9.431087      C  1   2.000
     4   1    -9.388685      C  4   2.000
     5   1    -0.537528      O  2   1.157   C  1   0.832
     6   1    -0.527201      O  2   1.160   C  3   0.826
     7   1    -0.419124      C  3   1.006   C  4   0.982
     8   1    -0.364263      C  1   1.150   H  6   0.841
     9   1    -0.361258      C  1   1.139   H  8   0.859
    10   1    -0.361258      C  1   1.139   H  7   0.859
    11   1    -0.357832      C  3   1.135   H  9   0.857
    12   1    -0.357832      C  3   1.135   H 10   0.857
    13   1    -0.347734      C  4   1.140   H  5   0.847
    14   1    -0.341193      C  4   1.144   H 11   0.846
    15   1    -0.341193      C  4   1.144   H 12   0.846
    16   1    -0.334412      O  2   1.968   (other: 0.032)
    17   1    -0.035841      O  2   1.898   C  1   0.020   (other: 0.082)

 Localized orbitals saved to record      2200.2  (orbital set 4)


 **********************************************************************************************************************************
 DATASETS  * FILE   NREC   LENGTH (MB)   RECORD NAMES
              1      20       31.92       500      610      700      900      950      970     1000      129      960     1100   
                                          VAR    BASINP    GEOM    SYMINP    ZMAT    AOBASIS   BASIS     P2S    ABASIS      S 
                                         1400     1410     1200     1210     1080     1600     1650     1300     1700     1800   
                                           T        V       H0       H01     AOSYM     SMH    MOLCAS    ERIS     OPER     GRID   

              2       5        2.99       700     1000      520     1800     2200   
                                         GEOM     BASIS   MCVARS    GRID      UKS  

 PROGRAMS   *        TOTAL      IBBA       UKS       INT
 CPU TIMES  *         3.48      0.03      2.89      0.40
 REAL TIME  *         5.35 SEC
 DISK USED  *        35.64 MB      
 **********************************************************************************************************************************
 Molecular orbitals read from record     2200.2  Type=UKS/LOCAL(IBO)  
 Occupation numbers read from record     2200.2  Type=UKS/LOCAL(IBO)  
 Orbital energies read from record       2200.2  Type=UKS/LOCAL(IBO)  
 Redundancy group numbers read from rec  2200.2  Type=UKS/BETA (state 1.1)

 IBBA/STO-3G energy=      0.000000000000

        UKS-SCF 
   -188.01663523
 **********************************************************************************************************************************
 Molpro calculation terminated
