
 Primary working directories    : /tmp/sb13343
 Secondary working directories  : /tmp/sb13343
 Wavefunction directory         : /panfs/panasas01/chem/sb13343/wfu/
 Main file repository           : /tmp/sb13343/

 SHA1      : b4a5b34a9e711420743f49e6833241d17c61fb3c
 NAME      : 2099.9.b4a5b34
 ARCHNAME  : linux/x86_64_openmp
 FC        : /cm/shared/languages/GCC-6.1/bin/gfortran
 BLASLIB   : -lblas
 id        : simonbennie

 Nodes     nprocs
 node32-017    1

 Using customized tuning parameters: mindgm=1; mindgv=20; mindgc=4; mindgr=1; noblas=0; minvec=7
 default implementation of scratch files=df  

 memory,500,m
 geomtyp=xyz
 nosym
 noorient
 geometry={
 C          0.00000        0.00000        0.00000
 O          0.00000        0.00000        1.40962
 C          1.30608        0.00000        1.95787
 C          1.19221        0.00000        3.47353
 H          2.18666        0.00000        3.93332
 H         -1.04410        0.00000       -0.32474
 H          0.50079       -0.89267       -0.41051
 H          0.50079        0.89267       -0.41051
 H          1.86435       -0.88728        1.61056
 H          1.86435        0.88728        1.61056
 H          0.64981       -0.88690        3.81673
 H          0.64981        0.88690        3.81673
 }
 basis={ default,svp }
 {ks,B-LYP,direct;wf,34,1,0}
 {ibba,bonds=1}

 Variables initialized (895), CPU time= 0.00 sec
 Commands  initialized (725), CPU time= 0.02 sec, 591 directives.
 Default parameters read. Elapsed time= 0.08 sec

 Checking input...
 Passed
1


                                         ***  PROGRAM SYSTEM MOLPRO  ***
                                       Copyright, TTI GmbH Stuttgart, 2015
                                    Version 2099.9 linked May 26 2017 16:03:21


 **********************************************************************************************************************************
 LABEL *                                                                                 
  64 bit serial version                                                                  DATE: 08-Jun-17          TIME: 10:06:07  
 **********************************************************************************************************************************

 SHA1:             b4a5b34a9e711420743f49e6833241d17c61fb3c
 **********************************************************************************************************************************
 SETTING GEOMTYP        =    XYZ

 Variable memory set to  500000000 words,  buffer space 

 ZSYMEL=NOSYM

 SETTING BASIS          =    SVP


 Recomputing integrals since basis changed


 Using spherical harmonics

 Library entry C      S def2-SVP             selected for orbital group  1
 Library entry C      P def2-SVP             selected for orbital group  1
 Library entry C      D def2-SVP             selected for orbital group  1
 Library entry O      S def2-SVP             selected for orbital group  2
 Library entry O      P def2-SVP             selected for orbital group  2
 Library entry O      D def2-SVP             selected for orbital group  2
 Library entry H      S def2-SVP             selected for orbital group  4
 Library entry H      P def2-SVP             selected for orbital group  4


 PROGRAM * SEWARD (Integral evaluation for generally contracted gaussian basis sets)     Author: Roland Lindh, 1990

 Geometry written to block  1 of record 700


 Point group  C1  



 ATOMIC COORDINATES

 NR  ATOM    CHARGE       X              Y              Z

   1  C       6.00    0.000000000    0.000000000    0.000000000
   2  O       8.00    0.000000000    0.000000000    2.663795740
   3  C       6.00    2.468133497    0.000000000    3.699838088
   4  C       6.00    2.252950383    0.000000000    6.564020385
   5  H       1.00    4.132188528    0.000000000    7.432897560
   6  H       1.00   -1.973063047    0.000000000   -0.613669662
   7  H       1.00    0.946355946   -1.686901820   -0.775751471
   8  H       1.00    0.946355946    1.686901820   -0.775751471
   9  H       1.00    3.523110900   -1.676716196    3.043517307
  10  H       1.00    3.523110900    1.676716196    3.043517307
  11  H       1.00    1.227962933   -1.675998100    7.212574391
  12  H       1.00    1.227962933    1.675998100    7.212574391

 Bond lengths in Bohr (Angstrom)

 1-2  2.663795740  1-6  2.066293358  1-7  2.083990804  1-8  2.083990804  2-3  2.676764223
     ( 1.409620000)     ( 1.093435356)     ( 1.102800441)     ( 1.102800441)     ( 1.416482626)

  3- 4  2.872254168   3- 9  2.086890388   3-10  2.086890388   4- 5  2.070382464   4-11  2.068862297
       ( 1.519931450)       ( 1.104334835)       ( 1.104334835)       ( 1.095599218)       ( 1.094794780)

  4-12  2.068862297
       ( 1.094794780)

 Bond angles

  1-2-3  112.77108340   2-1-6  107.27693969   2-1-7  111.85402987   2-1-8  111.85402987

  2- 3- 4  108.47458109   2- 3- 9  110.14508041   2- 3-10  110.14508041   3- 4- 5  110.51724552

  3- 4-11  110.47015208   3- 4-12  110.47015208   4- 3- 9  110.57823876   4- 3-10  110.57823876

  5- 4-11  108.55021133   5- 4-12  108.55021133   6- 1- 7  108.84842497   6- 1- 8  108.84842497

  7- 1- 8  108.08590744   9- 3-10  106.92203462  11- 4-12  108.21261054

 NUCLEAR CHARGE:                   34
 NUMBER OF PRIMITIVE AOS:         156
 NUMBER OF SYMMETRY AOS:          152
 NUMBER OF CONTRACTIONS:           96   (  96A   )
 NUMBER OF CORE ORBITALS:           4   (   4A   )
 NUMBER OF VALENCE ORBITALS:       24   (  24A   )


 NUCLEAR REPULSION ENERGY  133.31979421


 Eigenvalues of metric

         1 0.364E-02 0.952E-02 0.147E-01 0.282E-01 0.312E-01 0.319E-01 0.432E-01 0.449E-01


 Contracted 2-electron integrals neglected if value below      1.0D-11
 AO integral compression algorithm  1   Integral accuracy      1.0D-11

     37.487 MB (compressed) written to integral file ( 40.8%)


 NUMBER OF SORTED TWO-ELECTRON INTEGRALS:   10841496.     BUFFER LENGTH:  32768
 NUMBER OF SEGMENTS:   1  SEGMENT LENGTH:   10841496      RECORD LENGTH: 524288

 Memory used in sort:      11.40 MW

 SORT1 READ    11483613. AND WROTE     8333550. INTEGRALS IN     24 RECORDS. CPU TIME:     0.12 SEC, REAL TIME:     0.24 SEC
 SORT2 READ     8333550. AND WROTE    10841496. INTEGRALS IN    143 RECORDS. CPU TIME:     0.25 SEC, REAL TIME:     0.32 SEC

 FILE SIZES:   FILE 1:    68.0 MBYTE,  FILE 4:   100.7 MBYTE,   TOTAL:    168.7 MBYTE

 OPERATOR DM      FOR CENTER  0  COORDINATES:    0.000000    0.000000    0.000000


 **********************************************************************************************************************************
 DATASETS  * FILE   NREC   LENGTH (MB)   RECORD NAMES
              1      19       62.89       500      610      700      900      950      970     1000      129      960     1100   
                                          VAR    BASINP    GEOM    SYMINP    ZMAT    AOBASIS   BASIS     P2S    ABASIS      S 
                                         1400     1410     1200     1210     1080     1600     1650     1300     1700   
                                           T        V       H0       H01     AOSYM     SMH    MOLCAS    ERIS     OPER   

 PROGRAMS   *        TOTAL       INT
 CPU TIMES  *         1.72      1.59
 REAL TIME  *         2.35 SEC
 DISK USED  *       169.15 MB      
 **********************************************************************************************************************************

 Density functional group B-LYP=B88+LYP
 Functional: B88(Automatically generated (new) B88)                            Gradient terms: 1
 Functional: LYP(Automatically generated (new) LYP)                            Gradient terms: 1
 Use grid at  1800.2

 Functional: B88                       Factor:  1.0000
 Functional: LYP                       Factor:  1.0000

 Generated new metagrid on record  1800.2 with target accuracy 1.0D-06 and 44796 points in CPU time    1.1
 Computed new grid on record 1800.1 in CPU time    1.2
   80368 words reserved for DFT integration

 PROGRAM * RKS-SCF (Restricted closed shell Kohn-Sham)     Authors: W. Meyer, H.-J. Werner, P.J. Knowles, 1993

 NUMBER OF ELECTRONS:      17+   17-    SPACE SYMMETRY=1    SPIN SYMMETRY: Singlet 
 CONVERGENCE THRESHOLDS:    1.00E-05 (Density)    1.00E-06 (Energy)
 MAX. NUMBER OF ITERATIONS:       60
 INTERPOLATION TYPE:            DIIS
 INTERPOLATION STEPS:              2 (START)      1 (STEP)
 LEVEL SHIFTS:                  0.00 (CLOSED)  0.00 (OPEN) 



 Use fine grid record 1800.2 for energy threshold  1.0D-06
 Orbital guess generated from atomic densities. Full valence occupancy:   17

 Molecular orbital dump at record        2100.2

 Initial occupancy:  17

 ITERATION    DDIFF          GRAD             ENERGY        2-EL.EN.            DIPOLE MOMENTS         DIIS   ORB.
    1      0.000D+00      0.000D+00      -193.89846933    466.181198    0.77426   -0.00000   -0.50350    0    start
    2      0.000D+00      0.115D-01      -193.60677473    431.912278   -0.76905   -0.00000    0.42554    1    diag
    3      0.348D-01      0.184D-01      -194.08897806    454.022545    0.54190   -0.00000   -0.32781    2    diag
    4      0.255D-01      0.283D-02      -194.09661512    453.147203    0.31946   -0.00000   -0.21392    3    diag
    5      0.266D-02      0.968D-03      -194.09757146    453.008606    0.33911   -0.00000   -0.21600    4    diag
    6      0.726D-03      0.161D-03      -194.09759727    453.068769    0.34303   -0.00000   -0.22081    5    diag
    7      0.168D-03      0.793D-04      -194.09760523    453.071386    0.34589   -0.00000   -0.22111    6    diag
    8      0.657D-04      0.990D-05      -194.09760536    453.076865    0.34510   -0.00000   -0.22150    7    diag
    9      0.102D-04      0.216D-05      -194.09760537    453.077917    0.34542   -0.00000   -0.22142    8    diag
   10      0.266D-05      0.755D-06      -194.09760537    453.077313    0.34536   -0.00000   -0.22143    0    orth

 Final occupancy:  17

 !RKS STATE 1.1 Energy               -194.097605368464
 Nuclear energy                       133.31979421
 One-electron energy                 -526.22219449
 Two-electron energy                  226.53865631
 Density functional                   -27.73386140     B88=-26.62333981 LYP= -1.11052159
 Virial quotient                       -1.00988030
 !RKS STATE 1.1 Dipole moment           0.34535802    -0.00000000    -0.22142862
 Dipole moment /Debye                   0.87775503    -0.00000000    -0.56277856

 Orbital energies:

         1.1          2.1          3.1          4.1          5.1          6.1          7.1          8.1          9.1         10.1
    -18.773256    -9.962984    -9.961368    -9.913224    -0.919125    -0.673420    -0.591669    -0.528129    -0.430885    -0.418552

        11.1         12.1         13.1         14.1         15.1         16.1         17.1         18.1         19.1
     -0.393101    -0.364409    -0.331899    -0.314142    -0.303084    -0.260928    -0.199725     0.039567     0.061447

 HOMO     17.1    -0.199725 =      -5.4348eV
 LUMO     18.1     0.039567 =       1.0767eV
 LUMO-HOMO         0.239291 =       6.5115eV


 **********************************************************************************************************************************
 DATASETS  * FILE   NREC   LENGTH (MB)   RECORD NAMES
              1      20       64.33       500      610      700      900      950      970     1000      129      960     1100   
                                          VAR    BASINP    GEOM    SYMINP    ZMAT    AOBASIS   BASIS     P2S    ABASIS      S 
                                         1400     1410     1200     1210     1080     1600     1650     1300     1700     1800   
                                           T        V       H0       H01     AOSYM     SMH    MOLCAS    ERIS     OPER     GRID   

              2       5        3.14       700     1000      520     1800     2100   
                                         GEOM     BASIS   MCVARS    GRID      RKS  

 PROGRAMS   *        TOTAL        KS       INT
 CPU TIMES  *         9.21      7.49      1.59
 REAL TIME  *        10.48 SEC
 DISK USED  *       169.15 MB      
 **********************************************************************************************************************************


 PROGRAM * Intrinsic Basis Bonding Analysis (IBBA)          Author: G. Knizia

 Molecular orbitals read from record     2100.2  Type=RKS/CANONICAL (state 1.1)
 Fock matrix read from record            2100.2  Type=RKS/TOTAL (state 1.1)
 Orbital energies read from record       2100.2  Type=RKS/CANONICAL (state 1.1)
 Density matrix read from record         2100.2  Type=RKS/CHARGE (state 1.1)

 Number of core orbitals:           4 (   4 )
 Number of closed-shell orbitals:  13 (  13 )

 Basis set MINAO-AUTO-PP generated.      Number of basis functions:   28 

 Polarized AO type:                A = (O Ot + (1-O)(1-Ot)) P12
 Orthogonalization method:         Symmetric (Loewdin)
 Localization functional:          L = sum[A,i] <i|n_A|i>^4 -> max

 Localization group 1:  17 orbitals, occupancy  2.000
 Iterative localization: IB/PM,    7 iter; Final gradient 0.17E-09

 Bond order analysis:       [THRPRINT= 0.020]

   CEN ATOM   CEN ATOM     WIBERG.BO      RENORM.BO
     1   C  -   2   O       0.996201       1.022146
     1   C  -   6   H       0.959125       0.976703
     1   C  -   7   H       0.946909       0.930718
     1   C  -   8   H       0.946909       0.930718

     2   O  -   1   C       0.996201       1.022146
     2   O  -   3   C       0.974139       0.991044
     2   O  -   8   H       0.036658       0.021728
     2   O  -   7   H       0.036658       0.021728
     2   O  -  10   H       0.032818       0.019413
     2   O  -   9   H       0.032818       0.019413

     3   C  -   4   C       1.030376       1.021887
     3   C  -   2   O       0.974139       0.991044
     3   C  -   9   H       0.934941       0.919693
     3   C  -  10   H       0.934941       0.919693

     4   C  -   3   C       1.030376       1.021887
     4   C  -   5   H       0.962033       0.988098
     4   C  -  12   H       0.959752       0.980301
     4   C  -  11   H       0.959752       0.980301

     5   H  -   4   C       0.962033       0.988098

     6   H  -   1   C       0.959125       0.976703

     7   H  -   1   C       0.946909       0.930718
     7   H  -   2   O       0.036658       0.021728

     8   H  -   1   C       0.946909       0.930718
     8   H  -   2   O       0.036658       0.021728

     9   H  -   3   C       0.934941       0.919693
     9   H  -   2   O       0.032818       0.019413

    10   H  -   3   C       0.934941       0.919693
    10   H  -   2   O       0.032818       0.019413

    11   H  -   4   C       0.959752       0.980301

    12   H  -   4   C       0.959752       0.980301


 Valency analysis:

   CEN ATOM   TOT.VALENCE
     1   C       3.870502
     2   O       2.147022
     3   C       3.898991
     4   C       3.941651
     5   H       0.983146
     6   H       0.979801
     7   H       0.988976
     8   H       0.988976
     9   H       0.990315
    10   H       0.990315
    11   H       0.982116
    12   H       0.982116

 Total charge composition:

   CEN ATOM         s          p       ELECTRONS ->P.CHARGE
     1   C       3.01508    3.16104      6.17612   -0.17612
     2   O       3.59469    4.76959      8.36427   -0.36427
     3   C       2.98263    3.04087      6.02350   -0.02350
     4   C       3.01722    3.36512      6.38234   -0.38234
     5   H       0.87018                 0.87018    0.12982
     6   H       0.85788                 0.85788    0.14212
     7   H       0.89500                 0.89500    0.10500
     8   H       0.89500                 0.89500    0.10500
     9   H       0.90159                 0.90159    0.09841
    10   H       0.90159                 0.90159    0.09841
    11   H       0.86627                 0.86627    0.13373
    12   H       0.86627                 0.86627    0.13373

 Total charge composition, AO contributions:

   CEN ATOM SHL      SPHERICAL COMPONENTS
     1   C  1s       1.99194
     1   C  2s       1.02314
     1   C  2p       1.18118    1.16456    0.81530

     2   O  1s       1.99715
     2   O  2s       1.59753
     2   O  2p       1.51450    1.89756    1.35752

     3   C  1s       1.99220
     3   C  2s       0.99043
     3   C  2p       0.86021    1.15542    1.02524

     4   C  1s       1.99118
     4   C  2s       1.02604
     4   C  2p       1.15449    1.16512    1.04551

     5   H  1s       0.87018

     6   H  1s       0.85788

     7   H  1s       0.89500

     8   H  1s       0.89500

     9   H  1s       0.90159

    10   H  1s       0.90159

    11   H  1s       0.86627

    12   H  1s       0.86627

 Summary of localized orbital composition:   [THRPRINT= 0.020]

   ORB  GRP  ORB.ENERGY      CENTERS/CHARGES
     1   1   -18.635230      O  2   2.000
     2   1    -9.862080      C  3   2.000
     3   1    -9.855467      C  1   2.000
     4   1    -9.801217      C  4   2.000
     5   1    -0.684401      O  2   1.248   C  1   0.743
     6   1    -0.675982      O  2   1.258   C  3   0.729
     7   1    -0.519358      C  3   1.004   C  4   0.988
     8   1    -0.466666      O  2   1.957   (other: 0.043)
     9   1    -0.459246      C  1   1.143   H  6   0.850
    10   1    -0.459062      C  1   1.125   H  8   0.873
    11   1    -0.459062      C  1   1.125   H  7   0.873
    12   1    -0.454818      C  3   1.113   H 10   0.877
    13   1    -0.454818      C  3   1.113   H  9   0.877
    14   1    -0.440882      C  4   1.121   H  5   0.863
    15   1    -0.435048      C  4   1.129   H 11   0.859
    16   1    -0.435048      C  4   1.129   H 12   0.859
    17   1    -0.241515      O  2   1.897   C  1   0.021   C  3   0.020   (other: 0.061)

 Localized orbitals saved to record      2100.2  (orbital set 2)


 **********************************************************************************************************************************
 DATASETS  * FILE   NREC   LENGTH (MB)   RECORD NAMES
              1      20       64.33       500      610      700      900      950      970     1000      129      960     1100   
                                          VAR    BASINP    GEOM    SYMINP    ZMAT    AOBASIS   BASIS     P2S    ABASIS      S 
                                         1400     1410     1200     1210     1080     1600     1650     1300     1700     1800   
                                           T        V       H0       H01     AOSYM     SMH    MOLCAS    ERIS     OPER     GRID   

              2       5        3.21       700     1000      520     1800     2100   
                                         GEOM     BASIS   MCVARS    GRID      RKS  

 PROGRAMS   *        TOTAL      IBBA        KS       INT
 CPU TIMES  *         9.24      0.03      7.49      1.59
 REAL TIME  *        10.62 SEC
 DISK USED  *       169.15 MB      
 **********************************************************************************************************************************
 Molecular orbitals read from record     2100.2  Type=RKS/LOCAL(IBO)  
 Occupation numbers read from record     2100.2  Type=RKS/LOCAL(IBO)  
 Orbital energies read from record       2100.2  Type=RKS/LOCAL(IBO)  
 Redundancy group numbers read from rec  2100.2  Type=RKS/LOCAL(IBO)  

 IBBA/SVP energy=      0.000000000000

        KS-SCF  
   -194.09760537
 **********************************************************************************************************************************
 Molpro calculation terminated
