
 Primary working directories    : /tmp/sb13343
 Secondary working directories  : /tmp/sb13343
 Wavefunction directory         : /panfs/panasas01/chem/sb13343/wfu/
 Main file repository           : /tmp/sb13343/

 SHA1      : b4a5b34a9e711420743f49e6833241d17c61fb3c
 NAME      : 2099.9.b4a5b34
 ARCHNAME  : linux/x86_64_openmp
 FC        : /cm/shared/languages/GCC-6.1/bin/gfortran
 BLASLIB   : -lblas
 id        : simonbennie

 Nodes     nprocs
 node32-029    1

 Using customized tuning parameters: mindgm=1; mindgv=20; mindgc=4; mindgr=1; noblas=0; minvec=7
 default implementation of scratch files=df  

 memory,500,m
 geomtyp=xyz
 nosym
 noorient
 geometry={
 C          0.00000        0.00000        0.00000
 O          0.00000        0.00000        1.40962
 C          1.30608        0.00000        1.95787
 C          1.19221        0.00000        3.47353
 H          2.18666        0.00000        3.93332
 H         -1.04410        0.00000       -0.32474
 H          0.50079       -0.89267       -0.41051
 H          0.50079        0.89267       -0.41051
 H          1.86435       -0.88728        1.61056
 H          1.86435        0.88728        1.61056
 H          0.64981       -0.88690        3.81673
 H          0.64981        0.88690        3.81673
 }
 basis={ default,svp }
 {uks,MM05,direct;wf,34,1,0}
 {ibba,bonds=1}

 Variables initialized (895), CPU time= 0.00 sec
 Commands  initialized (725), CPU time= 0.02 sec, 591 directives.
 Default parameters read. Elapsed time= 4.12 sec

 Checking input...
 Passed
1


                                         ***  PROGRAM SYSTEM MOLPRO  ***
                                       Copyright, TTI GmbH Stuttgart, 2015
                                    Version 2099.9 linked May 26 2017 16:03:21


 **********************************************************************************************************************************
 LABEL *                                                                                 
  64 bit serial version                                                                  DATE: 08-Jun-17          TIME: 09:46:29  
 **********************************************************************************************************************************

 SHA1:             b4a5b34a9e711420743f49e6833241d17c61fb3c
 **********************************************************************************************************************************
 SETTING GEOMTYP        =    XYZ

 Variable memory set to  500000000 words,  buffer space 

 ZSYMEL=NOSYM

 SETTING BASIS          =    SVP


 Recomputing integrals since basis changed


 Using spherical harmonics

 Library entry C      S def2-SVP             selected for orbital group  1
 Library entry C      P def2-SVP             selected for orbital group  1
 Library entry C      D def2-SVP             selected for orbital group  1
 Library entry O      S def2-SVP             selected for orbital group  2
 Library entry O      P def2-SVP             selected for orbital group  2
 Library entry O      D def2-SVP             selected for orbital group  2
 Library entry H      S def2-SVP             selected for orbital group  4
 Library entry H      P def2-SVP             selected for orbital group  4


 PROGRAM * SEWARD (Integral evaluation for generally contracted gaussian basis sets)     Author: Roland Lindh, 1990

 Geometry written to block  1 of record 700


 Point group  C1  



 ATOMIC COORDINATES

 NR  ATOM    CHARGE       X              Y              Z

   1  C       6.00    0.000000000    0.000000000    0.000000000
   2  O       8.00    0.000000000    0.000000000    2.663795740
   3  C       6.00    2.468133497    0.000000000    3.699838088
   4  C       6.00    2.252950383    0.000000000    6.564020385
   5  H       1.00    4.132188528    0.000000000    7.432897560
   6  H       1.00   -1.973063047    0.000000000   -0.613669662
   7  H       1.00    0.946355946   -1.686901820   -0.775751471
   8  H       1.00    0.946355946    1.686901820   -0.775751471
   9  H       1.00    3.523110900   -1.676716196    3.043517307
  10  H       1.00    3.523110900    1.676716196    3.043517307
  11  H       1.00    1.227962933   -1.675998100    7.212574391
  12  H       1.00    1.227962933    1.675998100    7.212574391

 Bond lengths in Bohr (Angstrom)

 1-2  2.663795740  1-6  2.066293358  1-7  2.083990804  1-8  2.083990804  2-3  2.676764223
     ( 1.409620000)     ( 1.093435356)     ( 1.102800441)     ( 1.102800441)     ( 1.416482626)

  3- 4  2.872254168   3- 9  2.086890388   3-10  2.086890388   4- 5  2.070382464   4-11  2.068862297
       ( 1.519931450)       ( 1.104334835)       ( 1.104334835)       ( 1.095599218)       ( 1.094794780)

  4-12  2.068862297
       ( 1.094794780)

 Bond angles

  1-2-3  112.77108340   2-1-6  107.27693969   2-1-7  111.85402987   2-1-8  111.85402987

  2- 3- 4  108.47458109   2- 3- 9  110.14508041   2- 3-10  110.14508041   3- 4- 5  110.51724552

  3- 4-11  110.47015208   3- 4-12  110.47015208   4- 3- 9  110.57823876   4- 3-10  110.57823876

  5- 4-11  108.55021133   5- 4-12  108.55021133   6- 1- 7  108.84842497   6- 1- 8  108.84842497

  7- 1- 8  108.08590744   9- 3-10  106.92203462  11- 4-12  108.21261054

 NUCLEAR CHARGE:                   34
 NUMBER OF PRIMITIVE AOS:         156
 NUMBER OF SYMMETRY AOS:          152
 NUMBER OF CONTRACTIONS:           96   (  96A   )
 NUMBER OF CORE ORBITALS:           4   (   4A   )
 NUMBER OF VALENCE ORBITALS:       24   (  24A   )


 NUCLEAR REPULSION ENERGY  133.31979421


 Eigenvalues of metric

         1 0.364E-02 0.952E-02 0.147E-01 0.282E-01 0.312E-01 0.319E-01 0.432E-01 0.449E-01


 Contracted 2-electron integrals neglected if value below      1.0D-11
 AO integral compression algorithm  1   Integral accuracy      1.0D-11

     37.487 MB (compressed) written to integral file ( 40.8%)


 NUMBER OF SORTED TWO-ELECTRON INTEGRALS:   10841496.     BUFFER LENGTH:  32768
 NUMBER OF SEGMENTS:   1  SEGMENT LENGTH:   10841496      RECORD LENGTH: 524288

 Memory used in sort:      11.40 MW

 SORT1 READ    11483613. AND WROTE     8333550. INTEGRALS IN     24 RECORDS. CPU TIME:     0.14 SEC, REAL TIME:     0.29 SEC
 SORT2 READ     8333550. AND WROTE    10841496. INTEGRALS IN    143 RECORDS. CPU TIME:     0.31 SEC, REAL TIME:     0.37 SEC

 FILE SIZES:   FILE 1:    68.0 MBYTE,  FILE 4:   100.7 MBYTE,   TOTAL:    168.7 MBYTE

 OPERATOR DM      FOR CENTER  0  COORDINATES:    0.000000    0.000000    0.000000


 **********************************************************************************************************************************
 DATASETS  * FILE   NREC   LENGTH (MB)   RECORD NAMES
              1      19       62.89       500      610      700      900      950      970     1000      129      960     1100   
                                          VAR    BASINP    GEOM    SYMINP    ZMAT    AOBASIS   BASIS     P2S    ABASIS      S 
                                         1400     1410     1200     1210     1080     1600     1650     1300     1700   
                                           T        V       H0       H01     AOSYM     SMH    MOLCAS    ERIS     OPER   

 PROGRAMS   *        TOTAL       INT
 CPU TIMES  *         1.99      1.84
 REAL TIME  *         6.87 SEC
 DISK USED  *       169.15 MB      
 **********************************************************************************************************************************

 Density functional group MM05=M05X+M05C
 Functional: M05X(Automatically generated (new) M05X)                          Gradient terms: 2
 Functional: M05C(Automatically generated (new) M05C)                          Gradient terms: 2
 Use grid at  1800.2


 Exact exchange will be calculated, factor:  0.2800

 Functional: M05X                      Factor:  0.7200
 Functional: M05C                      Factor:  1.0000

 Generated new metagrid on record  1800.2 with target accuracy 1.0D-06 and 44796 points in CPU time    1.2
 Computed new grid on record 1800.1 in CPU time    1.3
  153520 words reserved for DFT integration

 PROGRAM * UKS-SCF (Unrestricted Kohn-Sham)     Authors: W. Meyer, H.-J. Werner, P.J. Knowles, 1993

 NUMBER OF ELECTRONS:      17+   17-    SPACE SYMMETRY=1    SPIN SYMMETRY: Singlet 
 CONVERGENCE THRESHOLDS:    1.00E-05 (Density)    1.00E-06 (Energy)
 MAX. NUMBER OF ITERATIONS:       60
 INTERPOLATION TYPE:            DIIS
 INTERPOLATION STEPS:              2 (START)      1 (STEP)
 LEVEL SHIFTS:                 -0.20 (ALPHA)  -0.20 (BETA) 



 Use fine grid record 1800.2 for energy threshold  1.0D-06
 Orbital guess generated from atomic densities. Full valence occupancy:   17

 Molecular orbital dump at record        2200.2

 Initial alpha occupation  17
 Initial beta  occupation  17

 ITERATION    DDIFF          GRAD             ENERGY        2-EL.EN.            DIPOLE MOMENTS         DIIS
    1      0.000D+00      0.000D+00      -193.94535038    447.391031    0.79488   -0.00000   -0.48978    0
    2      0.905D-02      0.451D-02      -194.03938812    436.068752    0.34986   -0.00000   -0.21061    1
    3      0.286D-02      0.188D-02      -194.05202362    438.704228    0.44755   -0.00000   -0.27550    2
    4      0.115D-02      0.387D-03      -194.05299165    438.422155    0.40993   -0.00000   -0.25584    3
    5      0.855D-03      0.186D-03      -194.05334494    438.374156    0.40399   -0.00000   -0.25426    4
    6      0.450D-03      0.568D-04      -194.05339778    438.343421    0.39680   -0.00000   -0.25265    5
    7      0.717D-04      0.116D-04      -194.05339955    438.340216    0.39672   -0.00000   -0.25238    6
    8      0.205D-04      0.490D-05      -194.05339975    438.339006    0.39631   -0.00000   -0.25253    7
    9      0.747D-05      0.139D-05      -194.05339977    438.339341    0.39626   -0.00000   -0.25248    7
   10      0.172D-05      0.296D-06      -194.05339977    438.339623    0.39626   -0.00000   -0.25249    7

 Final alpha occupancy:  17
 Final beta  occupancy:  17

 !UKS STATE 1.1 Energy               -194.053399772866
 Nuclear energy                       133.31979421
 One-electron energy                 -526.28814779
 Two-electron energy                  219.16981148
 Density functional                   -20.25485768     M05X=-26.60015223 M05C= -1.10274808
 Virial quotient                       -1.00955247
 !UKS STATE 1.1 Dipole moment           0.39625966    -0.00000000    -0.25248668
 Dipole moment /Debye                   1.00712564    -0.00000000    -0.64171510

 Orbital energies for positive spin:

         1.1          2.1          3.1          4.1          5.1          6.1          7.1          8.1          9.1         10.1
    -19.172554   -10.263434   -10.259957   -10.208027    -1.044646    -0.773437    -0.682876    -0.613521    -0.498537    -0.490578

        11.1         12.1         13.1         14.1         15.1         16.1         17.1         18.1         19.1
     -0.463197    -0.428231    -0.392255    -0.373560    -0.361568    -0.327118    -0.265652     0.065608     0.088658

 Orbital energies for negative spin:

         1.1          2.1          3.1          4.1          5.1          6.1          7.1          8.1          9.1         10.1
    -19.172554   -10.263434   -10.259957   -10.208027    -1.044646    -0.773437    -0.682876    -0.613521    -0.498537    -0.490578

        11.1         12.1         13.1         14.1         15.1         16.1         17.1         18.1         19.1
     -0.463197    -0.428231    -0.392255    -0.373560    -0.361568    -0.327118    -0.265652     0.065608     0.088658

 HOMO     17.1    -0.265652 =      -7.2288eV
 LUMO     18.1     0.065608 =       1.7853eV
 LUMO-HOMO         0.331260 =       9.0140eV

 EXPECTATION VALUE OF S**2:            -0.00000000

 Natural orbitals saved to record    2200.2 (Orbital set 3)

 Orbital spaces for UNO-CAS (Min. occupation: 0.020  Max. occupation: 1.980):

 Closed:       17
 Active:        0


 **********************************************************************************************************************************
 DATASETS  * FILE   NREC   LENGTH (MB)   RECORD NAMES
              1      20       64.33       500      610      700      900      950      970     1000      129      960     1100   
                                          VAR    BASINP    GEOM    SYMINP    ZMAT    AOBASIS   BASIS     P2S    ABASIS      S 
                                         1400     1410     1200     1210     1080     1600     1650     1300     1700     1800   
                                           T        V       H0       H01     AOSYM     SMH    MOLCAS    ERIS     OPER     GRID   

              2       5        3.33       700     1000      520     1800     2200   
                                         GEOM     BASIS   MCVARS    GRID      UKS  

 PROGRAMS   *        TOTAL       UKS       INT
 CPU TIMES  *        59.03     57.04      1.84
 REAL TIME  *        64.33 SEC
 DISK USED  *       169.15 MB      
 **********************************************************************************************************************************


 PROGRAM * Intrinsic Basis Bonding Analysis (IBBA)          Author: G. Knizia

 Molecular orbitals read from record     2200.2  Type=UKS/ALPHA (state 1.1)
 Fock matrix read from record            2200.2  Type=UKS/TOTAL (state 1.1)
 Orbital energies read from record       2200.2  Type=UKS/ALPHA (state 1.1)
 Density matrix read from record         2200.2  Type=UKS/CHARGE (state 1.1)

 Number of core orbitals:           4 (   4 )
 Number of closed-shell orbitals:  13 (  13 )

 Basis set MINAO-AUTO-PP generated.      Number of basis functions:   28 

 Polarized AO type:                A = (O Ot + (1-O)(1-Ot)) P12
 Orthogonalization method:         Symmetric (Loewdin)
 Localization functional:          L = sum[A,i] <i|n_A|i>^4 -> max

 Localization group 1:  17 orbitals, occupancy  2.000
 Iterative localization: IB/PM,    7 iter; Final gradient 0.22E-09

 Bond order analysis:       [THRPRINT= 0.020]

   CEN ATOM   CEN ATOM     WIBERG.BO      RENORM.BO
     1   C  -   2   O       0.986101       1.020614
     1   C  -   6   H       0.958597       0.977470
     1   C  -   7   H       0.949057       0.936107
     1   C  -   8   H       0.949057       0.936107

     2   O  -   1   C       0.986101       1.020614
     2   O  -   3   C       0.965011       0.991302
     2   O  -   8   H       0.034006       0.020223
     2   O  -   7   H       0.034006       0.020223
     2   O  -  10   H       0.030810       0.018274
     2   O  -   9   H       0.030810       0.018274

     3   C  -   4   C       1.028935       1.020723
     3   C  -   2   O       0.965011       0.991302
     3   C  -   9   H       0.937434       0.924648
     3   C  -  10   H       0.937434       0.924648

     4   C  -   3   C       1.028935       1.020723
     4   C  -   5   H       0.962548       0.989462
     4   C  -  12   H       0.959484       0.981798
     4   C  -  11   H       0.959484       0.981798

     5   H  -   4   C       0.962548       0.989462

     6   H  -   1   C       0.958597       0.977470

     7   H  -   1   C       0.949057       0.936107
     7   H  -   2   O       0.034006       0.020223

     8   H  -   1   C       0.949057       0.936107
     8   H  -   2   O       0.034006       0.020223

     9   H  -   3   C       0.937434       0.924648
     9   H  -   2   O       0.030810       0.018274

    10   H  -   3   C       0.937434       0.924648
    10   H  -   2   O       0.030810       0.018274

    11   H  -   4   C       0.959484       0.981798

    12   H  -   4   C       0.959484       0.981798


 Valency analysis:

   CEN ATOM   TOT.VALENCE
     1   C       3.862172
     2   O       2.114649
     3   C       3.891581
     4   C       3.937387
     5   H       0.981641
     6   H       0.978284
     7   H       0.987673
     8   H       0.987673
     9   H       0.989163
    10   H       0.989163
    11   H       0.980282
    12   H       0.980282

 Total charge composition:

   CEN ATOM         s          p       ELECTRONS ->P.CHARGE
     1   C       3.02229    3.15433      6.17662   -0.17662
     2   O       3.59796    4.79938      8.39734   -0.39734
     3   C       2.98788    3.02979      6.01767   -0.01767
     4   C       3.02594    3.37638      6.40232   -0.40232
     5   H       0.86451                 0.86451    0.13549
     6   H       0.85263                 0.85263    0.14737
     7   H       0.88897                 0.88897    0.11103
     8   H       0.88897                 0.88897    0.11103
     9   H       0.89590                 0.89590    0.10410
    10   H       0.89590                 0.89590    0.10410
    11   H       0.85958                 0.85958    0.14042
    12   H       0.85958                 0.85958    0.14042

 Total charge composition, AO contributions:

   CEN ATOM SHL      SPHERICAL COMPONENTS
     1   C  1s       1.99155
     1   C  2s       1.03074
     1   C  2p       1.18351    1.16491    0.80591

     2   O  1s       1.99706
     2   O  2s       1.60090
     2   O  2p       1.52483    1.90566    1.36890

     3   C  1s       1.99181
     3   C  2s       0.99608
     3   C  2p       0.85233    1.15567    1.02179

     4   C  1s       1.99076
     4   C  2s       1.03518
     4   C  2p       1.15957    1.16971    1.04710

     5   H  1s       0.86451

     6   H  1s       0.85263

     7   H  1s       0.88897

     8   H  1s       0.88897

     9   H  1s       0.89590

    10   H  1s       0.89590

    11   H  1s       0.85958

    12   H  1s       0.85958

 Summary of localized orbital composition:   [THRPRINT= 0.020]

   ORB  GRP  ORB.ENERGY      CENTERS/CHARGES
     1   1   -19.025599      O  2   2.000
     2   1   -10.158646      C  3   2.000
     3   1   -10.149730      C  1   2.000
     4   1   -10.091415      C  4   2.000
     5   1    -0.775294      O  2   1.259   C  1   0.732
     6   1    -0.767392      O  2   1.269   C  3   0.718
     7   1    -0.600838      C  3   1.003   C  4   0.989
     8   1    -0.568181      O  2   1.961   (other: 0.039)
     9   1    -0.530535      C  1   1.148   H  6   0.845
    10   1    -0.530345      C  1   1.130   H  8   0.869
    11   1    -0.530345      C  1   1.130   H  7   0.869
    12   1    -0.526107      C  3   1.118   H 10   0.873
    13   1    -0.526107      C  3   1.118   H  9   0.873
    14   1    -0.510904      C  4   1.127   H  5   0.858
    15   1    -0.504442      C  4   1.136   H 11   0.853
    16   1    -0.504442      C  4   1.136   H 12   0.853
    17   1    -0.318721      O  2   1.905   (other: 0.095)

 Localized orbitals saved to record      2200.2  (orbital set 4)


 **********************************************************************************************************************************
 DATASETS  * FILE   NREC   LENGTH (MB)   RECORD NAMES
              1      20       64.33       500      610      700      900      950      970     1000      129      960     1100   
                                          VAR    BASINP    GEOM    SYMINP    ZMAT    AOBASIS   BASIS     P2S    ABASIS      S 
                                         1400     1410     1200     1210     1080     1600     1650     1300     1700     1800   
                                           T        V       H0       H01     AOSYM     SMH    MOLCAS    ERIS     OPER     GRID   

              2       5        3.40       700     1000      520     1800     2200   
                                         GEOM     BASIS   MCVARS    GRID      UKS  

 PROGRAMS   *        TOTAL      IBBA       UKS       INT
 CPU TIMES  *        59.07      0.04     57.04      1.84
 REAL TIME  *        64.45 SEC
 DISK USED  *       169.15 MB      
 **********************************************************************************************************************************
 Molecular orbitals read from record     2200.2  Type=UKS/LOCAL(IBO)  
 Occupation numbers read from record     2200.2  Type=UKS/LOCAL(IBO)  
 Orbital energies read from record       2200.2  Type=UKS/LOCAL(IBO)  
 Redundancy group numbers read from rec  2200.2  Type=UKS/BETA (state 1.1)

 IBBA/SVP energy=      0.000000000000

        UKS-SCF 
   -194.05339977
 **********************************************************************************************************************************
 Molpro calculation terminated
