
 Primary working directories    : /tmp/sb13343
 Secondary working directories  : /tmp/sb13343
 Wavefunction directory         : /panfs/panasas01/chem/sb13343/wfu/
 Main file repository           : /tmp/sb13343/

 SHA1      : b4a5b34a9e711420743f49e6833241d17c61fb3c
 NAME      : 2099.9.b4a5b34
 ARCHNAME  : linux/x86_64_openmp
 FC        : /cm/shared/languages/GCC-6.1/bin/gfortran
 BLASLIB   : -lblas
 id        : simonbennie

 Nodes     nprocs
 node32-030    1

 Using customized tuning parameters: mindgm=1; mindgv=20; mindgc=4; mindgr=1; noblas=0; minvec=7
 default implementation of scratch files=df  

 memory,500,m
 geomtyp=xyz
 nosym
 noorient
 geometry={
 C          0.00000        0.00000        0.00000
 O          0.00000        0.00000        1.40962
 C          1.30608        0.00000        1.95787
 C          1.19221        0.00000        3.47353
 H          2.18666        0.00000        3.93332
 H         -1.04410        0.00000       -0.32474
 H          0.50079       -0.89267       -0.41051
 H          0.50079        0.89267       -0.41051
 H          1.86435       -0.88728        1.61056
 H          1.86435        0.88728        1.61056
 H          0.64981       -0.88690        3.81673
 H          0.64981        0.88690        3.81673
 }
 basis={ default,svp }
 {ks,HFB,direct;wf,34,1,0}
 {ibba,bonds=1}

 Variables initialized (895), CPU time= 0.01 sec
 Commands  initialized (725), CPU time= 0.01 sec, 591 directives.
 Default parameters read. Elapsed time= 0.08 sec

 Checking input...
 Passed
1


                                         ***  PROGRAM SYSTEM MOLPRO  ***
                                       Copyright, TTI GmbH Stuttgart, 2015
                                    Version 2099.9 linked May 26 2017 16:03:21


 **********************************************************************************************************************************
 LABEL *                                                                                 
  64 bit serial version                                                                  DATE: 08-Jun-17          TIME: 10:08:15  
 **********************************************************************************************************************************

 SHA1:             b4a5b34a9e711420743f49e6833241d17c61fb3c
 **********************************************************************************************************************************
 SETTING GEOMTYP        =    XYZ

 Variable memory set to  500000000 words,  buffer space 

 ZSYMEL=NOSYM

 SETTING BASIS          =    SVP


 Recomputing integrals since basis changed


 Using spherical harmonics

 Library entry C      S def2-SVP             selected for orbital group  1
 Library entry C      P def2-SVP             selected for orbital group  1
 Library entry C      D def2-SVP             selected for orbital group  1
 Library entry O      S def2-SVP             selected for orbital group  2
 Library entry O      P def2-SVP             selected for orbital group  2
 Library entry O      D def2-SVP             selected for orbital group  2
 Library entry H      S def2-SVP             selected for orbital group  4
 Library entry H      P def2-SVP             selected for orbital group  4


 PROGRAM * SEWARD (Integral evaluation for generally contracted gaussian basis sets)     Author: Roland Lindh, 1990

 Geometry written to block  1 of record 700


 Point group  C1  



 ATOMIC COORDINATES

 NR  ATOM    CHARGE       X              Y              Z

   1  C       6.00    0.000000000    0.000000000    0.000000000
   2  O       8.00    0.000000000    0.000000000    2.663795740
   3  C       6.00    2.468133497    0.000000000    3.699838088
   4  C       6.00    2.252950383    0.000000000    6.564020385
   5  H       1.00    4.132188528    0.000000000    7.432897560
   6  H       1.00   -1.973063047    0.000000000   -0.613669662
   7  H       1.00    0.946355946   -1.686901820   -0.775751471
   8  H       1.00    0.946355946    1.686901820   -0.775751471
   9  H       1.00    3.523110900   -1.676716196    3.043517307
  10  H       1.00    3.523110900    1.676716196    3.043517307
  11  H       1.00    1.227962933   -1.675998100    7.212574391
  12  H       1.00    1.227962933    1.675998100    7.212574391

 Bond lengths in Bohr (Angstrom)

 1-2  2.663795740  1-6  2.066293358  1-7  2.083990804  1-8  2.083990804  2-3  2.676764223
     ( 1.409620000)     ( 1.093435356)     ( 1.102800441)     ( 1.102800441)     ( 1.416482626)

  3- 4  2.872254168   3- 9  2.086890388   3-10  2.086890388   4- 5  2.070382464   4-11  2.068862297
       ( 1.519931450)       ( 1.104334835)       ( 1.104334835)       ( 1.095599218)       ( 1.094794780)

  4-12  2.068862297
       ( 1.094794780)

 Bond angles

  1-2-3  112.77108340   2-1-6  107.27693969   2-1-7  111.85402987   2-1-8  111.85402987

  2- 3- 4  108.47458109   2- 3- 9  110.14508041   2- 3-10  110.14508041   3- 4- 5  110.51724552

  3- 4-11  110.47015208   3- 4-12  110.47015208   4- 3- 9  110.57823876   4- 3-10  110.57823876

  5- 4-11  108.55021133   5- 4-12  108.55021133   6- 1- 7  108.84842497   6- 1- 8  108.84842497

  7- 1- 8  108.08590744   9- 3-10  106.92203462  11- 4-12  108.21261054

 NUCLEAR CHARGE:                   34
 NUMBER OF PRIMITIVE AOS:         156
 NUMBER OF SYMMETRY AOS:          152
 NUMBER OF CONTRACTIONS:           96   (  96A   )
 NUMBER OF CORE ORBITALS:           4   (   4A   )
 NUMBER OF VALENCE ORBITALS:       24   (  24A   )


 NUCLEAR REPULSION ENERGY  133.31979421


 Eigenvalues of metric

         1 0.364E-02 0.952E-02 0.147E-01 0.282E-01 0.312E-01 0.319E-01 0.432E-01 0.449E-01


 Contracted 2-electron integrals neglected if value below      1.0D-11
 AO integral compression algorithm  1   Integral accuracy      1.0D-11

     37.487 MB (compressed) written to integral file ( 40.8%)


 NUMBER OF SORTED TWO-ELECTRON INTEGRALS:   10841496.     BUFFER LENGTH:  32768
 NUMBER OF SEGMENTS:   1  SEGMENT LENGTH:   10841496      RECORD LENGTH: 524288

 Memory used in sort:      11.40 MW

 SORT1 READ    11483613. AND WROTE     8333550. INTEGRALS IN     24 RECORDS. CPU TIME:     0.14 SEC, REAL TIME:     0.25 SEC
 SORT2 READ     8333550. AND WROTE    10841496. INTEGRALS IN    143 RECORDS. CPU TIME:     0.27 SEC, REAL TIME:     0.35 SEC

 FILE SIZES:   FILE 1:    68.0 MBYTE,  FILE 4:   100.7 MBYTE,   TOTAL:    168.7 MBYTE

 OPERATOR DM      FOR CENTER  0  COORDINATES:    0.000000    0.000000    0.000000


 **********************************************************************************************************************************
 DATASETS  * FILE   NREC   LENGTH (MB)   RECORD NAMES
              1      19       62.89       500      610      700      900      950      970     1000      129      960     1100   
                                          VAR    BASINP    GEOM    SYMINP    ZMAT    AOBASIS   BASIS     P2S    ABASIS      S 
                                         1400     1410     1200     1210     1080     1600     1650     1300     1700   
                                           T        V       H0       H01     AOSYM     SMH    MOLCAS    ERIS     OPER   

 PROGRAMS   *        TOTAL       INT
 CPU TIMES  *         2.00      1.85
 REAL TIME  *         2.78 SEC
 DISK USED  *       169.15 MB      
 **********************************************************************************************************************************

 Density functional group HFB=B88
 Functional: B88(Automatically generated (new) B88)                            Gradient terms: 1
 Use grid at  1800.2

 Functional: B88                       Factor:  1.0000

 Generated new metagrid on record  1800.2 with target accuracy 1.0D-06 and 44796 points in CPU time    1.1
 Computed new grid on record 1800.1 in CPU time    1.2
   80368 words reserved for DFT integration

 PROGRAM * RKS-SCF (Restricted closed shell Kohn-Sham)     Authors: W. Meyer, H.-J. Werner, P.J. Knowles, 1993

 NUMBER OF ELECTRONS:      17+   17-    SPACE SYMMETRY=1    SPIN SYMMETRY: Singlet 
 CONVERGENCE THRESHOLDS:    1.00E-05 (Density)    1.00E-06 (Energy)
 MAX. NUMBER OF ITERATIONS:       60
 INTERPOLATION TYPE:            DIIS
 INTERPOLATION STEPS:              2 (START)      1 (STEP)
 LEVEL SHIFTS:                  0.00 (CLOSED)  0.00 (OPEN) 



 Use fine grid record 1800.2 for energy threshold  1.0D-06
 Orbital guess generated from atomic densities. Full valence occupancy:   17

 Molecular orbital dump at record        2100.2

 Initial occupancy:  17

 ITERATION    DDIFF          GRAD             ENERGY        2-EL.EN.            DIPOLE MOMENTS         DIIS   ORB.
    1      0.000D+00      0.000D+00      -192.81433218    464.550384    0.72745   -0.00000   -0.47398    0    start
    2      0.000D+00      0.107D-01      -192.56758247    432.866773   -0.69263   -0.00000    0.37745    1    diag
    3      0.328D-01      0.169D-01      -192.98051292    453.302584    0.50601   -0.00000   -0.31074    2    diag
    4      0.237D-01      0.257D-02      -192.98684580    452.442351    0.29853   -0.00000   -0.20270    3    diag
    5      0.246D-02      0.903D-03      -192.98768056    452.324272    0.31929   -0.00000   -0.20627    4    diag
    6      0.681D-03      0.145D-03      -192.98770064    452.375937    0.32191   -0.00000   -0.21014    5    diag
    7      0.152D-03      0.739D-04      -192.98770755    452.377401    0.32438   -0.00000   -0.21036    6    diag
    8      0.613D-04      0.908D-05      -192.98770767    452.382384    0.32369   -0.00000   -0.21074    7    diag
    9      0.934D-05      0.209D-05      -192.98770767    452.384618    0.32422   -0.00000   -0.21063    0    orth

 Final occupancy:  17

 !RKS STATE 1.1 Energy               -192.987707666970
 Nuclear energy                       133.31979421
 One-electron energy                 -525.89760752
 Two-electron energy                  226.19230896
 Density functional                   -26.60220332     B88=-26.60220332
 Virial quotient                       -1.00478366
 !RKS STATE 1.1 Dipole moment           0.32422231    -0.00000000    -0.21063333
 Dipole moment /Debye                   0.82403693    -0.00000000    -0.53534147

 Orbital energies:

         1.1          2.1          3.1          4.1          5.1          6.1          7.1          8.1          9.1         10.1
    -18.738457    -9.928838    -9.928326    -9.880549    -0.886991    -0.642359    -0.560762    -0.497416    -0.398951    -0.387672

        11.1         12.1         13.1         14.1         15.1         16.1         17.1         18.1         19.1
     -0.361930    -0.334166    -0.302046    -0.283353    -0.273606    -0.229791    -0.169024     0.066462     0.087047

 HOMO     17.1    -0.169024 =      -4.5994eV
 LUMO     18.1     0.066462 =       1.8085eV
 LUMO-HOMO         0.235486 =       6.4079eV


 **********************************************************************************************************************************
 DATASETS  * FILE   NREC   LENGTH (MB)   RECORD NAMES
              1      20       64.33       500      610      700      900      950      970     1000      129      960     1100   
                                          VAR    BASINP    GEOM    SYMINP    ZMAT    AOBASIS   BASIS     P2S    ABASIS      S 
                                         1400     1410     1200     1210     1080     1600     1650     1300     1700     1800   
                                           T        V       H0       H01     AOSYM     SMH    MOLCAS    ERIS     OPER     GRID   

              2       5        3.14       700     1000      520     1800     2100   
                                         GEOM     BASIS   MCVARS    GRID      RKS  

 PROGRAMS   *        TOTAL        KS       INT
 CPU TIMES  *         9.10      7.10      1.85
 REAL TIME  *        10.66 SEC
 DISK USED  *       169.15 MB      
 **********************************************************************************************************************************


 PROGRAM * Intrinsic Basis Bonding Analysis (IBBA)          Author: G. Knizia

 Molecular orbitals read from record     2100.2  Type=RKS/CANONICAL (state 1.1)
 Fock matrix read from record            2100.2  Type=RKS/TOTAL (state 1.1)
 Orbital energies read from record       2100.2  Type=RKS/CANONICAL (state 1.1)
 Density matrix read from record         2100.2  Type=RKS/CHARGE (state 1.1)

 Number of core orbitals:           4 (   4 )
 Number of closed-shell orbitals:  13 (  13 )

 Basis set MINAO-AUTO-PP generated.      Number of basis functions:   28 

 Polarized AO type:                A = (O Ot + (1-O)(1-Ot)) P12
 Orthogonalization method:         Symmetric (Loewdin)
 Localization functional:          L = sum[A,i] <i|n_A|i>^4 -> max

 Localization group 1:  17 orbitals, occupancy  2.000
 Iterative localization: IB/PM,    7 iter; Final gradient 0.16E-09

 Bond order analysis:       [THRPRINT= 0.020]

   CEN ATOM   CEN ATOM     WIBERG.BO      RENORM.BO
     1   C  -   2   O       0.998940       1.023895
     1   C  -   6   H       0.961950       0.976293
     1   C  -   7   H       0.948234       0.928927
     1   C  -   8   H       0.948234       0.928927

     2   O  -   1   C       0.998940       1.023895
     2   O  -   3   C       0.976478       0.993254
     2   O  -   8   H       0.037299       0.021896
     2   O  -   7   H       0.037299       0.021896
     2   O  -  10   H       0.033380       0.019556
     2   O  -   9   H       0.033380       0.019556

     3   C  -   4   C       1.030750       1.022596
     3   C  -   2   O       0.976478       0.993254
     3   C  -   9   H       0.936043       0.917984
     3   C  -  10   H       0.936043       0.917984

     4   C  -   3   C       1.030750       1.022596
     4   C  -   5   H       0.964712       0.987868
     4   C  -  12   H       0.962347       0.980092
     4   C  -  11   H       0.962347       0.980092

     5   H  -   4   C       0.964712       0.987868

     6   H  -   1   C       0.961950       0.976293

     7   H  -   1   C       0.948234       0.928927
     7   H  -   2   O       0.037299       0.021896

     8   H  -   1   C       0.948234       0.928927
     8   H  -   2   O       0.037299       0.021896

     9   H  -   3   C       0.936043       0.917984
     9   H  -   2   O       0.033380       0.019556

    10   H  -   3   C       0.936043       0.917984
    10   H  -   2   O       0.033380       0.019556

    11   H  -   4   C       0.962347       0.980092

    12   H  -   4   C       0.962347       0.980092


 Valency analysis:

   CEN ATOM   TOT.VALENCE
     1   C       3.878628
     2   O       2.154406
     3   C       3.903673
     4   C       3.949506
     5   H       0.985609
     6   H       0.982591
     7   H       0.990962
     8   H       0.990962
     9   H       0.992180
    10   H       0.992180
    11   H       0.984637
    12   H       0.984637

 Total charge composition:

   CEN ATOM         s          p       ELECTRONS ->P.CHARGE
     1   C       3.01104    3.13760      6.14863   -0.14863
     2   O       3.59431    4.76545      8.35976   -0.35976
     3   C       2.98013    3.02367      6.00380   -0.00380
     4   C       3.01383    3.34077      6.35460   -0.35460
     5   H       0.88004                 0.88004    0.11996
     6   H       0.86806                 0.86806    0.13194
     7   H       0.90493                 0.90493    0.09507
     8   H       0.90493                 0.90493    0.09507
     9   H       0.91157                 0.91157    0.08843
    10   H       0.91157                 0.91157    0.08843
    11   H       0.87605                 0.87605    0.12395
    12   H       0.87605                 0.87605    0.12395

 Total charge composition, AO contributions:

   CEN ATOM SHL      SPHERICAL COMPONENTS
     1   C  1s       1.99193
     1   C  2s       1.01910
     1   C  2p       1.17029    1.15439    0.81292

     2   O  1s       1.99714
     2   O  2s       1.59717
     2   O  2p       1.51387    1.89476    1.35682

     3   C  1s       1.99218
     3   C  2s       0.98795
     3   C  2p       0.85651    1.14527    1.02189

     4   C  1s       1.99117
     4   C  2s       1.02266
     4   C  2p       1.14404    1.15428    1.04245

     5   H  1s       0.88004

     6   H  1s       0.86806

     7   H  1s       0.90493

     8   H  1s       0.90493

     9   H  1s       0.91157

    10   H  1s       0.91157

    11   H  1s       0.87605

    12   H  1s       0.87605

 Summary of localized orbital composition:   [THRPRINT= 0.020]

   ORB  GRP  ORB.ENERGY      CENTERS/CHARGES
     1   1   -18.600199      O  2   2.000
     2   1    -9.828296      C  3   2.000
     3   1    -9.822967      C  1   2.000
     4   1    -9.769000      C  4   2.000
     5   1    -0.651365      O  2   1.247   C  1   0.743
     6   1    -0.643325      O  2   1.258   C  3   0.729
     7   1    -0.487468      C  3   1.004   C  4   0.989
     8   1    -0.435674      O  2   1.956   (other: 0.044)
     9   1    -0.428799      C  1   1.133   H  6   0.860
    10   1    -0.428416      C  1   1.115   H  8   0.883
    11   1    -0.428416      C  1   1.115   H  7   0.883
    12   1    -0.424407      C  3   1.103   H 10   0.887
    13   1    -0.424407      C  3   1.103   H  9   0.887
    14   1    -0.410772      C  4   1.111   H  5   0.873
    15   1    -0.405313      C  4   1.120   H 11   0.869
    16   1    -0.405313      C  4   1.120   H 12   0.869
    17   1    -0.210096      O  2   1.895   C  1   0.022   C  3   0.021   (other: 0.062)

 Localized orbitals saved to record      2100.2  (orbital set 2)


 **********************************************************************************************************************************
 DATASETS  * FILE   NREC   LENGTH (MB)   RECORD NAMES
              1      20       64.33       500      610      700      900      950      970     1000      129      960     1100   
                                          VAR    BASINP    GEOM    SYMINP    ZMAT    AOBASIS   BASIS     P2S    ABASIS      S 
                                         1400     1410     1200     1210     1080     1600     1650     1300     1700     1800   
                                           T        V       H0       H01     AOSYM     SMH    MOLCAS    ERIS     OPER     GRID   

              2       5        3.21       700     1000      520     1800     2100   
                                         GEOM     BASIS   MCVARS    GRID      RKS  

 PROGRAMS   *        TOTAL      IBBA        KS       INT
 CPU TIMES  *         9.13      0.03      7.10      1.85
 REAL TIME  *        10.76 SEC
 DISK USED  *       169.15 MB      
 **********************************************************************************************************************************
 Molecular orbitals read from record     2100.2  Type=RKS/LOCAL(IBO)  
 Occupation numbers read from record     2100.2  Type=RKS/LOCAL(IBO)  
 Orbital energies read from record       2100.2  Type=RKS/LOCAL(IBO)  
 Redundancy group numbers read from rec  2100.2  Type=RKS/LOCAL(IBO)  

 IBBA/SVP energy=      0.000000000000

        KS-SCF  
   -192.98770767
 **********************************************************************************************************************************
 Molpro calculation terminated
