
 Primary working directories    : /tmp/sb13343
 Secondary working directories  : /tmp/sb13343
 Wavefunction directory         : /panfs/panasas01/chem/sb13343/wfu/
 Main file repository           : /tmp/sb13343/

 SHA1      : b4a5b34a9e711420743f49e6833241d17c61fb3c
 NAME      : 2099.9.b4a5b34
 ARCHNAME  : linux/x86_64_openmp
 FC        : /cm/shared/languages/GCC-6.1/bin/gfortran
 BLASLIB   : -lblas
 id        : simonbennie

 Nodes     nprocs
 node32-017    1

 Using customized tuning parameters: mindgm=1; mindgv=20; mindgc=4; mindgr=1; noblas=0; minvec=7
 default implementation of scratch files=df  

 memory,500,m
 geomtyp=xyz
 nosym
 noorient
 geometry={
 C          0.00000        0.00000        0.00000
 O          0.00000        0.00000        1.40962
 C          1.30608        0.00000        1.95787
 C          1.19221        0.00000        3.47353
 H          2.18666        0.00000        3.93332
 H         -1.04410        0.00000       -0.32474
 H          0.50079       -0.89267       -0.41051
 H          0.50079        0.89267       -0.41051
 H          1.86435       -0.88728        1.61056
 H          1.86435        0.88728        1.61056
 H          0.64981       -0.88690        3.81673
 H          0.64981        0.88690        3.81673
 }
 basis={ default,svp }
 {ks,M08-SO,direct;wf,34,1,0}
 {ibba,bonds=1}

 Variables initialized (895), CPU time= 0.00 sec
 Commands  initialized (725), CPU time= 0.01 sec, 591 directives.
 Default parameters read. Elapsed time= 0.08 sec

 Checking input...
 Passed
1


                                         ***  PROGRAM SYSTEM MOLPRO  ***
                                       Copyright, TTI GmbH Stuttgart, 2015
                                    Version 2099.9 linked May 26 2017 16:03:21


 **********************************************************************************************************************************
 LABEL *                                                                                 
  64 bit serial version                                                                  DATE: 08-Jun-17          TIME: 10:19:59  
 **********************************************************************************************************************************

 SHA1:             b4a5b34a9e711420743f49e6833241d17c61fb3c
 **********************************************************************************************************************************
 SETTING GEOMTYP        =    XYZ

 Variable memory set to  500000000 words,  buffer space 

 ZSYMEL=NOSYM

 SETTING BASIS          =    SVP


 Recomputing integrals since basis changed


 Using spherical harmonics

 Library entry C      S def2-SVP             selected for orbital group  1
 Library entry C      P def2-SVP             selected for orbital group  1
 Library entry C      D def2-SVP             selected for orbital group  1
 Library entry O      S def2-SVP             selected for orbital group  2
 Library entry O      P def2-SVP             selected for orbital group  2
 Library entry O      D def2-SVP             selected for orbital group  2
 Library entry H      S def2-SVP             selected for orbital group  4
 Library entry H      P def2-SVP             selected for orbital group  4


 PROGRAM * SEWARD (Integral evaluation for generally contracted gaussian basis sets)     Author: Roland Lindh, 1990

 Geometry written to block  1 of record 700


 Point group  C1  



 ATOMIC COORDINATES

 NR  ATOM    CHARGE       X              Y              Z

   1  C       6.00    0.000000000    0.000000000    0.000000000
   2  O       8.00    0.000000000    0.000000000    2.663795740
   3  C       6.00    2.468133497    0.000000000    3.699838088
   4  C       6.00    2.252950383    0.000000000    6.564020385
   5  H       1.00    4.132188528    0.000000000    7.432897560
   6  H       1.00   -1.973063047    0.000000000   -0.613669662
   7  H       1.00    0.946355946   -1.686901820   -0.775751471
   8  H       1.00    0.946355946    1.686901820   -0.775751471
   9  H       1.00    3.523110900   -1.676716196    3.043517307
  10  H       1.00    3.523110900    1.676716196    3.043517307
  11  H       1.00    1.227962933   -1.675998100    7.212574391
  12  H       1.00    1.227962933    1.675998100    7.212574391

 Bond lengths in Bohr (Angstrom)

 1-2  2.663795740  1-6  2.066293358  1-7  2.083990804  1-8  2.083990804  2-3  2.676764223
     ( 1.409620000)     ( 1.093435356)     ( 1.102800441)     ( 1.102800441)     ( 1.416482626)

  3- 4  2.872254168   3- 9  2.086890388   3-10  2.086890388   4- 5  2.070382464   4-11  2.068862297
       ( 1.519931450)       ( 1.104334835)       ( 1.104334835)       ( 1.095599218)       ( 1.094794780)

  4-12  2.068862297
       ( 1.094794780)

 Bond angles

  1-2-3  112.77108340   2-1-6  107.27693969   2-1-7  111.85402987   2-1-8  111.85402987

  2- 3- 4  108.47458109   2- 3- 9  110.14508041   2- 3-10  110.14508041   3- 4- 5  110.51724552

  3- 4-11  110.47015208   3- 4-12  110.47015208   4- 3- 9  110.57823876   4- 3-10  110.57823876

  5- 4-11  108.55021133   5- 4-12  108.55021133   6- 1- 7  108.84842497   6- 1- 8  108.84842497

  7- 1- 8  108.08590744   9- 3-10  106.92203462  11- 4-12  108.21261054

 NUCLEAR CHARGE:                   34
 NUMBER OF PRIMITIVE AOS:         156
 NUMBER OF SYMMETRY AOS:          152
 NUMBER OF CONTRACTIONS:           96   (  96A   )
 NUMBER OF CORE ORBITALS:           4   (   4A   )
 NUMBER OF VALENCE ORBITALS:       24   (  24A   )


 NUCLEAR REPULSION ENERGY  133.31979421


 Eigenvalues of metric

         1 0.364E-02 0.952E-02 0.147E-01 0.282E-01 0.312E-01 0.319E-01 0.432E-01 0.449E-01


 Contracted 2-electron integrals neglected if value below      1.0D-11
 AO integral compression algorithm  1   Integral accuracy      1.0D-11

     37.487 MB (compressed) written to integral file ( 40.8%)


 NUMBER OF SORTED TWO-ELECTRON INTEGRALS:   10841496.     BUFFER LENGTH:  32768
 NUMBER OF SEGMENTS:   1  SEGMENT LENGTH:   10841496      RECORD LENGTH: 524288

 Memory used in sort:      11.40 MW

 SORT1 READ    11483613. AND WROTE     8333550. INTEGRALS IN     24 RECORDS. CPU TIME:     0.13 SEC, REAL TIME:     0.24 SEC
 SORT2 READ     8333550. AND WROTE    10841496. INTEGRALS IN    143 RECORDS. CPU TIME:     0.24 SEC, REAL TIME:     0.32 SEC

 FILE SIZES:   FILE 1:    68.0 MBYTE,  FILE 4:   100.7 MBYTE,   TOTAL:    168.7 MBYTE

 OPERATOR DM      FOR CENTER  0  COORDINATES:    0.000000    0.000000    0.000000


 **********************************************************************************************************************************
 DATASETS  * FILE   NREC   LENGTH (MB)   RECORD NAMES
              1      19       62.89       500      610      700      900      950      970     1000      129      960     1100   
                                          VAR    BASINP    GEOM    SYMINP    ZMAT    AOBASIS   BASIS     P2S    ABASIS      S 
                                         1400     1410     1200     1210     1080     1600     1650     1300     1700   
                                           T        V       H0       H01     AOSYM     SMH    MOLCAS    ERIS     OPER   

 PROGRAMS   *        TOTAL       INT
 CPU TIMES  *         1.74      1.61
 REAL TIME  *         2.35 SEC
 DISK USED  *       169.15 MB      
 **********************************************************************************************************************************

 Density functional group M08-SO=XC-M08-SO
 Functional: XC-M08-SO(via MFM 1.6)                                            Gradient terms: 1
 Use grid at  1800.2


 Exact exchange will be calculated, factor:  0.5679

 Functional: XC-M08-SO                 Factor:  1.0000

 Generated new metagrid on record  1800.2 with target accuracy 1.0D-06 and 44796 points in CPU time    1.1
 Computed new grid on record 1800.1 in CPU time    1.2
   80368 words reserved for DFT integration

 PROGRAM * RKS-SCF (Restricted closed shell Kohn-Sham)     Authors: W. Meyer, H.-J. Werner, P.J. Knowles, 1993

 NUMBER OF ELECTRONS:      17+   17-    SPACE SYMMETRY=1    SPIN SYMMETRY: Singlet 
 CONVERGENCE THRESHOLDS:    1.00E-05 (Density)    1.00E-06 (Energy)
 MAX. NUMBER OF ITERATIONS:       60
 INTERPOLATION TYPE:            DIIS
 INTERPOLATION STEPS:              2 (START)      1 (STEP)
 LEVEL SHIFTS:                  0.00 (CLOSED)  0.00 (OPEN) 



 Use fine grid record 1800.2 for energy threshold  1.0D-06
 Orbital guess generated from atomic densities. Full valence occupancy:   17

 Molecular orbital dump at record        2100.2

 Initial occupancy:  17

 ITERATION    DDIFF          GRAD             ENERGY        2-EL.EN.            DIPOLE MOMENTS         DIIS   ORB.
    1      0.000D+00      0.000D+00      -194.00581725    428.419654    0.76520   -0.00000   -0.46990    0    start
    2      0.000D+00      0.647D-02      -194.02615864    416.962876    0.12068    0.00000   -0.09063    1    diag
    3      0.112D-01      0.586D-02      -194.06790023    422.558375    0.44166    0.00000   -0.28345    2    diag
    4      0.524D-02      0.794D-03      -194.06842417    422.363948    0.40228    0.00000   -0.26159    3    diag
    5      0.704D-03      0.344D-03      -194.06855781    422.348817    0.41404    0.00000   -0.26626    4    diag
    6      0.283D-03      0.541D-04      -194.06856166    422.361139    0.41192    0.00000   -0.26640    5    diag
    7      0.604D-04      0.135D-04      -194.06856189    422.362792    0.41236    0.00000   -0.26621    6    diag
    8      0.139D-04      0.364D-05      -194.06856191    422.362346    0.41227    0.00000   -0.26626    7    diag
    9      0.341D-05      0.372D-06      -194.06856191    422.362293    0.41225    0.00000   -0.26625    0    orth

 Final occupancy:  17

 !RKS STATE 1.1 Energy               -194.068561911660
 Nuclear energy                       133.31979421
 One-electron energy                 -525.98022003
 Two-electron energy                  211.18114648
 SCF exchange energy                  -26.54084057     Factor= 0.5679
 Density functional                   -12.58928257     XC-M08-SO=-12.58928257
 Virial quotient                       -1.01209776
 !RKS STATE 1.1 Dipole moment           0.41224772     0.00000000    -0.26625390
 Dipole moment /Debye                   1.04776056     0.00000000    -0.67670558

 Orbital energies:

         1.1          2.1          3.1          4.1          5.1          6.1          7.1          8.1          9.1         10.1
    -19.574337   -10.556928   -10.554033   -10.502879    -1.131582    -0.851058    -0.756037    -0.685489    -0.563338    -0.563294

        11.1         12.1         13.1         14.1         15.1         16.1         17.1         18.1         19.1
     -0.530517    -0.492240    -0.452198    -0.430775    -0.421261    -0.390609    -0.333745     0.085263     0.107591

 HOMO     17.1    -0.333745 =      -9.0817eV
 LUMO     18.1     0.085263 =       2.3201eV
 LUMO-HOMO         0.419008 =      11.4018eV


 **********************************************************************************************************************************
 DATASETS  * FILE   NREC   LENGTH (MB)   RECORD NAMES
              1      20       64.33       500      610      700      900      950      970     1000      129      960     1100   
                                          VAR    BASINP    GEOM    SYMINP    ZMAT    AOBASIS   BASIS     P2S    ABASIS      S 
                                         1400     1410     1200     1210     1080     1600     1650     1300     1700     1800   
                                           T        V       H0       H01     AOSYM     SMH    MOLCAS    ERIS     OPER     GRID   

              2       5        3.14       700     1000      520     1800     2100   
                                         GEOM     BASIS   MCVARS    GRID      RKS  

 PROGRAMS   *        TOTAL        KS       INT
 CPU TIMES  *        17.51     15.77      1.61
 REAL TIME  *        18.28 SEC
 DISK USED  *       169.15 MB      
 **********************************************************************************************************************************


 PROGRAM * Intrinsic Basis Bonding Analysis (IBBA)          Author: G. Knizia

 Molecular orbitals read from record     2100.2  Type=RKS/CANONICAL (state 1.1)
 Fock matrix read from record            2100.2  Type=RKS/TOTAL (state 1.1)
 Orbital energies read from record       2100.2  Type=RKS/CANONICAL (state 1.1)
 Density matrix read from record         2100.2  Type=RKS/CHARGE (state 1.1)

 Number of core orbitals:           4 (   4 )
 Number of closed-shell orbitals:  13 (  13 )

 Basis set MINAO-AUTO-PP generated.      Number of basis functions:   28 

 Polarized AO type:                A = (O Ot + (1-O)(1-Ot)) P12
 Orthogonalization method:         Symmetric (Loewdin)
 Localization functional:          L = sum[A,i] <i|n_A|i>^4 -> max

 Localization group 1:  17 orbitals, occupancy  2.000
 Iterative localization: IB/PM,    7 iter; Final gradient 0.26E-09

 Bond order analysis:       [THRPRINT= 0.020]

   CEN ATOM   CEN ATOM     WIBERG.BO      RENORM.BO
     1   C  -   2   O       0.984837       1.018432
     1   C  -   6   H       0.960170       0.978747
     1   C  -   7   H       0.953635       0.942847
     1   C  -   8   H       0.953635       0.942847

     2   O  -   1   C       0.984837       1.018432
     2   O  -   3   C       0.965813       0.991793
     2   O  -   7   H       0.030705       0.018080
     2   O  -   8   H       0.030705       0.018080
     2   O  -  10   H       0.027962       0.016431
     2   O  -   9   H       0.027962       0.016431

     3   C  -   4   C       1.026111       1.019276
     3   C  -   2   O       0.965813       0.991793
     3   C  -   9   H       0.942108       0.931372
     3   C  -  10   H       0.942108       0.931372

     4   C  -   3   C       1.026111       1.019276
     4   C  -   5   H       0.964209       0.989685
     4   C  -  12   H       0.961127       0.983191
     4   C  -  11   H       0.961127       0.983191

     5   H  -   4   C       0.964209       0.989685

     6   H  -   1   C       0.960170       0.978747

     7   H  -   1   C       0.953635       0.942847
     7   H  -   2   O       0.030705       0.018080

     8   H  -   1   C       0.953635       0.942847
     8   H  -   2   O       0.030705       0.018080

     9   H  -   3   C       0.942108       0.931372
     9   H  -   2   O       0.027962       0.016431

    10   H  -   3   C       0.942108       0.931372
    10   H  -   2   O       0.027962       0.016431

    11   H  -   4   C       0.961127       0.983191

    12   H  -   4   C       0.961127       0.983191


 Valency analysis:

   CEN ATOM   TOT.VALENCE
     1   C       3.870186
     2   O       2.100117
     3   C       3.897770
     4   C       3.938252
     5   H       0.983234
     6   H       0.979279
     7   H       0.988707
     8   H       0.988707
     9   H       0.989980
    10   H       0.989980
    11   H       0.981778
    12   H       0.981778

 Total charge composition:

   CEN ATOM         s          p       ELECTRONS ->P.CHARGE
     1   C       3.00424    3.16070      6.16494   -0.16494
     2   O       3.57594    4.81736      8.39330   -0.39330
     3   C       2.97123    3.04410      6.01534   -0.01534
     4   C       3.00504    3.37753      6.38257   -0.38257
     5   H       0.87052                 0.87052    0.12948
     6   H       0.85605                 0.85605    0.14395
     7   H       0.89373                 0.89373    0.10627
     8   H       0.89373                 0.89373    0.10627
     9   H       0.89990                 0.89990    0.10010
    10   H       0.89990                 0.89990    0.10010
    11   H       0.86501                 0.86501    0.13499
    12   H       0.86501                 0.86501    0.13499

 Total charge composition, AO contributions:

   CEN ATOM SHL      SPHERICAL COMPONENTS
     1   C  1s       1.99173
     1   C  2s       1.01251
     1   C  2p       1.18405    1.16136    0.81529

     2   O  1s       1.99711
     2   O  2s       1.57883
     2   O  2p       1.53146    1.91563    1.37027

     3   C  1s       1.99198
     3   C  2s       0.97925
     3   C  2p       0.86085    1.15411    1.02914

     4   C  1s       1.99097
     4   C  2s       1.01407
     4   C  2p       1.15963    1.16932    1.04857

     5   H  1s       0.87052

     6   H  1s       0.85605

     7   H  1s       0.89373

     8   H  1s       0.89373

     9   H  1s       0.89990

    10   H  1s       0.89990

    11   H  1s       0.86501

    12   H  1s       0.86501

 Summary of localized orbital composition:   [THRPRINT= 0.020]

   ORB  GRP  ORB.ENERGY      CENTERS/CHARGES
     1   1   -19.429239      O  2   2.000
     2   1   -10.451342      C  3   2.000
     3   1   -10.443169      C  1   2.000
     4   1   -10.385792      C  4   2.000
     5   1    -0.856162      O  2   1.251   C  1   0.741
     6   1    -0.847390      O  2   1.260   C  3   0.729
     7   1    -0.665893      C  3   1.007   C  4   0.985
     8   1    -0.630720      O  2   1.964   (other: 0.036)
     9   1    -0.596199      C  1   1.145   H  6   0.849
    10   1    -0.596083      C  1   1.123   H  8   0.876
    11   1    -0.596083      C  1   1.123   H  7   0.876
    12   1    -0.591739      C  3   1.112   H 10   0.878
    13   1    -0.591739      C  3   1.112   H  9   0.878
    14   1    -0.574842      C  4   1.122   H  5   0.864
    15   1    -0.568631      C  4   1.131   H 11   0.859
    16   1    -0.568631      C  4   1.131   H 12   0.859
    17   1    -0.396662      O  2   1.915   (other: 0.085)

 Localized orbitals saved to record      2100.2  (orbital set 2)


 **********************************************************************************************************************************
 DATASETS  * FILE   NREC   LENGTH (MB)   RECORD NAMES
              1      20       64.33       500      610      700      900      950      970     1000      129      960     1100   
                                          VAR    BASINP    GEOM    SYMINP    ZMAT    AOBASIS   BASIS     P2S    ABASIS      S 
                                         1400     1410     1200     1210     1080     1600     1650     1300     1700     1800   
                                           T        V       H0       H01     AOSYM     SMH    MOLCAS    ERIS     OPER     GRID   

              2       5        3.21       700     1000      520     1800     2100   
                                         GEOM     BASIS   MCVARS    GRID      RKS  

 PROGRAMS   *        TOTAL      IBBA        KS       INT
 CPU TIMES  *        17.54      0.03     15.77      1.61
 REAL TIME  *        18.39 SEC
 DISK USED  *       169.15 MB      
 **********************************************************************************************************************************
 Molecular orbitals read from record     2100.2  Type=RKS/LOCAL(IBO)  
 Occupation numbers read from record     2100.2  Type=RKS/LOCAL(IBO)  
 Orbital energies read from record       2100.2  Type=RKS/LOCAL(IBO)  
 Redundancy group numbers read from rec  2100.2  Type=RKS/LOCAL(IBO)  

 IBBA/SVP energy=      0.000000000000

        KS-SCF  
   -194.06856191
 **********************************************************************************************************************************
 Molpro calculation terminated
