
 Primary working directories    : /tmp/sb13343
 Secondary working directories  : /tmp/sb13343
 Wavefunction directory         : /panfs/panasas01/chem/sb13343/wfu/
 Main file repository           : /tmp/sb13343/

 SHA1      : b4a5b34a9e711420743f49e6833241d17c61fb3c
 NAME      : 2099.9.b4a5b34
 ARCHNAME  : linux/x86_64_openmp
 FC        : /cm/shared/languages/GCC-6.1/bin/gfortran
 BLASLIB   : -lblas
 id        : simonbennie

 Nodes     nprocs
 node32-030    1

 Using customized tuning parameters: mindgm=1; mindgv=20; mindgc=4; mindgr=1; noblas=0; minvec=7
 default implementation of scratch files=df  

 memory,500,m
 geomtyp=xyz
 nosym
 noorient
 geometry={
 C          0.00000        0.00000        0.00000
 O          0.00000        0.00000        1.40962
 C          1.30608        0.00000        1.95787
 C          1.19221        0.00000        3.47353
 H          2.18666        0.00000        3.93332
 H         -1.04410        0.00000       -0.32474
 H          0.50079       -0.89267       -0.41051
 H          0.50079        0.89267       -0.41051
 H          1.86435       -0.88728        1.61056
 H          1.86435        0.88728        1.61056
 H          0.64981       -0.88690        3.81673
 H          0.64981        0.88690        3.81673
 }
 basis={ default,svp }
 {uks,B97R,direct;wf,34,1,0}
 {ibba,bonds=1}

 Variables initialized (895), CPU time= 0.00 sec
 Commands  initialized (725), CPU time= 0.01 sec, 591 directives.
 Default parameters read. Elapsed time= 0.07 sec

 Checking input...
 Passed
1


                                         ***  PROGRAM SYSTEM MOLPRO  ***
                                       Copyright, TTI GmbH Stuttgart, 2015
                                    Version 2099.9 linked May 26 2017 16:03:21


 **********************************************************************************************************************************
 LABEL *                                                                                 
  64 bit serial version                                                                  DATE: 08-Jun-17          TIME: 10:09:51  
 **********************************************************************************************************************************

 SHA1:             b4a5b34a9e711420743f49e6833241d17c61fb3c
 **********************************************************************************************************************************
 SETTING GEOMTYP        =    XYZ

 Variable memory set to  500000000 words,  buffer space 

 ZSYMEL=NOSYM

 SETTING BASIS          =    SVP


 Recomputing integrals since basis changed


 Using spherical harmonics

 Library entry C      S def2-SVP             selected for orbital group  1
 Library entry C      P def2-SVP             selected for orbital group  1
 Library entry C      D def2-SVP             selected for orbital group  1
 Library entry O      S def2-SVP             selected for orbital group  2
 Library entry O      P def2-SVP             selected for orbital group  2
 Library entry O      D def2-SVP             selected for orbital group  2
 Library entry H      S def2-SVP             selected for orbital group  4
 Library entry H      P def2-SVP             selected for orbital group  4


 PROGRAM * SEWARD (Integral evaluation for generally contracted gaussian basis sets)     Author: Roland Lindh, 1990

 Geometry written to block  1 of record 700


 Point group  C1  



 ATOMIC COORDINATES

 NR  ATOM    CHARGE       X              Y              Z

   1  C       6.00    0.000000000    0.000000000    0.000000000
   2  O       8.00    0.000000000    0.000000000    2.663795740
   3  C       6.00    2.468133497    0.000000000    3.699838088
   4  C       6.00    2.252950383    0.000000000    6.564020385
   5  H       1.00    4.132188528    0.000000000    7.432897560
   6  H       1.00   -1.973063047    0.000000000   -0.613669662
   7  H       1.00    0.946355946   -1.686901820   -0.775751471
   8  H       1.00    0.946355946    1.686901820   -0.775751471
   9  H       1.00    3.523110900   -1.676716196    3.043517307
  10  H       1.00    3.523110900    1.676716196    3.043517307
  11  H       1.00    1.227962933   -1.675998100    7.212574391
  12  H       1.00    1.227962933    1.675998100    7.212574391

 Bond lengths in Bohr (Angstrom)

 1-2  2.663795740  1-6  2.066293358  1-7  2.083990804  1-8  2.083990804  2-3  2.676764223
     ( 1.409620000)     ( 1.093435356)     ( 1.102800441)     ( 1.102800441)     ( 1.416482626)

  3- 4  2.872254168   3- 9  2.086890388   3-10  2.086890388   4- 5  2.070382464   4-11  2.068862297
       ( 1.519931450)       ( 1.104334835)       ( 1.104334835)       ( 1.095599218)       ( 1.094794780)

  4-12  2.068862297
       ( 1.094794780)

 Bond angles

  1-2-3  112.77108340   2-1-6  107.27693969   2-1-7  111.85402987   2-1-8  111.85402987

  2- 3- 4  108.47458109   2- 3- 9  110.14508041   2- 3-10  110.14508041   3- 4- 5  110.51724552

  3- 4-11  110.47015208   3- 4-12  110.47015208   4- 3- 9  110.57823876   4- 3-10  110.57823876

  5- 4-11  108.55021133   5- 4-12  108.55021133   6- 1- 7  108.84842497   6- 1- 8  108.84842497

  7- 1- 8  108.08590744   9- 3-10  106.92203462  11- 4-12  108.21261054

 NUCLEAR CHARGE:                   34
 NUMBER OF PRIMITIVE AOS:         156
 NUMBER OF SYMMETRY AOS:          152
 NUMBER OF CONTRACTIONS:           96   (  96A   )
 NUMBER OF CORE ORBITALS:           4   (   4A   )
 NUMBER OF VALENCE ORBITALS:       24   (  24A   )


 NUCLEAR REPULSION ENERGY  133.31979421


 Eigenvalues of metric

         1 0.364E-02 0.952E-02 0.147E-01 0.282E-01 0.312E-01 0.319E-01 0.432E-01 0.449E-01


 Contracted 2-electron integrals neglected if value below      1.0D-11
 AO integral compression algorithm  1   Integral accuracy      1.0D-11

     37.487 MB (compressed) written to integral file ( 40.8%)


 NUMBER OF SORTED TWO-ELECTRON INTEGRALS:   10841496.     BUFFER LENGTH:  32768
 NUMBER OF SEGMENTS:   1  SEGMENT LENGTH:   10841496      RECORD LENGTH: 524288

 Memory used in sort:      11.40 MW

 SORT1 READ    11483613. AND WROTE     8333550. INTEGRALS IN     24 RECORDS. CPU TIME:     0.14 SEC, REAL TIME:     0.26 SEC
 SORT2 READ     8333550. AND WROTE    10841496. INTEGRALS IN    143 RECORDS. CPU TIME:     0.30 SEC, REAL TIME:     0.35 SEC

 FILE SIZES:   FILE 1:    68.0 MBYTE,  FILE 4:   100.7 MBYTE,   TOTAL:    168.7 MBYTE

 OPERATOR DM      FOR CENTER  0  COORDINATES:    0.000000    0.000000    0.000000


 **********************************************************************************************************************************
 DATASETS  * FILE   NREC   LENGTH (MB)   RECORD NAMES
              1      19       62.89       500      610      700      900      950      970     1000      129      960     1100   
                                          VAR    BASINP    GEOM    SYMINP    ZMAT    AOBASIS   BASIS     P2S    ABASIS      S 
                                         1400     1410     1200     1210     1080     1600     1650     1300     1700   
                                           T        V       H0       H01     AOSYM     SMH    MOLCAS    ERIS     OPER   

 PROGRAMS   *        TOTAL       INT
 CPU TIMES  *         2.04      1.89
 REAL TIME  *         2.69 SEC
 DISK USED  *       169.15 MB      
 **********************************************************************************************************************************

 Density functional group B97R=B97RDF
 Functional: B97RDF(Automatically generated (new) B97RDF)                      Gradient terms: 1
 Use grid at  1800.2


 Exact exchange will be calculated, factor:  0.2100

 Functional: B97RDF                    Factor:  1.0000

 Generated new metagrid on record  1800.2 with target accuracy 1.0D-06 and 44796 points in CPU time    1.1
 Computed new grid on record 1800.1 in CPU time    1.2
   80368 words reserved for DFT integration

 PROGRAM * UKS-SCF (Unrestricted Kohn-Sham)     Authors: W. Meyer, H.-J. Werner, P.J. Knowles, 1993

 NUMBER OF ELECTRONS:      17+   17-    SPACE SYMMETRY=1    SPIN SYMMETRY: Singlet 
 CONVERGENCE THRESHOLDS:    1.00E-05 (Density)    1.00E-06 (Energy)
 MAX. NUMBER OF ITERATIONS:       60
 INTERPOLATION TYPE:            DIIS
 INTERPOLATION STEPS:              2 (START)      1 (STEP)
 LEVEL SHIFTS:                 -0.20 (ALPHA)  -0.20 (BETA) 



 Use fine grid record 1800.2 for energy threshold  1.0D-06
 Orbital guess generated from atomic densities. Full valence occupancy:   17

 Molecular orbital dump at record        2200.2

 Initial alpha occupation  17
 Initial beta  occupation  17

 ITERATION    DDIFF          GRAD             ENERGY        2-EL.EN.            DIPOLE MOMENTS         DIIS
    1      0.000D+00      0.000D+00      -194.02851380    451.066771    0.76906   -0.00000   -0.48565    0
    2      0.941D-02      0.454D-02      -194.11997674    439.513995    0.34929   -0.00000   -0.21118    1
    3      0.284D-02      0.190D-02      -194.13275771    442.252582    0.44653   -0.00000   -0.27841    2
    4      0.870D-03      0.369D-03      -194.13347218    442.011140    0.41127   -0.00000   -0.25916    3
    5      0.750D-03      0.163D-03      -194.13374356    441.942779    0.40208   -0.00000   -0.25466    4
    6      0.419D-03      0.518D-04      -194.13378540    441.908444    0.39414   -0.00000   -0.25175    5
    7      0.761D-04      0.118D-04      -194.13378711    441.906315    0.39372   -0.00000   -0.25095    6
    8      0.198D-04      0.512D-05      -194.13378730    441.904478    0.39326   -0.00000   -0.25103    7
    9      0.748D-05      0.122D-05      -194.13378732    441.904712    0.39318   -0.00000   -0.25094    7
   10      0.166D-05      0.320D-06      -194.13378733    441.905052    0.39317   -0.00000   -0.25093    7

 Final alpha occupancy:  17
 Final beta  occupancy:  17

 !UKS STATE 1.1 Energy               -194.133787325002
 Nuclear energy                       133.31979421
 One-electron energy                 -526.21782742
 Two-electron energy                  220.95252584
 Density functional                   -22.18827996     B97RDF=-22.18827996
 Virial quotient                       -1.01038701
 !UKS STATE 1.1 Dipole moment           0.39316747    -0.00000000    -0.25092657
 Dipole moment /Debye                   0.99926657    -0.00000000    -0.63774994

 Orbital energies for positive spin:

         1.1          2.1          3.1          4.1          5.1          6.1          7.1          8.1          9.1         10.1
    -19.142657   -10.238171   -10.235546   -10.185715    -1.023837    -0.756397    -0.667744    -0.599587    -0.487769    -0.479191

        11.1         12.1         13.1         14.1         15.1         16.1         17.1         18.1         19.1
     -0.450718    -0.418343    -0.382449    -0.362893    -0.352260    -0.314552    -0.253690     0.068440     0.092097

 Orbital energies for negative spin:

         1.1          2.1          3.1          4.1          5.1          6.1          7.1          8.1          9.1         10.1
    -19.142657   -10.238171   -10.235546   -10.185714    -1.023835    -0.756396    -0.667743    -0.599587    -0.487768    -0.479190

        11.1         12.1         13.1         14.1         15.1         16.1         17.1         18.1         19.1
     -0.450717    -0.418343    -0.382449    -0.362893    -0.352260    -0.314551    -0.253689     0.068440     0.092097

 HOMO    -17.1    -0.253689 =      -6.9032eV
 LUMO     18.1     0.068440 =       1.8623eV
 LUMO-HOMO         0.322129 =       8.7656eV

 EXPECTATION VALUE OF S**2:             0.00000000

 Occupation number threshold for canonical orbitals:  1.999000 (occupied),  0.001000 (virtual)

 Number of pseudo-canonical orbitals per symmetry:   17
 Number of active natural orbitals per symmetry:      0

 Natural orbitals saved to record    2200.2 (Orbital set 3)

 Orbital spaces for UNO-CAS (Min. occupation: 0.020  Max. occupation: 1.980):

 Closed:       17
 Active:        0


 **********************************************************************************************************************************
 DATASETS  * FILE   NREC   LENGTH (MB)   RECORD NAMES
              1      20       64.33       500      610      700      900      950      970     1000      129      960     1100   
                                          VAR    BASINP    GEOM    SYMINP    ZMAT    AOBASIS   BASIS     P2S    ABASIS      S 
                                         1400     1410     1200     1210     1080     1600     1650     1300     1700     1800   
                                           T        V       H0       H01     AOSYM     SMH    MOLCAS    ERIS     OPER     GRID   

              2       5        3.33       700     1000      520     1800     2200   
                                         GEOM     BASIS   MCVARS    GRID      UKS  

 PROGRAMS   *        TOTAL       UKS       INT
 CPU TIMES  *        15.62     13.59      1.89
 REAL TIME  *        17.06 SEC
 DISK USED  *       169.15 MB      
 **********************************************************************************************************************************


 PROGRAM * Intrinsic Basis Bonding Analysis (IBBA)          Author: G. Knizia

 Molecular orbitals read from record     2200.2  Type=UKS/ALPHA (state 1.1)
 Fock matrix read from record            2200.2  Type=UKS/TOTAL (state 1.1)
 Orbital energies read from record       2200.2  Type=UKS/ALPHA (state 1.1)
 Density matrix read from record         2200.2  Type=UKS/CHARGE (state 1.1)

 Number of core orbitals:           4 (   4 )
 Number of closed-shell orbitals:  13 (  13 )

 Basis set MINAO-AUTO-PP generated.      Number of basis functions:   28 

 Polarized AO type:                A = (O Ot + (1-O)(1-Ot)) P12
 Orthogonalization method:         Symmetric (Loewdin)
 Localization functional:          L = sum[A,i] <i|n_A|i>^4 -> max

 Localization group 1:  17 orbitals, occupancy  2.000
 Iterative localization: IB/PM,    7 iter; Final gradient 0.19E-09

 Bond order analysis:       [THRPRINT= 0.020]

   CEN ATOM   CEN ATOM     WIBERG.BO      RENORM.BO
     1   C  -   2   O       0.987973       1.019736
     1   C  -   6   H       0.959315       0.977913
     1   C  -   7   H       0.950407       0.937772
     1   C  -   8   H       0.950407       0.937772

     2   O  -   1   C       0.987973       1.019736
     2   O  -   3   C       0.967463       0.990737
     2   O  -   8   H       0.033228       0.019691
     2   O  -   7   H       0.033228       0.019691
     2   O  -  10   H       0.029976       0.017728
     2   O  -   9   H       0.029976       0.017728

     3   C  -   4   C       1.028916       1.020814
     3   C  -   2   O       0.967463       0.990737
     3   C  -   9   H       0.938670       0.926386
     3   C  -  10   H       0.938670       0.926386

     4   C  -   3   C       1.028916       1.020814
     4   C  -   5   H       0.962820       0.989159
     4   C  -  12   H       0.959909       0.981831
     4   C  -  11   H       0.959909       0.981831

     5   H  -   4   C       0.962820       0.989159

     6   H  -   1   C       0.959315       0.977913

     7   H  -   1   C       0.950407       0.937772
     7   H  -   2   O       0.033228       0.019691

     8   H  -   1   C       0.950407       0.937772
     8   H  -   2   O       0.033228       0.019691

     9   H  -   3   C       0.938670       0.926386
     9   H  -   2   O       0.029976       0.017728

    10   H  -   3   C       0.938670       0.926386
    10   H  -   2   O       0.029976       0.017728

    11   H  -   4   C       0.959909       0.981831

    12   H  -   4   C       0.959909       0.981831


 Valency analysis:

   CEN ATOM   TOT.VALENCE
     1   C       3.867717
     2   O       2.115941
     3   C       3.896535
     4   C       3.938737
     5   H       0.982442
     6   H       0.978837
     7   H       0.988187
     8   H       0.988187
     9   H       0.989554
    10   H       0.989554
    11   H       0.981003
    12   H       0.981003

 Total charge composition:

   CEN ATOM         s          p       ELECTRONS ->P.CHARGE
     1   C       3.01704    3.15817      6.17521   -0.17521
     2   O       3.59516    4.79139      8.38656   -0.38656
     3   C       2.98377    3.03730      6.02106   -0.02106
     4   C       3.01948    3.37312      6.39260   -0.39260
     5   H       0.86750                 0.86750    0.13250
     6   H       0.85453                 0.85453    0.14547
     7   H       0.89131                 0.89131    0.10869
     8   H       0.89131                 0.89131    0.10869
     9   H       0.89779                 0.89779    0.10221
    10   H       0.89779                 0.89779    0.10221
    11   H       0.86217                 0.86217    0.13783
    12   H       0.86217                 0.86217    0.13783

 Total charge composition, AO contributions:

   CEN ATOM SHL      SPHERICAL COMPONENTS
     1   C  1s       1.99162
     1   C  2s       1.02542
     1   C  2p       1.18261    1.16347    0.81209

     2   O  1s       1.99707
     2   O  2s       1.59809
     2   O  2p       1.52037    1.90821    1.36281

     3   C  1s       1.99188
     3   C  2s       0.99189
     3   C  2p       0.85791    1.15502    1.02437

     4   C  1s       1.99084
     4   C  2s       1.02864
     4   C  2p       1.15804    1.16868    1.04640

     5   H  1s       0.86750

     6   H  1s       0.85453

     7   H  1s       0.89131

     8   H  1s       0.89131

     9   H  1s       0.89779

    10   H  1s       0.89779

    11   H  1s       0.86217

    12   H  1s       0.86217

 Summary of localized orbital composition:   [THRPRINT= 0.020]

   ORB  GRP  ORB.ENERGY      CENTERS/CHARGES
     1   1   -18.997628      O  2   2.000
     2   1   -10.134052      C  3   2.000
     3   1   -10.126142      C  1   2.000
     4   1   -10.070035      C  4   2.000
     5   1    -0.761088      O  2   1.252   C  1   0.739
     6   1    -0.752780      O  2   1.261   C  3   0.726
     7   1    -0.584713      C  3   1.005   C  4   0.988
     8   1    -0.546570      O  2   1.962   (other: 0.038)
     9   1    -0.519235      C  1   1.127   H  8   0.871
    10   1    -0.519235      C  1   1.127   H  7   0.871
    11   1    -0.519124      C  1   1.146   H  6   0.847
    12   1    -0.515091      C  3   1.115   H 10   0.875
    13   1    -0.515091      C  3   1.115   H  9   0.875
    14   1    -0.499668      C  4   1.124   H  5   0.861
    15   1    -0.493646      C  4   1.134   H 11   0.856
    16   1    -0.493646      C  4   1.134   H 12   0.856
    17   1    -0.303649      O  2   1.908   (other: 0.092)

 Localized orbitals saved to record      2200.2  (orbital set 4)


 **********************************************************************************************************************************
 DATASETS  * FILE   NREC   LENGTH (MB)   RECORD NAMES
              1      20       64.33       500      610      700      900      950      970     1000      129      960     1100   
                                          VAR    BASINP    GEOM    SYMINP    ZMAT    AOBASIS   BASIS     P2S    ABASIS      S 
                                         1400     1410     1200     1210     1080     1600     1650     1300     1700     1800   
                                           T        V       H0       H01     AOSYM     SMH    MOLCAS    ERIS     OPER     GRID   

              2       5        3.40       700     1000      520     1800     2200   
                                         GEOM     BASIS   MCVARS    GRID      UKS  

 PROGRAMS   *        TOTAL      IBBA       UKS       INT
 CPU TIMES  *        15.66      0.04     13.59      1.89
 REAL TIME  *        17.20 SEC
 DISK USED  *       169.15 MB      
 **********************************************************************************************************************************
 Molecular orbitals read from record     2200.2  Type=UKS/LOCAL(IBO)  
 Occupation numbers read from record     2200.2  Type=UKS/LOCAL(IBO)  
 Orbital energies read from record       2200.2  Type=UKS/LOCAL(IBO)  
 Redundancy group numbers read from rec  2200.2  Type=UKS/BETA (state 1.1)

 IBBA/SVP energy=      0.000000000000

        UKS-SCF 
   -194.13378733
 **********************************************************************************************************************************
 Molpro calculation terminated
