
 Primary working directories    : /tmp/sb13343
 Secondary working directories  : /tmp/sb13343
 Wavefunction directory         : /panfs/panasas01/chem/sb13343/wfu/
 Main file repository           : /tmp/sb13343/

 SHA1      : b4a5b34a9e711420743f49e6833241d17c61fb3c
 NAME      : 2099.9.b4a5b34
 ARCHNAME  : linux/x86_64_openmp
 FC        : /cm/shared/languages/GCC-6.1/bin/gfortran
 BLASLIB   : -lblas
 id        : simonbennie

 Nodes     nprocs
 node32-030    1

 Using customized tuning parameters: mindgm=1; mindgv=20; mindgc=4; mindgr=1; noblas=0; minvec=7
 default implementation of scratch files=df  

 memory,500,m
 geomtyp=xyz
 nosym
 noorient
 geometry={
 C          0.00000        0.00000        0.00000
 O          0.00000        0.00000        1.40962
 C          1.30608        0.00000        1.95787
 C          1.19221        0.00000        3.47353
 H          2.18666        0.00000        3.93332
 H         -1.04410        0.00000       -0.32474
 H          0.50079       -0.89267       -0.41051
 H          0.50079        0.89267       -0.41051
 H          1.86435       -0.88728        1.61056
 H          1.86435        0.88728        1.61056
 H          0.64981       -0.88690        3.81673
 H          0.64981        0.88690        3.81673
 }
 basis={ default,svp }
 {ks,B97,direct;wf,34,1,0}
 {ibba,bonds=1}

 Variables initialized (895), CPU time= 0.00 sec
 Commands  initialized (725), CPU time= 0.02 sec, 591 directives.
 Default parameters read. Elapsed time= 0.08 sec

 Checking input...
 Passed
1


                                         ***  PROGRAM SYSTEM MOLPRO  ***
                                       Copyright, TTI GmbH Stuttgart, 2015
                                    Version 2099.9 linked May 26 2017 16:03:21


 **********************************************************************************************************************************
 LABEL *                                                                                 
  64 bit serial version                                                                  DATE: 08-Jun-17          TIME: 10:09:19  
 **********************************************************************************************************************************

 SHA1:             b4a5b34a9e711420743f49e6833241d17c61fb3c
 **********************************************************************************************************************************
 SETTING GEOMTYP        =    XYZ

 Variable memory set to  500000000 words,  buffer space 

 ZSYMEL=NOSYM

 SETTING BASIS          =    SVP


 Recomputing integrals since basis changed


 Using spherical harmonics

 Library entry C      S def2-SVP             selected for orbital group  1
 Library entry C      P def2-SVP             selected for orbital group  1
 Library entry C      D def2-SVP             selected for orbital group  1
 Library entry O      S def2-SVP             selected for orbital group  2
 Library entry O      P def2-SVP             selected for orbital group  2
 Library entry O      D def2-SVP             selected for orbital group  2
 Library entry H      S def2-SVP             selected for orbital group  4
 Library entry H      P def2-SVP             selected for orbital group  4


 PROGRAM * SEWARD (Integral evaluation for generally contracted gaussian basis sets)     Author: Roland Lindh, 1990

 Geometry written to block  1 of record 700


 Point group  C1  



 ATOMIC COORDINATES

 NR  ATOM    CHARGE       X              Y              Z

   1  C       6.00    0.000000000    0.000000000    0.000000000
   2  O       8.00    0.000000000    0.000000000    2.663795740
   3  C       6.00    2.468133497    0.000000000    3.699838088
   4  C       6.00    2.252950383    0.000000000    6.564020385
   5  H       1.00    4.132188528    0.000000000    7.432897560
   6  H       1.00   -1.973063047    0.000000000   -0.613669662
   7  H       1.00    0.946355946   -1.686901820   -0.775751471
   8  H       1.00    0.946355946    1.686901820   -0.775751471
   9  H       1.00    3.523110900   -1.676716196    3.043517307
  10  H       1.00    3.523110900    1.676716196    3.043517307
  11  H       1.00    1.227962933   -1.675998100    7.212574391
  12  H       1.00    1.227962933    1.675998100    7.212574391

 Bond lengths in Bohr (Angstrom)

 1-2  2.663795740  1-6  2.066293358  1-7  2.083990804  1-8  2.083990804  2-3  2.676764223
     ( 1.409620000)     ( 1.093435356)     ( 1.102800441)     ( 1.102800441)     ( 1.416482626)

  3- 4  2.872254168   3- 9  2.086890388   3-10  2.086890388   4- 5  2.070382464   4-11  2.068862297
       ( 1.519931450)       ( 1.104334835)       ( 1.104334835)       ( 1.095599218)       ( 1.094794780)

  4-12  2.068862297
       ( 1.094794780)

 Bond angles

  1-2-3  112.77108340   2-1-6  107.27693969   2-1-7  111.85402987   2-1-8  111.85402987

  2- 3- 4  108.47458109   2- 3- 9  110.14508041   2- 3-10  110.14508041   3- 4- 5  110.51724552

  3- 4-11  110.47015208   3- 4-12  110.47015208   4- 3- 9  110.57823876   4- 3-10  110.57823876

  5- 4-11  108.55021133   5- 4-12  108.55021133   6- 1- 7  108.84842497   6- 1- 8  108.84842497

  7- 1- 8  108.08590744   9- 3-10  106.92203462  11- 4-12  108.21261054

 NUCLEAR CHARGE:                   34
 NUMBER OF PRIMITIVE AOS:         156
 NUMBER OF SYMMETRY AOS:          152
 NUMBER OF CONTRACTIONS:           96   (  96A   )
 NUMBER OF CORE ORBITALS:           4   (   4A   )
 NUMBER OF VALENCE ORBITALS:       24   (  24A   )


 NUCLEAR REPULSION ENERGY  133.31979421


 Eigenvalues of metric

         1 0.364E-02 0.952E-02 0.147E-01 0.282E-01 0.312E-01 0.319E-01 0.432E-01 0.449E-01


 Contracted 2-electron integrals neglected if value below      1.0D-11
 AO integral compression algorithm  1   Integral accuracy      1.0D-11

     37.487 MB (compressed) written to integral file ( 40.8%)


 NUMBER OF SORTED TWO-ELECTRON INTEGRALS:   10841496.     BUFFER LENGTH:  32768
 NUMBER OF SEGMENTS:   1  SEGMENT LENGTH:   10841496      RECORD LENGTH: 524288

 Memory used in sort:      11.40 MW

 SORT1 READ    11483613. AND WROTE     8333550. INTEGRALS IN     24 RECORDS. CPU TIME:     0.13 SEC, REAL TIME:     0.24 SEC
 SORT2 READ     8333550. AND WROTE    10841496. INTEGRALS IN    143 RECORDS. CPU TIME:     0.26 SEC, REAL TIME:     0.33 SEC

 FILE SIZES:   FILE 1:    68.0 MBYTE,  FILE 4:   100.7 MBYTE,   TOTAL:    168.7 MBYTE

 OPERATOR DM      FOR CENTER  0  COORDINATES:    0.000000    0.000000    0.000000


 **********************************************************************************************************************************
 DATASETS  * FILE   NREC   LENGTH (MB)   RECORD NAMES
              1      19       62.89       500      610      700      900      950      970     1000      129      960     1100   
                                          VAR    BASINP    GEOM    SYMINP    ZMAT    AOBASIS   BASIS     P2S    ABASIS      S 
                                         1400     1410     1200     1210     1080     1600     1650     1300     1700   
                                           T        V       H0       H01     AOSYM     SMH    MOLCAS    ERIS     OPER   

 PROGRAMS   *        TOTAL       INT
 CPU TIMES  *         1.82      1.68
 REAL TIME  *         2.45 SEC
 DISK USED  *       169.15 MB      
 **********************************************************************************************************************************

 Density functional group B97=B97DF
 Functional: B97DF(Automatically generated (new) B97DF)                        Gradient terms: 1
 Use grid at  1800.2


 Exact exchange will be calculated, factor:  0.1943

 Functional: B97DF                     Factor:  1.0000

 Generated new metagrid on record  1800.2 with target accuracy 1.0D-06 and 44796 points in CPU time    1.1
 Computed new grid on record 1800.1 in CPU time    1.3
   80368 words reserved for DFT integration

 PROGRAM * RKS-SCF (Restricted closed shell Kohn-Sham)     Authors: W. Meyer, H.-J. Werner, P.J. Knowles, 1993

 NUMBER OF ELECTRONS:      17+   17-    SPACE SYMMETRY=1    SPIN SYMMETRY: Singlet 
 CONVERGENCE THRESHOLDS:    1.00E-05 (Density)    1.00E-06 (Energy)
 MAX. NUMBER OF ITERATIONS:       60
 INTERPOLATION TYPE:            DIIS
 INTERPOLATION STEPS:              2 (START)      1 (STEP)
 LEVEL SHIFTS:                  0.00 (CLOSED)  0.00 (OPEN) 



 Use fine grid record 1800.2 for energy threshold  1.0D-06
 Orbital guess generated from atomic densities. Full valence occupancy:   17

 Molecular orbital dump at record        2100.2

 Initial occupancy:  17

 ITERATION    DDIFF          GRAD             ENERGY        2-EL.EN.            DIPOLE MOMENTS         DIIS   ORB.
    1      0.000D+00      0.000D+00      -194.02237230    452.102359    0.76935   -0.00000   -0.48629    0    start
    2      0.000D+00      0.856D-02      -193.98409326    431.709352   -0.17198   -0.00000    0.08270    1    diag
    3      0.187D-01      0.104D-01      -194.12876291    443.079841    0.46651   -0.00000   -0.29266    2    diag
    4      0.109D-01      0.137D-02      -194.13055369    442.767968    0.37910   -0.00000   -0.24496    3    diag
    5      0.114D-02      0.408D-03      -194.13072384    442.746759    0.39236   -0.00000   -0.24912    4    diag
    6      0.301D-03      0.599D-04      -194.13072728    442.766374    0.39154   -0.00000   -0.25000    5    diag
    7      0.587D-04      0.274D-04      -194.13072824    442.768245    0.39237   -0.00000   -0.24980    6    diag
    8      0.223D-04      0.296D-05      -194.13072825    442.769267    0.39219   -0.00000   -0.24990    7    diag
    9      0.260D-05      0.453D-06      -194.13072825    442.769466    0.39226   -0.00000   -0.24989    0    orth

 Final occupancy:  17

 !RKS STATE 1.1 Energy               -194.130728250384
 Nuclear energy                       133.31979421
 One-electron energy                 -526.23069913
 Two-electron energy                  221.38473299
 SCF exchange energy                  -26.58394909     Factor= 0.1943
 Density functional                   -22.60455632     B97DF=-22.60455632
 Virial quotient                       -1.01032999
 !RKS STATE 1.1 Dipole moment           0.39225939    -0.00000000    -0.24988801
 Dipole moment /Debye                   0.99695861    -0.00000000    -0.63511037

 Orbital energies:

         1.1          2.1          3.1          4.1          5.1          6.1          7.1          8.1          9.1         10.1
    -19.109773   -10.214344   -10.211755   -10.162026    -1.017336    -0.751386    -0.663156    -0.595208    -0.484425    -0.475327

        11.1         12.1         13.1         14.1         15.1         16.1         17.1         18.1         19.1
     -0.447188    -0.415060    -0.379458    -0.360051    -0.349372    -0.311387    -0.250456     0.066437     0.089616

 HOMO     17.1    -0.250456 =      -6.8152eV
 LUMO     18.1     0.066437 =       1.8078eV
 LUMO-HOMO         0.316892 =       8.6231eV


 **********************************************************************************************************************************
 DATASETS  * FILE   NREC   LENGTH (MB)   RECORD NAMES
              1      20       64.33       500      610      700      900      950      970     1000      129      960     1100   
                                          VAR    BASINP    GEOM    SYMINP    ZMAT    AOBASIS   BASIS     P2S    ABASIS      S 
                                         1400     1410     1200     1210     1080     1600     1650     1300     1700     1800   
                                           T        V       H0       H01     AOSYM     SMH    MOLCAS    ERIS     OPER     GRID   

              2       5        3.14       700     1000      520     1800     2100   
                                         GEOM     BASIS   MCVARS    GRID      RKS  

 PROGRAMS   *        TOTAL        KS       INT
 CPU TIMES  *         9.96      8.13      1.68
 REAL TIME  *        11.51 SEC
 DISK USED  *       169.15 MB      
 **********************************************************************************************************************************


 PROGRAM * Intrinsic Basis Bonding Analysis (IBBA)          Author: G. Knizia

 Molecular orbitals read from record     2100.2  Type=RKS/CANONICAL (state 1.1)
 Fock matrix read from record            2100.2  Type=RKS/TOTAL (state 1.1)
 Orbital energies read from record       2100.2  Type=RKS/CANONICAL (state 1.1)
 Density matrix read from record         2100.2  Type=RKS/CHARGE (state 1.1)

 Number of core orbitals:           4 (   4 )
 Number of closed-shell orbitals:  13 (  13 )

 Basis set MINAO-AUTO-PP generated.      Number of basis functions:   28 

 Polarized AO type:                A = (O Ot + (1-O)(1-Ot)) P12
 Orthogonalization method:         Symmetric (Loewdin)
 Localization functional:          L = sum[A,i] <i|n_A|i>^4 -> max

 Localization group 1:  17 orbitals, occupancy  2.000
 Iterative localization: IB/PM,    7 iter; Final gradient 0.19E-09

 Bond order analysis:       [THRPRINT= 0.020]

   CEN ATOM   CEN ATOM     WIBERG.BO      RENORM.BO
     1   C  -   2   O       0.988445       1.019900
     1   C  -   6   H       0.959317       0.977774
     1   C  -   7   H       0.950238       0.937405
     1   C  -   8   H       0.950238       0.937405

     2   O  -   1   C       0.988445       1.019900
     2   O  -   3   C       0.967814       0.990803
     2   O  -   8   H       0.033415       0.019804
     2   O  -   7   H       0.033415       0.019804
     2   O  -  10   H       0.030121       0.017819
     2   O  -   9   H       0.030121       0.017819

     3   C  -   4   C       1.029043       1.020863
     3   C  -   2   O       0.967814       0.990803
     3   C  -   9   H       0.938437       0.926037
     3   C  -  10   H       0.938437       0.926037

     4   C  -   3   C       1.029043       1.020863
     4   C  -   5   H       0.962819       0.989127
     4   C  -  12   H       0.959897       0.981747
     4   C  -  11   H       0.959897       0.981747

     5   H  -   4   C       0.962819       0.989127

     6   H  -   1   C       0.959317       0.977774

     7   H  -   1   C       0.950238       0.937405
     7   H  -   2   O       0.033415       0.019804

     8   H  -   1   C       0.950238       0.937405
     8   H  -   2   O       0.033415       0.019804

     9   H  -   3   C       0.938437       0.926037
     9   H  -   2   O       0.030121       0.017819

    10   H  -   3   C       0.938437       0.926037
    10   H  -   2   O       0.030121       0.017819

    11   H  -   4   C       0.959897       0.981747

    12   H  -   4   C       0.959897       0.981747


 Valency analysis:

   CEN ATOM   TOT.VALENCE
     1   C       3.867884
     2   O       2.117577
     3   C       3.896569
     4   C       3.938917
     5   H       0.982462
     6   H       0.978917
     7   H       0.988204
     8   H       0.988204
     9   H       0.989535
    10   H       0.989535
    11   H       0.981031
    12   H       0.981031

 Total charge composition:

   CEN ATOM         s          p       ELECTRONS ->P.CHARGE
     1   C       3.01749    3.15793      6.17541   -0.17541
     2   O       3.59537    4.79001      8.38538   -0.38538
     3   C       2.98423    3.03742      6.02165   -0.02165
     4   C       3.01995    3.37250      6.39246   -0.39246
     5   H       0.86757                 0.86757    0.13243
     6   H       0.85480                 0.85480    0.14520
     7   H       0.89139                 0.89139    0.10861
     8   H       0.89139                 0.89139    0.10861
     9   H       0.89770                 0.89770    0.10230
    10   H       0.89770                 0.89770    0.10230
    11   H       0.86227                 0.86227    0.13773
    12   H       0.86227                 0.86227    0.13773

 Total charge composition, AO contributions:

   CEN ATOM SHL      SPHERICAL COMPONENTS
     1   C  1s       1.99164
     1   C  2s       1.02585
     1   C  2p       1.18228    1.16341    0.81224

     2   O  1s       1.99708
     2   O  2s       1.59830
     2   O  2p       1.51989    1.90761    1.36251

     3   C  1s       1.99190
     3   C  2s       0.99234
     3   C  2p       0.85813    1.15510    1.02419

     4   C  1s       1.99086
     4   C  2s       1.02910
     4   C  2p       1.15777    1.16840    1.04634

     5   H  1s       0.86757

     6   H  1s       0.85480

     7   H  1s       0.89139

     8   H  1s       0.89139

     9   H  1s       0.89770

    10   H  1s       0.89770

    11   H  1s       0.86227

    12   H  1s       0.86227

 Summary of localized orbital composition:   [THRPRINT= 0.020]

   ORB  GRP  ORB.ENERGY      CENTERS/CHARGES
     1   1   -18.965237      O  2   2.000
     2   1   -10.110459      C  3   2.000
     3   1   -10.102584      C  1   2.000
     4   1   -10.046584      C  4   2.000
     5   1    -0.756424      O  2   1.252   C  1   0.739
     6   1    -0.748118      O  2   1.261   C  3   0.726
     7   1    -0.580786      C  3   1.005   C  4   0.988
     8   1    -0.541869      O  2   1.962   (other: 0.038)
     9   1    -0.515556      C  1   1.127   H  8   0.871
    10   1    -0.515556      C  1   1.127   H  7   0.871
    11   1    -0.515484      C  1   1.146   H  6   0.847
    12   1    -0.511427      C  3   1.116   H 10   0.875
    13   1    -0.511427      C  3   1.116   H  9   0.875
    14   1    -0.496131      C  4   1.124   H  5   0.861
    15   1    -0.490111      C  4   1.134   H 11   0.856
    16   1    -0.490111      C  4   1.134   H 12   0.856
    17   1    -0.299846      O  2   1.907   (other: 0.093)

 Localized orbitals saved to record      2100.2  (orbital set 2)


 **********************************************************************************************************************************
 DATASETS  * FILE   NREC   LENGTH (MB)   RECORD NAMES
              1      20       64.33       500      610      700      900      950      970     1000      129      960     1100   
                                          VAR    BASINP    GEOM    SYMINP    ZMAT    AOBASIS   BASIS     P2S    ABASIS      S 
                                         1400     1410     1200     1210     1080     1600     1650     1300     1700     1800   
                                           T        V       H0       H01     AOSYM     SMH    MOLCAS    ERIS     OPER     GRID   

              2       5        3.21       700     1000      520     1800     2100   
                                         GEOM     BASIS   MCVARS    GRID      RKS  

 PROGRAMS   *        TOTAL      IBBA        KS       INT
 CPU TIMES  *         9.99      0.03      8.13      1.68
 REAL TIME  *        11.63 SEC
 DISK USED  *       169.15 MB      
 **********************************************************************************************************************************
 Molecular orbitals read from record     2100.2  Type=RKS/LOCAL(IBO)  
 Occupation numbers read from record     2100.2  Type=RKS/LOCAL(IBO)  
 Orbital energies read from record       2100.2  Type=RKS/LOCAL(IBO)  
 Redundancy group numbers read from rec  2100.2  Type=RKS/LOCAL(IBO)  

 IBBA/SVP energy=      0.000000000000

        KS-SCF  
   -194.13072825
 **********************************************************************************************************************************
 Molpro calculation terminated
