
 Primary working directories    : /tmp/sb13343
 Secondary working directories  : /tmp/sb13343
 Wavefunction directory         : /panfs/panasas01/chem/sb13343/wfu/
 Main file repository           : /tmp/sb13343/

 SHA1      : b4a5b34a9e711420743f49e6833241d17c61fb3c
 NAME      : 2099.9.b4a5b34
 ARCHNAME  : linux/x86_64_openmp
 FC        : /cm/shared/languages/GCC-6.1/bin/gfortran
 BLASLIB   : -lblas
 id        : simonbennie

 Nodes     nprocs
 node32-034    1

 Using customized tuning parameters: mindgm=1; mindgv=20; mindgc=4; mindgr=1; noblas=0; minvec=7
 default implementation of scratch files=df  

 memory,500,m
 geomtyp=xyz
 nosym
 noorient
 geometry={
 C          0.00000        0.00000        0.00000
 O          0.00000        0.00000        1.40962
 C          1.30608        0.00000        1.95787
 C          1.19221        0.00000        3.47353
 H          2.18666        0.00000        3.93332
 H         -1.04410        0.00000       -0.32474
 H          0.50079       -0.89267       -0.41051
 H          0.50079        0.89267       -0.41051
 H          1.86435       -0.88728        1.61056
 H          1.86435        0.88728        1.61056
 H          0.64981       -0.88690        3.81673
 H          0.64981        0.88690        3.81673
 }
 basis={ default,sto-3g }
 {uks,BH-LYP,direct;wf,34,1,0}
 {ibba,bonds=1}

 Variables initialized (895), CPU time= 0.00 sec
 Commands  initialized (725), CPU time= 0.02 sec, 591 directives.
 Default parameters read. Elapsed time= 0.09 sec

 Checking input...
 Passed
1


                                         ***  PROGRAM SYSTEM MOLPRO  ***
                                       Copyright, TTI GmbH Stuttgart, 2015
                                    Version 2099.9 linked May 26 2017 16:03:21


 **********************************************************************************************************************************
 LABEL *                                                                                 
  64 bit serial version                                                                  DATE: 08-Jun-17          TIME: 09:35:43  
 **********************************************************************************************************************************

 SHA1:             b4a5b34a9e711420743f49e6833241d17c61fb3c
 **********************************************************************************************************************************
 SETTING GEOMTYP        =    XYZ

 Variable memory set to  500000000 words,  buffer space 

 ZSYMEL=NOSYM

 SETTING BASIS          =    STO-3G


 Recomputing integrals since basis changed


 Using spherical harmonics

 Library entry C      S STO-3G               selected for orbital group  1
 Library entry C      P STO-3G               selected for orbital group  1
 Library entry O      S STO-3G               selected for orbital group  2
 Library entry O      P STO-3G               selected for orbital group  2
 Library entry H      S STO-3G               selected for orbital group  4


 PROGRAM * SEWARD (Integral evaluation for generally contracted gaussian basis sets)     Author: Roland Lindh, 1990

 Geometry written to block  1 of record 700


 Point group  C1  



 ATOMIC COORDINATES

 NR  ATOM    CHARGE       X              Y              Z

   1  C       6.00    0.000000000    0.000000000    0.000000000
   2  O       8.00    0.000000000    0.000000000    2.663795740
   3  C       6.00    2.468133497    0.000000000    3.699838088
   4  C       6.00    2.252950383    0.000000000    6.564020385
   5  H       1.00    4.132188528    0.000000000    7.432897560
   6  H       1.00   -1.973063047    0.000000000   -0.613669662
   7  H       1.00    0.946355946   -1.686901820   -0.775751471
   8  H       1.00    0.946355946    1.686901820   -0.775751471
   9  H       1.00    3.523110900   -1.676716196    3.043517307
  10  H       1.00    3.523110900    1.676716196    3.043517307
  11  H       1.00    1.227962933   -1.675998100    7.212574391
  12  H       1.00    1.227962933    1.675998100    7.212574391

 Bond lengths in Bohr (Angstrom)

 1-2  2.663795740  1-6  2.066293358  1-7  2.083990804  1-8  2.083990804  2-3  2.676764223
     ( 1.409620000)     ( 1.093435356)     ( 1.102800441)     ( 1.102800441)     ( 1.416482626)

  3- 4  2.872254168   3- 9  2.086890388   3-10  2.086890388   4- 5  2.070382464   4-11  2.068862297
       ( 1.519931450)       ( 1.104334835)       ( 1.104334835)       ( 1.095599218)       ( 1.094794780)

  4-12  2.068862297
       ( 1.094794780)

 Bond angles

  1-2-3  112.77108340   2-1-6  107.27693969   2-1-7  111.85402987   2-1-8  111.85402987

  2- 3- 4  108.47458109   2- 3- 9  110.14508041   2- 3-10  110.14508041   3- 4- 5  110.51724552

  3- 4-11  110.47015208   3- 4-12  110.47015208   4- 3- 9  110.57823876   4- 3-10  110.57823876

  5- 4-11  108.55021133   5- 4-12  108.55021133   6- 1- 7  108.84842497   6- 1- 8  108.84842497

  7- 1- 8  108.08590744   9- 3-10  106.92203462  11- 4-12  108.21261054

 NUCLEAR CHARGE:                   34
 NUMBER OF PRIMITIVE AOS:          84
 NUMBER OF SYMMETRY AOS:           84
 NUMBER OF CONTRACTIONS:           28   (  28A   )
 NUMBER OF CORE ORBITALS:           4   (   4A   )
 NUMBER OF VALENCE ORBITALS:       24   (  24A   )


 NUCLEAR REPULSION ENERGY  133.31979421


 Eigenvalues of metric

         1 0.212E+00 0.234E+00 0.263E+00 0.352E+00 0.360E+00 0.368E+00 0.374E+00 0.394E+00


 Contracted 2-electron integrals neglected if value below      1.0D-11
 AO integral compression algorithm  1   Integral accuracy      1.0D-11

     0.786 MB (compressed) written to integral file ( 77.9%)


 NUMBER OF SORTED TWO-ELECTRON INTEGRALS:      82621.     BUFFER LENGTH:  32768
 NUMBER OF SEGMENTS:   1  SEGMENT LENGTH:      82621      RECORD LENGTH: 524288

 Memory used in sort:       0.64 MW

 SORT1 READ       95283. AND WROTE       67599. INTEGRALS IN      1 RECORDS. CPU TIME:     0.00 SEC, REAL TIME:     0.00 SEC
 SORT2 READ       67599. AND WROTE       82621. INTEGRALS IN      3 RECORDS. CPU TIME:     0.01 SEC, REAL TIME:     0.02 SEC

 FILE SIZES:   FILE 1:    31.0 MBYTE,  FILE 4:     4.2 MBYTE,   TOTAL:     35.2 MBYTE

 OPERATOR DM      FOR CENTER  0  COORDINATES:    0.000000    0.000000    0.000000


 **********************************************************************************************************************************
 DATASETS  * FILE   NREC   LENGTH (MB)   RECORD NAMES
              1      19       30.48       500      610      700      900      950      970     1000      129      960     1100   
                                          VAR    BASINP    GEOM    SYMINP    ZMAT    AOBASIS   BASIS     P2S    ABASIS      S 
                                         1400     1410     1200     1210     1080     1600     1650     1300     1700   
                                           T        V       H0       H01     AOSYM     SMH    MOLCAS    ERIS     OPER   

 PROGRAMS   *        TOTAL       INT
 CPU TIMES  *         0.44      0.30
 REAL TIME  *         0.78 SEC
 DISK USED  *        35.64 MB      
 **********************************************************************************************************************************

 Density functional group BH-LYP=B88+LYP
 Functional: B88(Automatically generated (new) B88)                            Gradient terms: 1
 Functional: LYP(Automatically generated (new) LYP)                            Gradient terms: 1
 Use grid at  1800.2


 Exact exchange will be calculated, factor:  0.5000

 Functional: B88                       Factor:  0.5000
 Functional: LYP                       Factor:  1.0000

 Generated new metagrid on record  1800.2 with target accuracy 1.0D-06 and 44796 points in CPU time    1.1
 Computed new grid on record 1800.1 in CPU time    1.2
   26632 words reserved for DFT integration

 PROGRAM * UKS-SCF (Unrestricted Kohn-Sham)     Authors: W. Meyer, H.-J. Werner, P.J. Knowles, 1993

 NUMBER OF ELECTRONS:      17+   17-    SPACE SYMMETRY=1    SPIN SYMMETRY: Singlet 
 CONVERGENCE THRESHOLDS:    1.00E-05 (Density)    1.00E-06 (Energy)
 MAX. NUMBER OF ITERATIONS:       60
 INTERPOLATION TYPE:            DIIS
 INTERPOLATION STEPS:              2 (START)      1 (STEP)
 LEVEL SHIFTS:                 -0.20 (ALPHA)  -0.20 (BETA) 



 Use fine grid record 1800.2 for energy threshold  1.0D-06
 Orbital guess generated from atomic densities. Full valence occupancy:   17

 Molecular orbital dump at record        2200.2

 Initial alpha occupation  17
 Initial beta  occupation  17

 ITERATION    DDIFF          GRAD             ENERGY        2-EL.EN.            DIPOLE MOMENTS         DIIS
    1      0.000D+00      0.000D+00      -191.63095572    436.561504    1.03649   -0.00000   -0.61217    0
    2      0.413D-01      0.161D-01      -191.78283159    428.153586    0.37965   -0.00000   -0.18582    1
    3      0.409D-02      0.175D-02      -191.78474319    427.703760    0.38405   -0.00000   -0.19048    2
    4      0.170D-02      0.544D-03      -191.78499426    427.654125    0.38884   -0.00000   -0.19362    3
    5      0.799D-03      0.187D-03      -191.78502962    427.649578    0.39316   -0.00000   -0.19692    4
    6      0.231D-03      0.464D-04      -191.78503237    427.649611    0.39280   -0.00000   -0.19710    5
    7      0.581D-04      0.110D-04      -191.78503252    427.649272    0.39283   -0.00000   -0.19708    5
    8      0.685D-05      0.211D-05      -191.78503252    427.649433    0.39279   -0.00000   -0.19706    6
    9      0.234D-05      0.777D-06      -191.78503252    427.649375    0.39280   -0.00000   -0.19705    6

 Final alpha occupancy:  17
 Final beta  occupancy:  17

 !UKS STATE 1.1 Energy               -191.785032523725
 Nuclear energy                       133.31979421
 One-electron energy                 -524.47884072
 Two-electron energy                  213.82468775
 Density functional                   -14.45067376     B88=-26.68706436 LYP= -1.10714158
 Virial quotient                       -1.01528842
 !UKS STATE 1.1 Dipole moment           0.39279522    -0.00000000    -0.19704759
 Dipole moment /Debye                   0.99832047    -0.00000000    -0.50081221

 Orbital energies for positive spin:

         1.1          2.1          3.1          4.1          5.1          6.1          7.1          8.1          9.1         10.1
    -19.414867   -10.460567   -10.454041   -10.410790    -1.102591    -0.826822    -0.730524    -0.658484    -0.514497    -0.500778

        11.1         12.1         13.1         14.1         15.1         16.1         17.1         18.1         19.1
     -0.476468    -0.454088    -0.412436    -0.383128    -0.378893    -0.281781    -0.215686     0.385956     0.476306

 Orbital energies for negative spin:

         1.1          2.1          3.1          4.1          5.1          6.1          7.1          8.1          9.1         10.1
    -19.414867   -10.460568   -10.454043   -10.410789    -1.102589    -0.826823    -0.730525    -0.658485    -0.514497    -0.500778

        11.1         12.1         13.1         14.1         15.1         16.1         17.1         18.1         19.1
     -0.476468    -0.454088    -0.412436    -0.383128    -0.378893    -0.281777    -0.215684     0.385955     0.476306

 HOMO    -17.1    -0.215684 =      -5.8691eV
 LUMO    -18.1     0.385955 =      10.5024eV
 LUMO-HOMO         0.601640 =      16.3715eV

 EXPECTATION VALUE OF S**2:             0.00000000

 Occupation number threshold for canonical orbitals:  1.999000 (occupied),  0.001000 (virtual)

 Number of pseudo-canonical orbitals per symmetry:   17
 Number of active natural orbitals per symmetry:      0

 Natural orbitals saved to record    2200.2 (Orbital set 3)

 Orbital spaces for UNO-CAS (Min. occupation: 0.020  Max. occupation: 1.980):

 Closed:       17
 Active:        0


 **********************************************************************************************************************************
 DATASETS  * FILE   NREC   LENGTH (MB)   RECORD NAMES
              1      20       31.92       500      610      700      900      950      970     1000      129      960     1100   
                                          VAR    BASINP    GEOM    SYMINP    ZMAT    AOBASIS   BASIS     P2S    ABASIS      S 
                                         1400     1410     1200     1210     1080     1600     1650     1300     1700     1800   
                                           T        V       H0       H01     AOSYM     SMH    MOLCAS    ERIS     OPER     GRID   

              2       5        2.98       700     1000      520     1800     2200   
                                         GEOM     BASIS   MCVARS    GRID      UKS  

 PROGRAMS   *        TOTAL       UKS       INT
 CPU TIMES  *         3.86      3.42      0.30
 REAL TIME  *         4.29 SEC
 DISK USED  *        35.64 MB      
 **********************************************************************************************************************************


 PROGRAM * Intrinsic Basis Bonding Analysis (IBBA)          Author: G. Knizia

 Molecular orbitals read from record     2200.2  Type=UKS/ALPHA (state 1.1)
 Fock matrix read from record            2200.2  Type=UKS/TOTAL (state 1.1)
 Orbital energies read from record       2200.2  Type=UKS/ALPHA (state 1.1)
 Density matrix read from record         2200.2  Type=UKS/CHARGE (state 1.1)

 Number of core orbitals:           4 (   4 )
 Number of closed-shell orbitals:  13 (  13 )

 Basis set MINAO-AUTO-PP generated.      Number of basis functions:   28 

 Polarized AO type:                A = (O Ot + (1-O)(1-Ot)) P12
 Orthogonalization method:         Symmetric (Loewdin)
 Localization functional:          L = sum[A,i] <i|n_A|i>^4 -> max

 Localization group 1:  17 orbitals, occupancy  2.000
 Iterative localization: IB/PM,    7 iter; Final gradient 0.20E-09

 Bond order analysis:       [THRPRINT= 0.020]

   CEN ATOM   CEN ATOM     WIBERG.BO      RENORM.BO
     1   C  -   2   O       1.010431       1.014549
     1   C  -   6   H       0.959285       0.977803
     1   C  -   7   H       0.959071       0.955318
     1   C  -   8   H       0.959071       0.955318

     2   O  -   1   C       1.010431       1.014549
     2   O  -   3   C       0.995487       0.996623
     2   O  -   8   H       0.024899       0.014719
     2   O  -   7   H       0.024899       0.014719
     2   O  -  10   H       0.023099       0.013673
     2   O  -   9   H       0.023099       0.013673

     3   C  -   4   C       1.015317       1.009235
     3   C  -   2   O       0.995487       0.996623
     3   C  -   9   H       0.949375       0.945141
     3   C  -  10   H       0.949375       0.945141

     4   C  -   3   C       1.015317       1.009235
     4   C  -   5   H       0.966961       0.992271
     4   C  -  12   H       0.964483       0.987932
     4   C  -  11   H       0.964483       0.987932

     5   H  -   4   C       0.966961       0.992271

     6   H  -   1   C       0.959285       0.977803

     7   H  -   1   C       0.959071       0.955318
     7   H  -   2   O       0.024899       0.014719

     8   H  -   1   C       0.959071       0.955318
     8   H  -   2   O       0.024899       0.014719

     9   H  -   3   C       0.949375       0.945141
     9   H  -   2   O       0.023099       0.013673

    10   H  -   3   C       0.949375       0.945141
    10   H  -   2   O       0.023099       0.013673

    11   H  -   4   C       0.964483       0.987932

    12   H  -   4   C       0.964483       0.987932


 Valency analysis:

   CEN ATOM   TOT.VALENCE
     1   C       3.905953
     2   O       2.125241
     3   C       3.930464
     4   C       3.933187
     5   H       0.982371
     6   H       0.980947
     7   H       0.987409
     8   H       0.987409
     9   H       0.988021
    10   H       0.988021
    11   H       0.981665
    12   H       0.981665

 Total charge composition:

   CEN ATOM         s          p       ELECTRONS ->P.CHARGE
     1   C       3.00382    3.24174      6.24556   -0.24556
     2   O       3.64307    4.59831      8.24138   -0.24138
     3   C       2.98099    3.13122      6.11221   -0.11221
     4   C       2.99333    3.39246      6.38578   -0.38578
     5   H       0.86723                 0.86723    0.13277
     6   H       0.86197                 0.86197    0.13803
     7   H       0.88779                 0.88779    0.11221
     8   H       0.88779                 0.88779    0.11221
     9   H       0.89055                 0.89055    0.10945
    10   H       0.89055                 0.89055    0.10945
    11   H       0.86459                 0.86459    0.13541
    12   H       0.86459                 0.86459    0.13541

 Total charge composition, AO contributions:

   CEN ATOM SHL      SPHERICAL COMPONENTS
     1   C  1s       1.99206
     1   C  2s       1.01175
     1   C  2p       1.18401    1.16904    0.88870

     2   O  1s       1.99719
     2   O  2s       1.64588
     2   O  2p       1.41029    1.92985    1.25817

     3   C  1s       1.99228
     3   C  2s       0.98871
     3   C  2p       0.92346    1.16561    1.04215

     4   C  1s       1.99135
     4   C  2s       1.00198
     4   C  2p       1.16799    1.17413    1.05034

     5   H  1s       0.86723

     6   H  1s       0.86197

     7   H  1s       0.88779

     8   H  1s       0.88779

     9   H  1s       0.89055

    10   H  1s       0.89055

    11   H  1s       0.86459

    12   H  1s       0.86459

 Summary of localized orbital composition:   [THRPRINT= 0.020]

   ORB  GRP  ORB.ENERGY      CENTERS/CHARGES
     1   1   -19.239328      O  2   2.000
     2   1   -10.352935      C  3   2.000
     3   1   -10.342307      C  1   2.000
     4   1   -10.292815      C  4   2.000
     5   1    -0.755188      O  2   1.163   C  1   0.828
     6   1    -0.745405      O  2   1.167   C  3   0.820
     7   1    -0.625178      C  3   1.009   C  4   0.982
     8   1    -0.617163      O  2   1.976   (other: 0.024)
     9   1    -0.565402      C  1   1.139   H  6   0.854
    10   1    -0.564362      C  1   1.126   H  7   0.873
    11   1    -0.564362      C  1   1.126   H  8   0.873
    12   1    -0.560826      C  3   1.121   H  9   0.873
    13   1    -0.560826      C  3   1.121   H 10   0.873
    14   1    -0.546873      C  4   1.129   H  5   0.861
    15   1    -0.540722      C  4   1.132   H 12   0.859
    16   1    -0.540722      C  4   1.132   H 11   0.859
    17   1    -0.262030      O  2   1.930   (other: 0.070)

 Localized orbitals saved to record      2200.2  (orbital set 4)


 **********************************************************************************************************************************
 DATASETS  * FILE   NREC   LENGTH (MB)   RECORD NAMES
              1      20       31.92       500      610      700      900      950      970     1000      129      960     1100   
                                          VAR    BASINP    GEOM    SYMINP    ZMAT    AOBASIS   BASIS     P2S    ABASIS      S 
                                         1400     1410     1200     1210     1080     1600     1650     1300     1700     1800   
                                           T        V       H0       H01     AOSYM     SMH    MOLCAS    ERIS     OPER     GRID   

              2       5        2.99       700     1000      520     1800     2200   
                                         GEOM     BASIS   MCVARS    GRID      UKS  

 PROGRAMS   *        TOTAL      IBBA       UKS       INT
 CPU TIMES  *         3.89      0.03      3.42      0.30
 REAL TIME  *         4.40 SEC
 DISK USED  *        35.64 MB      
 **********************************************************************************************************************************
 Molecular orbitals read from record     2200.2  Type=UKS/LOCAL(IBO)  
 Occupation numbers read from record     2200.2  Type=UKS/LOCAL(IBO)  
 Orbital energies read from record       2200.2  Type=UKS/LOCAL(IBO)  
 Redundancy group numbers read from rec  2200.2  Type=UKS/BETA (state 1.1)

 IBBA/STO-3G energy=      0.000000000000

        UKS-SCF 
   -191.78503252
 **********************************************************************************************************************************
 Molpro calculation terminated
