
 Primary working directories    : /tmp/sb13343
 Secondary working directories  : /tmp/sb13343
 Wavefunction directory         : /panfs/panasas01/chem/sb13343/wfu/
 Main file repository           : /tmp/sb13343/

 SHA1      : b4a5b34a9e711420743f49e6833241d17c61fb3c
 NAME      : 2099.9.b4a5b34
 ARCHNAME  : linux/x86_64_openmp
 FC        : /cm/shared/languages/GCC-6.1/bin/gfortran
 BLASLIB   : -lblas
 id        : simonbennie

 Nodes     nprocs
 node32-030    1

 Using customized tuning parameters: mindgm=1; mindgv=20; mindgc=4; mindgr=1; noblas=0; minvec=7
 default implementation of scratch files=df  

 memory,500,m
 geomtyp=xyz
 nosym
 noorient
 geometry={
 C          0.00000        0.00000        0.00000
 O          0.00000        0.00000        1.40962
 C          1.30608        0.00000        1.95787
 C          1.19221        0.00000        3.47353
 H          2.18666        0.00000        3.93332
 H         -1.04410        0.00000       -0.32474
 H          0.50079       -0.89267       -0.41051
 H          0.50079        0.89267       -0.41051
 H          1.86435       -0.88728        1.61056
 H          1.86435        0.88728        1.61056
 H          0.64981       -0.88690        3.81673
 H          0.64981        0.88690        3.81673
 }
 basis={ default,svp }
 {ks,BH-LYP,direct;wf,34,1,0}
 {ibba,bonds=1}

 Variables initialized (895), CPU time= 0.00 sec
 Commands  initialized (725), CPU time= 0.02 sec, 591 directives.
 Default parameters read. Elapsed time= 0.09 sec

 Checking input...
 Passed
1


                                         ***  PROGRAM SYSTEM MOLPRO  ***
                                       Copyright, TTI GmbH Stuttgart, 2015
                                    Version 2099.9 linked May 26 2017 16:03:21


 **********************************************************************************************************************************
 LABEL *                                                                                 
  64 bit serial version                                                                  DATE: 08-Jun-17          TIME: 10:10:55  
 **********************************************************************************************************************************

 SHA1:             b4a5b34a9e711420743f49e6833241d17c61fb3c
 **********************************************************************************************************************************
 SETTING GEOMTYP        =    XYZ

 Variable memory set to  500000000 words,  buffer space 

 ZSYMEL=NOSYM

 SETTING BASIS          =    SVP


 Recomputing integrals since basis changed


 Using spherical harmonics

 Library entry C      S def2-SVP             selected for orbital group  1
 Library entry C      P def2-SVP             selected for orbital group  1
 Library entry C      D def2-SVP             selected for orbital group  1
 Library entry O      S def2-SVP             selected for orbital group  2
 Library entry O      P def2-SVP             selected for orbital group  2
 Library entry O      D def2-SVP             selected for orbital group  2
 Library entry H      S def2-SVP             selected for orbital group  4
 Library entry H      P def2-SVP             selected for orbital group  4


 PROGRAM * SEWARD (Integral evaluation for generally contracted gaussian basis sets)     Author: Roland Lindh, 1990

 Geometry written to block  1 of record 700


 Point group  C1  



 ATOMIC COORDINATES

 NR  ATOM    CHARGE       X              Y              Z

   1  C       6.00    0.000000000    0.000000000    0.000000000
   2  O       8.00    0.000000000    0.000000000    2.663795740
   3  C       6.00    2.468133497    0.000000000    3.699838088
   4  C       6.00    2.252950383    0.000000000    6.564020385
   5  H       1.00    4.132188528    0.000000000    7.432897560
   6  H       1.00   -1.973063047    0.000000000   -0.613669662
   7  H       1.00    0.946355946   -1.686901820   -0.775751471
   8  H       1.00    0.946355946    1.686901820   -0.775751471
   9  H       1.00    3.523110900   -1.676716196    3.043517307
  10  H       1.00    3.523110900    1.676716196    3.043517307
  11  H       1.00    1.227962933   -1.675998100    7.212574391
  12  H       1.00    1.227962933    1.675998100    7.212574391

 Bond lengths in Bohr (Angstrom)

 1-2  2.663795740  1-6  2.066293358  1-7  2.083990804  1-8  2.083990804  2-3  2.676764223
     ( 1.409620000)     ( 1.093435356)     ( 1.102800441)     ( 1.102800441)     ( 1.416482626)

  3- 4  2.872254168   3- 9  2.086890388   3-10  2.086890388   4- 5  2.070382464   4-11  2.068862297
       ( 1.519931450)       ( 1.104334835)       ( 1.104334835)       ( 1.095599218)       ( 1.094794780)

  4-12  2.068862297
       ( 1.094794780)

 Bond angles

  1-2-3  112.77108340   2-1-6  107.27693969   2-1-7  111.85402987   2-1-8  111.85402987

  2- 3- 4  108.47458109   2- 3- 9  110.14508041   2- 3-10  110.14508041   3- 4- 5  110.51724552

  3- 4-11  110.47015208   3- 4-12  110.47015208   4- 3- 9  110.57823876   4- 3-10  110.57823876

  5- 4-11  108.55021133   5- 4-12  108.55021133   6- 1- 7  108.84842497   6- 1- 8  108.84842497

  7- 1- 8  108.08590744   9- 3-10  106.92203462  11- 4-12  108.21261054

 NUCLEAR CHARGE:                   34
 NUMBER OF PRIMITIVE AOS:         156
 NUMBER OF SYMMETRY AOS:          152
 NUMBER OF CONTRACTIONS:           96   (  96A   )
 NUMBER OF CORE ORBITALS:           4   (   4A   )
 NUMBER OF VALENCE ORBITALS:       24   (  24A   )


 NUCLEAR REPULSION ENERGY  133.31979421


 Eigenvalues of metric

         1 0.364E-02 0.952E-02 0.147E-01 0.282E-01 0.312E-01 0.319E-01 0.432E-01 0.449E-01


 Contracted 2-electron integrals neglected if value below      1.0D-11
 AO integral compression algorithm  1   Integral accuracy      1.0D-11

     37.487 MB (compressed) written to integral file ( 40.8%)


 NUMBER OF SORTED TWO-ELECTRON INTEGRALS:   10841496.     BUFFER LENGTH:  32768
 NUMBER OF SEGMENTS:   1  SEGMENT LENGTH:   10841496      RECORD LENGTH: 524288

 Memory used in sort:      11.40 MW

 SORT1 READ    11483613. AND WROTE     8333550. INTEGRALS IN     24 RECORDS. CPU TIME:     0.14 SEC, REAL TIME:     0.26 SEC
 SORT2 READ     8333550. AND WROTE    10841496. INTEGRALS IN    143 RECORDS. CPU TIME:     0.28 SEC, REAL TIME:     0.35 SEC

 FILE SIZES:   FILE 1:    68.0 MBYTE,  FILE 4:   100.7 MBYTE,   TOTAL:    168.7 MBYTE

 OPERATOR DM      FOR CENTER  0  COORDINATES:    0.000000    0.000000    0.000000


 **********************************************************************************************************************************
 DATASETS  * FILE   NREC   LENGTH (MB)   RECORD NAMES
              1      19       62.89       500      610      700      900      950      970     1000      129      960     1100   
                                          VAR    BASINP    GEOM    SYMINP    ZMAT    AOBASIS   BASIS     P2S    ABASIS      S 
                                         1400     1410     1200     1210     1080     1600     1650     1300     1700   
                                           T        V       H0       H01     AOSYM     SMH    MOLCAS    ERIS     OPER   

 PROGRAMS   *        TOTAL       INT
 CPU TIMES  *         2.05      1.90
 REAL TIME  *         2.81 SEC
 DISK USED  *       169.15 MB      
 **********************************************************************************************************************************

 Density functional group BH-LYP=B88+LYP
 Functional: B88(Automatically generated (new) B88)                            Gradient terms: 1
 Functional: LYP(Automatically generated (new) LYP)                            Gradient terms: 1
 Use grid at  1800.2


 Exact exchange will be calculated, factor:  0.5000

 Functional: B88                       Factor:  0.5000
 Functional: LYP                       Factor:  1.0000

 Generated new metagrid on record  1800.2 with target accuracy 1.0D-06 and 44796 points in CPU time    1.2
 Computed new grid on record 1800.1 in CPU time    1.3
   80368 words reserved for DFT integration

 PROGRAM * RKS-SCF (Restricted closed shell Kohn-Sham)     Authors: W. Meyer, H.-J. Werner, P.J. Knowles, 1993

 NUMBER OF ELECTRONS:      17+   17-    SPACE SYMMETRY=1    SPIN SYMMETRY: Singlet 
 CONVERGENCE THRESHOLDS:    1.00E-05 (Density)    1.00E-06 (Energy)
 MAX. NUMBER OF ITERATIONS:       60
 INTERPOLATION TYPE:            DIIS
 INTERPOLATION STEPS:              2 (START)      1 (STEP)
 LEVEL SHIFTS:                  0.00 (CLOSED)  0.00 (OPEN) 



 Use fine grid record 1800.2 for energy threshold  1.0D-06
 Orbital guess generated from atomic densities. Full valence occupancy:   17

 Molecular orbital dump at record        2100.2

 Initial occupancy:  17

 ITERATION    DDIFF          GRAD             ENERGY        2-EL.EN.            DIPOLE MOMENTS         DIIS   ORB.
    1      0.000D+00      0.000D+00      -194.01331253    432.713322    0.79264   -0.00000   -0.48450    0    start
    2      0.000D+00      0.668D-02      -194.03632939    421.112600    0.13167   -0.00000   -0.10090    1    diag
    3      0.110D-01      0.585D-02      -194.07713217    426.648498    0.46626   -0.00000   -0.29979    2    diag
    4      0.525D-02      0.790D-03      -194.07765621    426.508575    0.42615   -0.00000   -0.27719    3    diag
    5      0.695D-03      0.332D-03      -194.07778756    426.461945    0.43590   -0.00000   -0.28078    4    diag
    6      0.271D-03      0.459D-04      -194.07779015    426.472832    0.43418   -0.00000   -0.28081    5    diag
    7      0.450D-04      0.113D-04      -194.07779032    426.473974    0.43454   -0.00000   -0.28063    6    diag
    8      0.110D-04      0.265D-05      -194.07779033    426.473840    0.43449   -0.00000   -0.28067    7    diag
    9      0.255D-05      0.296D-06      -194.07779033    426.473785    0.43447   -0.00000   -0.28066    0    orth

 Final occupancy:  17

 !RKS STATE 1.1 Energy               -194.077790329653
 Nuclear energy                       133.31979421
 One-electron energy                 -526.20962265
 Two-electron energy                  213.23689237
 SCF exchange energy                  -26.60540822     Factor= 0.5000
 Density functional                   -14.42485426     B88=-26.62929626 LYP= -1.11020613
 Virial quotient                       -1.00996159
 !RKS STATE 1.1 Dipole moment           0.43447030    -0.00000000    -0.28066081
 Dipole moment /Debye                   1.10424104    -0.00000000    -0.71332190

 Orbital energies:

         1.1          2.1          3.1          4.1          5.1          6.1          7.1          8.1          9.1         10.1
    -19.673932   -10.636581   -10.634574   -10.581862    -1.150535    -0.858351    -0.762105    -0.689034    -0.557646    -0.556486

        11.1         12.1         13.1         14.1         15.1         16.1         17.1         18.1         19.1
     -0.523252    -0.487134    -0.447118    -0.425404    -0.416178    -0.382289    -0.323743     0.097780     0.119911

 HOMO     17.1    -0.323743 =      -8.8095eV
 LUMO     18.1     0.097780 =       2.6607eV
 LUMO-HOMO         0.421522 =      11.4702eV


 **********************************************************************************************************************************
 DATASETS  * FILE   NREC   LENGTH (MB)   RECORD NAMES
              1      20       64.33       500      610      700      900      950      970     1000      129      960     1100   
                                          VAR    BASINP    GEOM    SYMINP    ZMAT    AOBASIS   BASIS     P2S    ABASIS      S 
                                         1400     1410     1200     1210     1080     1600     1650     1300     1700     1800   
                                           T        V       H0       H01     AOSYM     SMH    MOLCAS    ERIS     OPER     GRID   

              2       5        3.14       700     1000      520     1800     2100   
                                         GEOM     BASIS   MCVARS    GRID      RKS  

 PROGRAMS   *        TOTAL        KS       INT
 CPU TIMES  *         9.98      7.94      1.90
 REAL TIME  *        11.55 SEC
 DISK USED  *       169.15 MB      
 **********************************************************************************************************************************


 PROGRAM * Intrinsic Basis Bonding Analysis (IBBA)          Author: G. Knizia

 Molecular orbitals read from record     2100.2  Type=RKS/CANONICAL (state 1.1)
 Fock matrix read from record            2100.2  Type=RKS/TOTAL (state 1.1)
 Orbital energies read from record       2100.2  Type=RKS/CANONICAL (state 1.1)
 Density matrix read from record         2100.2  Type=RKS/CHARGE (state 1.1)

 Number of core orbitals:           4 (   4 )
 Number of closed-shell orbitals:  13 (  13 )

 Basis set MINAO-AUTO-PP generated.      Number of basis functions:   28 

 Polarized AO type:                A = (O Ot + (1-O)(1-Ot)) P12
 Orthogonalization method:         Symmetric (Loewdin)
 Localization functional:          L = sum[A,i] <i|n_A|i>^4 -> max

 Localization group 1:  17 orbitals, occupancy  2.000
 Iterative localization: IB/PM,    7 iter; Final gradient 0.19E-09

 Bond order analysis:       [THRPRINT= 0.020]

   CEN ATOM   CEN ATOM     WIBERG.BO      RENORM.BO
     1   C  -   2   O       0.979039       1.017733
     1   C  -   6   H       0.962100       0.980000
     1   C  -   7   H       0.955323       0.945002
     1   C  -   8   H       0.955323       0.945002

     2   O  -   1   C       0.979039       1.017733
     2   O  -   3   C       0.959874       0.991916
     2   O  -   8   H       0.029550       0.017381
     2   O  -   7   H       0.029550       0.017381
     2   O  -  10   H       0.026837       0.015749
     2   O  -   9   H       0.026837       0.015749

     3   C  -   4   C       1.026313       1.019540
     3   C  -   2   O       0.959874       0.991916
     3   C  -   9   H       0.944453       0.934049
     3   C  -  10   H       0.944453       0.934049

     4   C  -   3   C       1.026313       1.019540
     4   C  -   5   H       0.966206       0.990134
     4   C  -  12   H       0.962758       0.983643
     4   C  -  11   H       0.962758       0.983643

     5   H  -   4   C       0.966206       0.990134

     6   H  -   1   C       0.962100       0.980000

     7   H  -   1   C       0.955323       0.945002
     7   H  -   2   O       0.029550       0.017381

     8   H  -   1   C       0.955323       0.945002
     8   H  -   2   O       0.029550       0.017381

     9   H  -   3   C       0.944453       0.934049
     9   H  -   2   O       0.026837       0.015749

    10   H  -   3   C       0.944453       0.934049
    10   H  -   2   O       0.026837       0.015749

    11   H  -   4   C       0.962758       0.983643

    12   H  -   4   C       0.962758       0.983643


 Valency analysis:

   CEN ATOM   TOT.VALENCE
     1   C       3.869112
     2   O       2.081587
     3   C       3.895560
     4   C       3.941979
     5   H       0.983894
     6   H       0.979854
     7   H       0.988699
     8   H       0.988699
     9   H       0.990098
    10   H       0.990098
    11   H       0.982080
    12   H       0.982080

 Total charge composition:

   CEN ATOM         s          p       ELECTRONS ->P.CHARGE
     1   C       3.01189    3.14126      6.15315   -0.15315
     2   O       3.59102    4.82295      8.41397   -0.41397
     3   C       2.97940    3.02254      6.00194   -0.00194
     4   C       3.01630    3.36284      6.37914   -0.37914
     5   H       0.87309                 0.87309    0.12691
     6   H       0.85806                 0.85806    0.14194
     7   H       0.89369                 0.89369    0.10631
     8   H       0.89369                 0.89369    0.10631
     9   H       0.90049                 0.90049    0.09951
    10   H       0.90049                 0.90049    0.09951
    11   H       0.86614                 0.86614    0.13386
    12   H       0.86614                 0.86614    0.13386

 Total charge composition, AO contributions:

   CEN ATOM SHL      SPHERICAL COMPONENTS
     1   C  1s       1.99138
     1   C  2s       1.02052
     1   C  2p       1.17824    1.15676    0.80627

     2   O  1s       1.99699
     2   O  2s       1.59404
     2   O  2p       1.53175    1.91968    1.37152

     3   C  1s       1.99163
     3   C  2s       0.98776
     3   C  2p       0.85108    1.14860    1.02286

     4   C  1s       1.99057
     4   C  2s       1.02573
     4   C  2p       1.15393    1.16469    1.04421

     5   H  1s       0.87309

     6   H  1s       0.85806

     7   H  1s       0.89369

     8   H  1s       0.89369

     9   H  1s       0.90049

    10   H  1s       0.90049

    11   H  1s       0.86614

    12   H  1s       0.86614

 Summary of localized orbital composition:   [THRPRINT= 0.020]

   ORB  GRP  ORB.ENERGY      CENTERS/CHARGES
     1   1   -19.520587      O  2   2.000
     2   1   -10.528714      C  3   2.000
     3   1   -10.521296      C  1   2.000
     4   1   -10.461883      C  4   2.000
     5   1    -0.855602      O  2   1.258   C  1   0.734
     6   1    -0.847657      O  2   1.268   C  3   0.721
     7   1    -0.665783      C  3   1.006   C  4   0.987
     8   1    -0.640822      O  2   1.965   (other: 0.035)
     9   1    -0.595891      C  1   1.122   H  7   0.876
    10   1    -0.595891      C  1   1.122   H  8   0.876
    11   1    -0.595340      C  1   1.143   H  6   0.851
    12   1    -0.591716      C  3   1.111   H 10   0.880
    13   1    -0.591716      C  3   1.111   H  9   0.880
    14   1    -0.573963      C  4   1.120   H  5   0.867
    15   1    -0.567953      C  4   1.130   H 11   0.860
    16   1    -0.567953      C  4   1.130   H 12   0.860
    17   1    -0.383461      O  2   1.919   (other: 0.081)

 Localized orbitals saved to record      2100.2  (orbital set 2)


 **********************************************************************************************************************************
 DATASETS  * FILE   NREC   LENGTH (MB)   RECORD NAMES
              1      20       64.33       500      610      700      900      950      970     1000      129      960     1100   
                                          VAR    BASINP    GEOM    SYMINP    ZMAT    AOBASIS   BASIS     P2S    ABASIS      S 
                                         1400     1410     1200     1210     1080     1600     1650     1300     1700     1800   
                                           T        V       H0       H01     AOSYM     SMH    MOLCAS    ERIS     OPER     GRID   

              2       5        3.21       700     1000      520     1800     2100   
                                         GEOM     BASIS   MCVARS    GRID      RKS  

 PROGRAMS   *        TOTAL      IBBA        KS       INT
 CPU TIMES  *        10.02      0.03      7.94      1.90
 REAL TIME  *        11.69 SEC
 DISK USED  *       169.15 MB      
 **********************************************************************************************************************************
 Molecular orbitals read from record     2100.2  Type=RKS/LOCAL(IBO)  
 Occupation numbers read from record     2100.2  Type=RKS/LOCAL(IBO)  
 Orbital energies read from record       2100.2  Type=RKS/LOCAL(IBO)  
 Redundancy group numbers read from rec  2100.2  Type=RKS/LOCAL(IBO)  

 IBBA/SVP energy=      0.000000000000

        KS-SCF  
   -194.07779033
 **********************************************************************************************************************************
 Molpro calculation terminated
