
 Primary working directories    : /tmp/sb13343
 Secondary working directories  : /tmp/sb13343
 Wavefunction directory         : /panfs/panasas01/chem/sb13343/wfu/
 Main file repository           : /tmp/sb13343/

 SHA1      : b4a5b34a9e711420743f49e6833241d17c61fb3c
 NAME      : 2099.9.b4a5b34
 ARCHNAME  : linux/x86_64_openmp
 FC        : /cm/shared/languages/GCC-6.1/bin/gfortran
 BLASLIB   : -lblas
 id        : simonbennie

 Nodes     nprocs
 node32-028    1

 Using customized tuning parameters: mindgm=1; mindgv=20; mindgc=4; mindgr=1; noblas=0; minvec=7
 default implementation of scratch files=df  

 memory,500,m
 geomtyp=xyz
 nosym
 noorient
 geometry={
 C          0.00000        0.00000        0.00000
 O          0.00000        0.00000        1.40962
 C          1.30608        0.00000        1.95787
 C          1.19221        0.00000        3.47353
 H          2.18666        0.00000        3.93332
 H         -1.04410        0.00000       -0.32474
 H          0.50079       -0.89267       -0.41051
 H          0.50079        0.89267       -0.41051
 H          1.86435       -0.88728        1.61056
 H          1.86435        0.88728        1.61056
 H          0.64981       -0.88690        3.81673
 H          0.64981        0.88690        3.81673
 }
 basis={ default,svp }
 {ks,M06-2X,direct;wf,34,1,0}
 {ibba,bonds=1}

 Variables initialized (895), CPU time= 0.00 sec
 Commands  initialized (725), CPU time= 0.02 sec, 591 directives.
 Default parameters read. Elapsed time= 0.08 sec

 Checking input...
 Passed
1


                                         ***  PROGRAM SYSTEM MOLPRO  ***
                                       Copyright, TTI GmbH Stuttgart, 2015
                                    Version 2099.9 linked May 26 2017 16:03:21


 **********************************************************************************************************************************
 LABEL *                                                                                 
  64 bit serial version                                                                  DATE: 08-Jun-17          TIME: 10:21:35  
 **********************************************************************************************************************************

 SHA1:             b4a5b34a9e711420743f49e6833241d17c61fb3c
 **********************************************************************************************************************************
 SETTING GEOMTYP        =    XYZ

 Variable memory set to  500000000 words,  buffer space 

 ZSYMEL=NOSYM

 SETTING BASIS          =    SVP


 Recomputing integrals since basis changed


 Using spherical harmonics

 Library entry C      S def2-SVP             selected for orbital group  1
 Library entry C      P def2-SVP             selected for orbital group  1
 Library entry C      D def2-SVP             selected for orbital group  1
 Library entry O      S def2-SVP             selected for orbital group  2
 Library entry O      P def2-SVP             selected for orbital group  2
 Library entry O      D def2-SVP             selected for orbital group  2
 Library entry H      S def2-SVP             selected for orbital group  4
 Library entry H      P def2-SVP             selected for orbital group  4


 PROGRAM * SEWARD (Integral evaluation for generally contracted gaussian basis sets)     Author: Roland Lindh, 1990

 Geometry written to block  1 of record 700


 Point group  C1  



 ATOMIC COORDINATES

 NR  ATOM    CHARGE       X              Y              Z

   1  C       6.00    0.000000000    0.000000000    0.000000000
   2  O       8.00    0.000000000    0.000000000    2.663795740
   3  C       6.00    2.468133497    0.000000000    3.699838088
   4  C       6.00    2.252950383    0.000000000    6.564020385
   5  H       1.00    4.132188528    0.000000000    7.432897560
   6  H       1.00   -1.973063047    0.000000000   -0.613669662
   7  H       1.00    0.946355946   -1.686901820   -0.775751471
   8  H       1.00    0.946355946    1.686901820   -0.775751471
   9  H       1.00    3.523110900   -1.676716196    3.043517307
  10  H       1.00    3.523110900    1.676716196    3.043517307
  11  H       1.00    1.227962933   -1.675998100    7.212574391
  12  H       1.00    1.227962933    1.675998100    7.212574391

 Bond lengths in Bohr (Angstrom)

 1-2  2.663795740  1-6  2.066293358  1-7  2.083990804  1-8  2.083990804  2-3  2.676764223
     ( 1.409620000)     ( 1.093435356)     ( 1.102800441)     ( 1.102800441)     ( 1.416482626)

  3- 4  2.872254168   3- 9  2.086890388   3-10  2.086890388   4- 5  2.070382464   4-11  2.068862297
       ( 1.519931450)       ( 1.104334835)       ( 1.104334835)       ( 1.095599218)       ( 1.094794780)

  4-12  2.068862297
       ( 1.094794780)

 Bond angles

  1-2-3  112.77108340   2-1-6  107.27693969   2-1-7  111.85402987   2-1-8  111.85402987

  2- 3- 4  108.47458109   2- 3- 9  110.14508041   2- 3-10  110.14508041   3- 4- 5  110.51724552

  3- 4-11  110.47015208   3- 4-12  110.47015208   4- 3- 9  110.57823876   4- 3-10  110.57823876

  5- 4-11  108.55021133   5- 4-12  108.55021133   6- 1- 7  108.84842497   6- 1- 8  108.84842497

  7- 1- 8  108.08590744   9- 3-10  106.92203462  11- 4-12  108.21261054

 NUCLEAR CHARGE:                   34
 NUMBER OF PRIMITIVE AOS:         156
 NUMBER OF SYMMETRY AOS:          152
 NUMBER OF CONTRACTIONS:           96   (  96A   )
 NUMBER OF CORE ORBITALS:           4   (   4A   )
 NUMBER OF VALENCE ORBITALS:       24   (  24A   )


 NUCLEAR REPULSION ENERGY  133.31979421


 Eigenvalues of metric

         1 0.364E-02 0.952E-02 0.147E-01 0.282E-01 0.312E-01 0.319E-01 0.432E-01 0.449E-01


 Contracted 2-electron integrals neglected if value below      1.0D-11
 AO integral compression algorithm  1   Integral accuracy      1.0D-11

     37.487 MB (compressed) written to integral file ( 40.8%)


 NUMBER OF SORTED TWO-ELECTRON INTEGRALS:   10841496.     BUFFER LENGTH:  32768
 NUMBER OF SEGMENTS:   1  SEGMENT LENGTH:   10841496      RECORD LENGTH: 524288

 Memory used in sort:      11.40 MW

 SORT1 READ    11483613. AND WROTE     8333550. INTEGRALS IN     24 RECORDS. CPU TIME:     0.12 SEC, REAL TIME:     0.23 SEC
 SORT2 READ     8333550. AND WROTE    10841496. INTEGRALS IN    143 RECORDS. CPU TIME:     0.25 SEC, REAL TIME:     0.32 SEC

 FILE SIZES:   FILE 1:    68.0 MBYTE,  FILE 4:   100.7 MBYTE,   TOTAL:    168.7 MBYTE

 OPERATOR DM      FOR CENTER  0  COORDINATES:    0.000000    0.000000    0.000000


 **********************************************************************************************************************************
 DATASETS  * FILE   NREC   LENGTH (MB)   RECORD NAMES
              1      19       62.89       500      610      700      900      950      970     1000      129      960     1100   
                                          VAR    BASINP    GEOM    SYMINP    ZMAT    AOBASIS   BASIS     P2S    ABASIS      S 
                                         1400     1410     1200     1210     1080     1600     1650     1300     1700   
                                           T        V       H0       H01     AOSYM     SMH    MOLCAS    ERIS     OPER   

 PROGRAMS   *        TOTAL       INT
 CPU TIMES  *         1.75      1.61
 REAL TIME  *         2.34 SEC
 DISK USED  *       169.15 MB      
 **********************************************************************************************************************************

 Density functional group M06-2X=XC-M06-2X
 Functional: XC-M06-2X(via MFM 1.6)                                            Gradient terms: 1
 Use grid at  1800.2


 Exact exchange will be calculated, factor:  0.5400

 Functional: XC-M06-2X                 Factor:  1.0000

 Generated new metagrid on record  1800.2 with target accuracy 1.0D-06 and 44796 points in CPU time    1.1
 Computed new grid on record 1800.1 in CPU time    1.2
   80368 words reserved for DFT integration

 PROGRAM * RKS-SCF (Restricted closed shell Kohn-Sham)     Authors: W. Meyer, H.-J. Werner, P.J. Knowles, 1993

 NUMBER OF ELECTRONS:      17+   17-    SPACE SYMMETRY=1    SPIN SYMMETRY: Singlet 
 CONVERGENCE THRESHOLDS:    1.00E-05 (Density)    1.00E-06 (Energy)
 MAX. NUMBER OF ITERATIONS:       60
 INTERPOLATION TYPE:            DIIS
 INTERPOLATION STEPS:              2 (START)      1 (STEP)
 LEVEL SHIFTS:                  0.00 (CLOSED)  0.00 (OPEN) 



 Use fine grid record 1800.2 for energy threshold  1.0D-06
 Orbital guess generated from atomic densities. Full valence occupancy:   17

 Molecular orbital dump at record        2100.2

 Initial occupancy:  17

 ITERATION    DDIFF          GRAD             ENERGY        2-EL.EN.            DIPOLE MOMENTS         DIIS   ORB.
    1      0.000D+00      0.000D+00      -194.03269089    429.980381    0.76467   -0.00000   -0.46743    0    start
    2      0.000D+00      0.642D-02      -194.05327226    419.107641    0.13297    0.00000   -0.08904    1    diag
    3      0.103D-01      0.566D-02      -194.09171613    424.403080    0.45156   -0.00000   -0.28858    2    diag
    4      0.498D-02      0.807D-03      -194.09226147    424.217434    0.40922   -0.00000   -0.26455    3    diag
    5      0.694D-03      0.336D-03      -194.09239104    424.187610    0.41978   -0.00000   -0.26837    4    diag
    6      0.270D-03      0.522D-04      -194.09239453    424.197116    0.41764   -0.00000   -0.26858    5    diag
    7      0.552D-04      0.130D-04      -194.09239475    424.199567    0.41807   -0.00000   -0.26833    6    diag
    8      0.131D-04      0.327D-05      -194.09239477    424.199185    0.41798   -0.00000   -0.26839    7    diag
    9      0.327D-05      0.404D-06      -194.09239477    424.199097    0.41796   -0.00000   -0.26838    0    orth

 Final occupancy:  17

 !RKS STATE 1.1 Energy               -194.092394766541
 Nuclear energy                       133.31979421
 One-electron energy                 -526.14443016
 Two-electron energy                  212.09954871
 SCF exchange energy                  -26.57690456     Factor= 0.5400
 Density functional                   -13.36730753     XC-M06-2X=-13.36730753
 Virial quotient                       -1.01040879
 !RKS STATE 1.1 Dipole moment           0.41795623    -0.00000000    -0.26837934
 Dipole moment /Debye                   1.06226919    -0.00000000    -0.68210756

 Orbital energies:

         1.1          2.1          3.1          4.1          5.1          6.1          7.1          8.1          9.1         10.1
    -19.623231   -10.594465   -10.591629   -10.540448    -1.133804    -0.846817    -0.752317    -0.680964    -0.555447    -0.554628

        11.1         12.1         13.1         14.1         15.1         16.1         17.1         18.1         19.1
     -0.521551    -0.484389    -0.444504    -0.422150    -0.413264    -0.381451    -0.323214     0.101042     0.125073

 HOMO     17.1    -0.323214 =      -8.7951eV
 LUMO     18.1     0.101042 =       2.7495eV
 LUMO-HOMO         0.424255 =      11.5446eV


 **********************************************************************************************************************************
 DATASETS  * FILE   NREC   LENGTH (MB)   RECORD NAMES
              1      20       64.33       500      610      700      900      950      970     1000      129      960     1100   
                                          VAR    BASINP    GEOM    SYMINP    ZMAT    AOBASIS   BASIS     P2S    ABASIS      S 
                                         1400     1410     1200     1210     1080     1600     1650     1300     1700     1800   
                                           T        V       H0       H01     AOSYM     SMH    MOLCAS    ERIS     OPER     GRID   

              2       5        3.14       700     1000      520     1800     2100   
                                         GEOM     BASIS   MCVARS    GRID      RKS  

 PROGRAMS   *        TOTAL        KS       INT
 CPU TIMES  *        19.46     17.71      1.61
 REAL TIME  *        20.35 SEC
 DISK USED  *       169.15 MB      
 **********************************************************************************************************************************


 PROGRAM * Intrinsic Basis Bonding Analysis (IBBA)          Author: G. Knizia

 Molecular orbitals read from record     2100.2  Type=RKS/CANONICAL (state 1.1)
 Fock matrix read from record            2100.2  Type=RKS/TOTAL (state 1.1)
 Orbital energies read from record       2100.2  Type=RKS/CANONICAL (state 1.1)
 Density matrix read from record         2100.2  Type=RKS/CHARGE (state 1.1)

 Number of core orbitals:           4 (   4 )
 Number of closed-shell orbitals:  13 (  13 )

 Basis set MINAO-AUTO-PP generated.      Number of basis functions:   28 

 Polarized AO type:                A = (O Ot + (1-O)(1-Ot)) P12
 Orthogonalization method:         Symmetric (Loewdin)
 Localization functional:          L = sum[A,i] <i|n_A|i>^4 -> max

 Localization group 1:  17 orbitals, occupancy  2.000
 Iterative localization: IB/PM,    7 iter; Final gradient 0.40E-09

 Bond order analysis:       [THRPRINT= 0.020]

   CEN ATOM   CEN ATOM     WIBERG.BO      RENORM.BO
     1   C  -   2   O       0.983476       1.017791
     1   C  -   6   H       0.959475       0.979136
     1   C  -   7   H       0.953346       0.943485
     1   C  -   8   H       0.953346       0.943485

     2   O  -   1   C       0.983476       1.017791
     2   O  -   3   C       0.964710       0.990886
     2   O  -   7   H       0.030388       0.017958
     2   O  -   8   H       0.030388       0.017958
     2   O  -  10   H       0.027636       0.016297
     2   O  -   9   H       0.027636       0.016297

     3   C  -   4   C       1.026034       1.018914
     3   C  -   2   O       0.964710       0.990886
     3   C  -   9   H       0.942164       0.932195
     3   C  -  10   H       0.942164       0.932195

     4   C  -   3   C       1.026034       1.018914
     4   C  -   5   H       0.963493       0.989991
     4   C  -  12   H       0.960483       0.983380
     4   C  -  11   H       0.960483       0.983380

     5   H  -   4   C       0.963493       0.989991

     6   H  -   1   C       0.959475       0.979136

     7   H  -   1   C       0.953346       0.943485
     7   H  -   2   O       0.030388       0.017958

     8   H  -   1   C       0.953346       0.943485
     8   H  -   2   O       0.030388       0.017958

     9   H  -   3   C       0.942164       0.932195
     9   H  -   2   O       0.027636       0.016297

    10   H  -   3   C       0.942164       0.932195
    10   H  -   2   O       0.027636       0.016297

    11   H  -   4   C       0.960483       0.983380

    12   H  -   4   C       0.960483       0.983380


 Valency analysis:

   CEN ATOM   TOT.VALENCE
     1   C       3.867996
     2   O       2.095776
     3   C       3.896931
     4   C       3.936125
     5   H       0.982373
     6   H       0.978366
     7   H       0.988029
     8   H       0.988029
     9   H       0.989385
    10   H       0.989385
    11   H       0.980825
    12   H       0.980825

 Total charge composition:

   CEN ATOM         s          p       ELECTRONS ->P.CHARGE
     1   C       3.00908    3.16387      6.17295   -0.17295
     2   O       3.58729    4.80860      8.39589   -0.39589
     3   C       2.97645    3.04375      6.02020   -0.02020
     4   C       3.00982    3.38282      6.39264   -0.39264
     5   H       0.86723                 0.86723    0.13277
     6   H       0.85291                 0.85291    0.14709
     7   H       0.89059                 0.89059    0.10941
     8   H       0.89059                 0.89059    0.10941
     9   H       0.89697                 0.89697    0.10303
    10   H       0.89697                 0.89697    0.10303
    11   H       0.86152                 0.86152    0.13848
    12   H       0.86152                 0.86152    0.13848

 Total charge composition, AO contributions:

   CEN ATOM SHL      SPHERICAL COMPONENTS
     1   C  1s       1.99130
     1   C  2s       1.01778
     1   C  2p       1.18565    1.16371    0.81451

     2   O  1s       1.99694
     2   O  2s       1.59035
     2   O  2p       1.52603    1.91659    1.36598

     3   C  1s       1.99156
     3   C  2s       0.98489
     3   C  2p       0.86043    1.15609    1.02722

     4   C  1s       1.99050
     4   C  2s       1.01933
     4   C  2p       1.16221    1.17231    1.04830

     5   H  1s       0.86723

     6   H  1s       0.85291

     7   H  1s       0.89059

     8   H  1s       0.89059

     9   H  1s       0.89697

    10   H  1s       0.89697

    11   H  1s       0.86152

    12   H  1s       0.86152

 Summary of localized orbital composition:   [THRPRINT= 0.020]

   ORB  GRP  ORB.ENERGY      CENTERS/CHARGES
     1   1   -19.473369      O  2   2.000
     2   1   -10.487690      C  3   2.000
     3   1   -10.479462      C  1   2.000
     4   1   -10.422040      C  4   2.000
     5   1    -0.848733      O  2   1.251   C  1   0.740
     6   1    -0.840278      O  2   1.260   C  3   0.728
     7   1    -0.658493      C  3   1.007   C  4   0.986
     8   1    -0.634935      O  2   1.965   (other: 0.035)
     9   1    -0.589910      C  1   1.148   H  6   0.846
    10   1    -0.589880      C  1   1.126   H  7   0.873
    11   1    -0.589880      C  1   1.126   H  8   0.873
    12   1    -0.585586      C  3   1.115   H  9   0.876
    13   1    -0.585586      C  3   1.115   H 10   0.876
    14   1    -0.568670      C  4   1.125   H  5   0.861
    15   1    -0.562468      C  4   1.135   H 11   0.855
    16   1    -0.562468      C  4   1.135   H 12   0.855
    17   1    -0.384824      O  2   1.916   (other: 0.084)

 Localized orbitals saved to record      2100.2  (orbital set 2)


 **********************************************************************************************************************************
 DATASETS  * FILE   NREC   LENGTH (MB)   RECORD NAMES
              1      20       64.33       500      610      700      900      950      970     1000      129      960     1100   
                                          VAR    BASINP    GEOM    SYMINP    ZMAT    AOBASIS   BASIS     P2S    ABASIS      S 
                                         1400     1410     1200     1210     1080     1600     1650     1300     1700     1800   
                                           T        V       H0       H01     AOSYM     SMH    MOLCAS    ERIS     OPER     GRID   

              2       5        3.21       700     1000      520     1800     2100   
                                         GEOM     BASIS   MCVARS    GRID      RKS  

 PROGRAMS   *        TOTAL      IBBA        KS       INT
 CPU TIMES  *        19.49      0.02     17.71      1.61
 REAL TIME  *        20.46 SEC
 DISK USED  *       169.15 MB      
 **********************************************************************************************************************************
 Molecular orbitals read from record     2100.2  Type=RKS/LOCAL(IBO)  
 Occupation numbers read from record     2100.2  Type=RKS/LOCAL(IBO)  
 Orbital energies read from record       2100.2  Type=RKS/LOCAL(IBO)  
 Redundancy group numbers read from rec  2100.2  Type=RKS/LOCAL(IBO)  

 IBBA/SVP energy=      0.000000000000

        KS-SCF  
   -194.09239477
 **********************************************************************************************************************************
 Molpro calculation terminated
