
 Primary working directories    : /tmp/sb13343
 Secondary working directories  : /tmp/sb13343
 Wavefunction directory         : /panfs/panasas01/chem/sb13343/wfu/
 Main file repository           : /tmp/sb13343/

 SHA1      : b4a5b34a9e711420743f49e6833241d17c61fb3c
 NAME      : 2099.9.b4a5b34
 ARCHNAME  : linux/x86_64_openmp
 FC        : /cm/shared/languages/GCC-6.1/bin/gfortran
 BLASLIB   : -lblas
 id        : simonbennie

 Nodes     nprocs
 node32-034    1

 Using customized tuning parameters: mindgm=1; mindgv=20; mindgc=4; mindgr=1; noblas=0; minvec=7
 default implementation of scratch files=df  

 memory,500,m
 geomtyp=xyz
 nosym
 noorient
 geometry={
 C          0.00000        0.00000        0.00000
 O          0.00000        0.00000        1.40962
 C          1.30608        0.00000        1.95787
 C          1.19221        0.00000        3.47353
 H          2.18666        0.00000        3.93332
 H         -1.04410        0.00000       -0.32474
 H          0.50079       -0.89267       -0.41051
 H          0.50079        0.89267       -0.41051
 H          1.86435       -0.88728        1.61056
 H          1.86435        0.88728        1.61056
 H          0.64981       -0.88690        3.81673
 H          0.64981        0.88690        3.81673
 }
 basis={ default,sto-3g }
 {uks,MM06-HF,direct;wf,34,1,0}
 {ibba,bonds=1}

 Variables initialized (895), CPU time= 0.00 sec
 Commands  initialized (725), CPU time= 0.02 sec, 591 directives.
 Default parameters read. Elapsed time= 0.08 sec

 Checking input...
 Passed
1


                                         ***  PROGRAM SYSTEM MOLPRO  ***
                                       Copyright, TTI GmbH Stuttgart, 2015
                                    Version 2099.9 linked May 26 2017 16:03:21


 **********************************************************************************************************************************
 LABEL *                                                                                 
  64 bit serial version                                                                  DATE: 08-Jun-17          TIME: 09:57:35  
 **********************************************************************************************************************************

 SHA1:             b4a5b34a9e711420743f49e6833241d17c61fb3c
 **********************************************************************************************************************************
 SETTING GEOMTYP        =    XYZ

 Variable memory set to  500000000 words,  buffer space 

 ZSYMEL=NOSYM

 SETTING BASIS          =    STO-3G


 Recomputing integrals since basis changed


 Using spherical harmonics

 Library entry C      S STO-3G               selected for orbital group  1
 Library entry C      P STO-3G               selected for orbital group  1
 Library entry O      S STO-3G               selected for orbital group  2
 Library entry O      P STO-3G               selected for orbital group  2
 Library entry H      S STO-3G               selected for orbital group  4


 PROGRAM * SEWARD (Integral evaluation for generally contracted gaussian basis sets)     Author: Roland Lindh, 1990

 Geometry written to block  1 of record 700


 Point group  C1  



 ATOMIC COORDINATES

 NR  ATOM    CHARGE       X              Y              Z

   1  C       6.00    0.000000000    0.000000000    0.000000000
   2  O       8.00    0.000000000    0.000000000    2.663795740
   3  C       6.00    2.468133497    0.000000000    3.699838088
   4  C       6.00    2.252950383    0.000000000    6.564020385
   5  H       1.00    4.132188528    0.000000000    7.432897560
   6  H       1.00   -1.973063047    0.000000000   -0.613669662
   7  H       1.00    0.946355946   -1.686901820   -0.775751471
   8  H       1.00    0.946355946    1.686901820   -0.775751471
   9  H       1.00    3.523110900   -1.676716196    3.043517307
  10  H       1.00    3.523110900    1.676716196    3.043517307
  11  H       1.00    1.227962933   -1.675998100    7.212574391
  12  H       1.00    1.227962933    1.675998100    7.212574391

 Bond lengths in Bohr (Angstrom)

 1-2  2.663795740  1-6  2.066293358  1-7  2.083990804  1-8  2.083990804  2-3  2.676764223
     ( 1.409620000)     ( 1.093435356)     ( 1.102800441)     ( 1.102800441)     ( 1.416482626)

  3- 4  2.872254168   3- 9  2.086890388   3-10  2.086890388   4- 5  2.070382464   4-11  2.068862297
       ( 1.519931450)       ( 1.104334835)       ( 1.104334835)       ( 1.095599218)       ( 1.094794780)

  4-12  2.068862297
       ( 1.094794780)

 Bond angles

  1-2-3  112.77108340   2-1-6  107.27693969   2-1-7  111.85402987   2-1-8  111.85402987

  2- 3- 4  108.47458109   2- 3- 9  110.14508041   2- 3-10  110.14508041   3- 4- 5  110.51724552

  3- 4-11  110.47015208   3- 4-12  110.47015208   4- 3- 9  110.57823876   4- 3-10  110.57823876

  5- 4-11  108.55021133   5- 4-12  108.55021133   6- 1- 7  108.84842497   6- 1- 8  108.84842497

  7- 1- 8  108.08590744   9- 3-10  106.92203462  11- 4-12  108.21261054

 NUCLEAR CHARGE:                   34
 NUMBER OF PRIMITIVE AOS:          84
 NUMBER OF SYMMETRY AOS:           84
 NUMBER OF CONTRACTIONS:           28   (  28A   )
 NUMBER OF CORE ORBITALS:           4   (   4A   )
 NUMBER OF VALENCE ORBITALS:       24   (  24A   )


 NUCLEAR REPULSION ENERGY  133.31979421


 Eigenvalues of metric

         1 0.212E+00 0.234E+00 0.263E+00 0.352E+00 0.360E+00 0.368E+00 0.374E+00 0.394E+00


 Contracted 2-electron integrals neglected if value below      1.0D-11
 AO integral compression algorithm  1   Integral accuracy      1.0D-11

     0.786 MB (compressed) written to integral file ( 77.9%)


 NUMBER OF SORTED TWO-ELECTRON INTEGRALS:      82621.     BUFFER LENGTH:  32768
 NUMBER OF SEGMENTS:   1  SEGMENT LENGTH:      82621      RECORD LENGTH: 524288

 Memory used in sort:       0.64 MW

 SORT1 READ       95283. AND WROTE       67599. INTEGRALS IN      1 RECORDS. CPU TIME:     0.00 SEC, REAL TIME:     0.01 SEC
 SORT2 READ       67599. AND WROTE       82621. INTEGRALS IN      3 RECORDS. CPU TIME:     0.02 SEC, REAL TIME:     0.01 SEC

 FILE SIZES:   FILE 1:    31.0 MBYTE,  FILE 4:     4.2 MBYTE,   TOTAL:     35.2 MBYTE

 OPERATOR DM      FOR CENTER  0  COORDINATES:    0.000000    0.000000    0.000000


 **********************************************************************************************************************************
 DATASETS  * FILE   NREC   LENGTH (MB)   RECORD NAMES
              1      19       30.48       500      610      700      900      950      970     1000      129      960     1100   
                                          VAR    BASINP    GEOM    SYMINP    ZMAT    AOBASIS   BASIS     P2S    ABASIS      S 
                                         1400     1410     1200     1210     1080     1600     1650     1300     1700   
                                           T        V       H0       H01     AOSYM     SMH    MOLCAS    ERIS     OPER   

 PROGRAMS   *        TOTAL       INT
 CPU TIMES  *         0.44      0.30
 REAL TIME  *         0.78 SEC
 DISK USED  *        35.64 MB      
 **********************************************************************************************************************************

 Density functional group MM06-HF=M06HFX+M06HFC
 Functional: M06HFX(Automatically generated (new) M06HFX)                      Gradient terms: 2
 Functional: M06HFC(Automatically generated (new) M06HFC)                      Gradient terms: 2
 Use grid at  1800.2


 Exact exchange will be calculated, factor:  1.0000

 Functional: M06HFX                    Factor:  1.0000
 Functional: M06HFC                    Factor:  1.0000

 Generated new metagrid on record  1800.2 with target accuracy 1.0D-06 and 44796 points in CPU time    1.1
 Computed new grid on record 1800.1 in CPU time    1.2
   47968 words reserved for DFT integration

 PROGRAM * UKS-SCF (Unrestricted Kohn-Sham)     Authors: W. Meyer, H.-J. Werner, P.J. Knowles, 1993

 NUMBER OF ELECTRONS:      17+   17-    SPACE SYMMETRY=1    SPIN SYMMETRY: Singlet 
 CONVERGENCE THRESHOLDS:    1.00E-05 (Density)    1.00E-06 (Energy)
 MAX. NUMBER OF ITERATIONS:       60
 INTERPOLATION TYPE:            DIIS
 INTERPOLATION STEPS:              2 (START)      1 (STEP)
 LEVEL SHIFTS:                 -0.20 (ALPHA)  -0.20 (BETA) 



 Use fine grid record 1800.2 for energy threshold  1.0D-06
 Orbital guess generated from atomic densities. Full valence occupancy:   17

 Molecular orbital dump at record        2200.2

 Initial alpha occupation  17
 Initial beta  occupation  17

 ITERATION    DDIFF          GRAD             ENERGY        2-EL.EN.            DIPOLE MOMENTS         DIIS
    1      0.000D+00      0.000D+00      -191.81096688    408.429579    1.00446    0.00000   -0.57582    0
    2      0.332D-01      0.151D-01      -191.94054140    402.022917    0.46219    0.00000   -0.24419    1
    3      0.749D-02      0.296D-02      -191.94662686    400.821235    0.38177    0.00000   -0.19851    2
    4      0.293D-02      0.888D-03      -191.94733301    400.722730    0.37982    0.00000   -0.19683    3
    5      0.138D-02      0.295D-03      -191.94743131    400.727034    0.38448    0.00000   -0.19859    4
    6      0.464D-03      0.852D-04      -191.94744151    400.728147    0.38563    0.00000   -0.19868    5
    7      0.920D-04      0.167D-04      -191.94744189    400.727599    0.38571    0.00000   -0.19858    6
    8      0.154D-04      0.358D-05      -191.94744190    400.727656    0.38561    0.00000   -0.19854    6
    9      0.320D-05      0.775D-06      -191.94744190    400.727608    0.38559    0.00000   -0.19854    6
   10      0.920D-06      0.200D-06      -191.94744190    400.727602    0.38559    0.00000   -0.19854    5

 Final alpha occupancy:  17
 Final beta  occupancy:  17

 !UKS STATE 1.1 Energy               -191.947441900666
 Nuclear energy                       133.31979421
 One-electron energy                 -524.39666665
 Two-electron energy                  200.36380109
 Density functional                    -1.23437056     M06HFX= 0.00280860 M06HFC=-1.23717915
 Virial quotient                       -1.01637263
 !UKS STATE 1.1 Dipole moment           0.38558935     0.00000000    -0.19854294
 Dipole moment /Debye                   0.98000619     0.00000000    -0.50461276

 Orbital energies for positive spin:

         1.1          2.1          3.1          4.1          5.1          6.1          7.1          8.1          9.1         10.1
    -19.948468   -10.839313   -10.836513   -10.794909    -1.221093    -0.919153    -0.822142    -0.751583    -0.613046    -0.584298

        11.1         12.1         13.1         14.1         15.1         16.1         17.1         18.1         19.1
     -0.564884    -0.541790    -0.494731    -0.466639    -0.452265    -0.383864    -0.338733     0.460545     0.541463

 Orbital energies for negative spin:

         1.1          2.1          3.1          4.1          5.1          6.1          7.1          8.1          9.1         10.1
    -19.948468   -10.839313   -10.836513   -10.794909    -1.221093    -0.919153    -0.822142    -0.751583    -0.613046    -0.584298

        11.1         12.1         13.1         14.1         15.1         16.1         17.1         18.1         19.1
     -0.564884    -0.541790    -0.494731    -0.466639    -0.452265    -0.383864    -0.338733     0.460545     0.541463

 HOMO     17.1    -0.338733 =      -9.2174eV
 LUMO     18.1     0.460545 =      12.5321eV
 LUMO-HOMO         0.799278 =      21.7495eV

 EXPECTATION VALUE OF S**2:            -0.00000000

 Natural orbitals saved to record    2200.2 (Orbital set 3)

 Orbital spaces for UNO-CAS (Min. occupation: 0.020  Max. occupation: 1.980):

 Closed:       17
 Active:        0


 **********************************************************************************************************************************
 DATASETS  * FILE   NREC   LENGTH (MB)   RECORD NAMES
              1      20       31.92       500      610      700      900      950      970     1000      129      960     1100   
                                          VAR    BASINP    GEOM    SYMINP    ZMAT    AOBASIS   BASIS     P2S    ABASIS      S 
                                         1400     1410     1200     1210     1080     1600     1650     1300     1700     1800   
                                           T        V       H0       H01     AOSYM     SMH    MOLCAS    ERIS     OPER     GRID   

              2       5        2.98       700     1000      520     1800     2200   
                                         GEOM     BASIS   MCVARS    GRID      UKS  

 PROGRAMS   *        TOTAL       UKS       INT
 CPU TIMES  *         9.99      9.55      0.30
 REAL TIME  *        10.72 SEC
 DISK USED  *        35.64 MB      
 **********************************************************************************************************************************


 PROGRAM * Intrinsic Basis Bonding Analysis (IBBA)          Author: G. Knizia

 Molecular orbitals read from record     2200.2  Type=UKS/ALPHA (state 1.1)
 Fock matrix read from record            2200.2  Type=UKS/TOTAL (state 1.1)
 Orbital energies read from record       2200.2  Type=UKS/ALPHA (state 1.1)
 Density matrix read from record         2200.2  Type=UKS/CHARGE (state 1.1)

 Number of core orbitals:           4 (   4 )
 Number of closed-shell orbitals:  13 (  13 )

 Basis set MINAO-AUTO-PP generated.      Number of basis functions:   28 

 Polarized AO type:                A = (O Ot + (1-O)(1-Ot)) P12
 Orthogonalization method:         Symmetric (Loewdin)
 Localization functional:          L = sum[A,i] <i|n_A|i>^4 -> max

 Localization group 1:  17 orbitals, occupancy  2.000
 Iterative localization: IB/PM,    6 iter; Final gradient 0.66E-08

 Bond order analysis:       [THRPRINT= 0.020]

   CEN ATOM   CEN ATOM     WIBERG.BO      RENORM.BO
     1   C  -   2   O       1.007173       1.010267
     1   C  -   7   H       0.963882       0.965264
     1   C  -   8   H       0.963882       0.965264
     1   C  -   6   H       0.960384       0.980990

     2   O  -   1   C       1.007173       1.010267
     2   O  -   3   C       0.996224       0.996085

     3   C  -   4   C       1.009761       1.006117
     3   C  -   2   O       0.996224       0.996085
     3   C  -  10   H       0.955164       0.955708
     3   C  -   9   H       0.955164       0.955708

     4   C  -   3   C       1.009761       1.006117
     4   C  -   5   H       0.967198       0.992975
     4   C  -  11   H       0.964681       0.989566
     4   C  -  12   H       0.964681       0.989566

     5   H  -   4   C       0.967198       0.992975

     6   H  -   1   C       0.960384       0.980990

     7   H  -   1   C       0.963882       0.965264

     8   H  -   1   C       0.963882       0.965264

     9   H  -   3   C       0.955164       0.955708

    10   H  -   3   C       0.955164       0.955708

    11   H  -   4   C       0.964681       0.989566

    12   H  -   4   C       0.964681       0.989566


 Valency analysis:

   CEN ATOM   TOT.VALENCE
     1   C       3.912841
     2   O       2.100386
     3   C       3.936781
     4   C       3.927900
     5   H       0.983072
     6   H       0.981341
     7   H       0.987644
     8   H       0.987644
     9   H       0.988052
    10   H       0.988052
    11   H       0.982097
    12   H       0.982097

 Total charge composition:

   CEN ATOM         s          p       ELECTRONS ->P.CHARGE
     1   C       2.98406    3.26898      6.25304   -0.25304
     2   O       3.62809    4.58959      8.21769   -0.21769
     3   C       2.96541    3.16020      6.12561   -0.12561
     4   C       2.97066    3.40823      6.37889   -0.37889
     5   H       0.86989                 0.86989    0.13011
     6   H       0.86340                 0.86340    0.13660
     7   H       0.88884                 0.88884    0.11116
     8   H       0.88884                 0.88884    0.11116
     9   H       0.89069                 0.89069    0.10931
    10   H       0.89069                 0.89069    0.10931
    11   H       0.86620                 0.86620    0.13380
    12   H       0.86620                 0.86620    0.13380

 Total charge composition, AO contributions:

   CEN ATOM SHL      SPHERICAL COMPONENTS
     1   C  1s       1.99177
     1   C  2s       0.99229
     1   C  2p       1.18752    1.16929    0.91217

     2   O  1s       1.99712
     2   O  2s       1.63098
     2   O  2p       1.40324    1.94620    1.24015

     3   C  1s       1.99199
     3   C  2s       0.97343
     3   C  2p       0.94440    1.16807    1.04773

     4   C  1s       1.99105
     4   C  2s       0.97961
     4   C  2p       1.17444    1.18058    1.05321

     5   H  1s       0.86989

     6   H  1s       0.86340

     7   H  1s       0.88884

     8   H  1s       0.88884

     9   H  1s       0.89069

    10   H  1s       0.89069

    11   H  1s       0.86620

    12   H  1s       0.86620

 Summary of localized orbital composition:   [THRPRINT= 0.020]

   ORB  GRP  ORB.ENERGY      CENTERS/CHARGES
     1   1   -19.767806      O  2   2.000
     2   1   -10.730530      C  3   2.000
     3   1   -10.723963      C  1   2.000
     4   1   -10.676154      C  4   2.000
     5   1    -0.851232      O  2   1.141   C  1   0.850
     6   1    -0.842035      O  2   1.146   C  3   0.843
     7   1    -0.746728      O  2   1.980   (other: 0.020)
     8   1    -0.702554      C  3   1.010   C  4   0.979
     9   1    -0.651556      C  1   1.138   H  6   0.855
    10   1    -0.649978      C  1   1.121   H  8   0.877
    11   1    -0.649978      C  1   1.121   H  7   0.877
    12   1    -0.646155      C  3   1.118   H 10   0.876
    13   1    -0.646155      C  3   1.118   H  9   0.876
    14   1    -0.632612      C  4   1.127   H  5   0.864
    15   1    -0.627751      C  4   1.132   H 11   0.861
    16   1    -0.627751      C  4   1.132   H 12   0.861
    17   1    -0.400487      O  2   1.946   (other: 0.054)

 Localized orbitals saved to record      2200.2  (orbital set 4)


 **********************************************************************************************************************************
 DATASETS  * FILE   NREC   LENGTH (MB)   RECORD NAMES
              1      20       31.92       500      610      700      900      950      970     1000      129      960     1100   
                                          VAR    BASINP    GEOM    SYMINP    ZMAT    AOBASIS   BASIS     P2S    ABASIS      S 
                                         1400     1410     1200     1210     1080     1600     1650     1300     1700     1800   
                                           T        V       H0       H01     AOSYM     SMH    MOLCAS    ERIS     OPER     GRID   

              2       5        2.99       700     1000      520     1800     2200   
                                         GEOM     BASIS   MCVARS    GRID      UKS  

 PROGRAMS   *        TOTAL      IBBA       UKS       INT
 CPU TIMES  *        10.02      0.02      9.55      0.30
 REAL TIME  *        10.82 SEC
 DISK USED  *        35.64 MB      
 **********************************************************************************************************************************
 Molecular orbitals read from record     2200.2  Type=UKS/LOCAL(IBO)  
 Occupation numbers read from record     2200.2  Type=UKS/LOCAL(IBO)  
 Orbital energies read from record       2200.2  Type=UKS/LOCAL(IBO)  
 Redundancy group numbers read from rec  2200.2  Type=UKS/BETA (state 1.1)

 IBBA/STO-3G energy=      0.000000000000

        UKS-SCF 
   -191.94744190
 **********************************************************************************************************************************
 Molpro calculation terminated
