
 Primary working directories    : /tmp/sb13343
 Secondary working directories  : /tmp/sb13343
 Wavefunction directory         : /panfs/panasas01/chem/sb13343/wfu/
 Main file repository           : /tmp/sb13343/

 SHA1      : b4a5b34a9e711420743f49e6833241d17c61fb3c
 NAME      : 2099.9.b4a5b34
 ARCHNAME  : linux/x86_64_openmp
 FC        : /cm/shared/languages/GCC-6.1/bin/gfortran
 BLASLIB   : -lblas
 id        : simonbennie

 Nodes     nprocs
 node32-020    1

 Using customized tuning parameters: mindgm=1; mindgv=20; mindgc=4; mindgr=1; noblas=0; minvec=7
 default implementation of scratch files=df  

 memory,500,m
 geomtyp=xyz
 nosym
 noorient
 geometry={
 C          0.00000        0.00000        0.00000
 O          0.00000        0.00000        1.40962
 C          1.30608        0.00000        1.95787
 C          1.19221        0.00000        3.47353
 H          2.18666        0.00000        3.93332
 H         -1.04410        0.00000       -0.32474
 H          0.50079       -0.89267       -0.41051
 H          0.50079        0.89267       -0.41051
 H          1.86435       -0.88728        1.61056
 H          1.86435        0.88728        1.61056
 H          0.64981       -0.88690        3.81673
 H          0.64981        0.88690        3.81673
 }
 basis={ default,sto-3g }
 {ks,B-P,direct;wf,34,1,0}
 {ibba,bonds=1}

 Variables initialized (895), CPU time= 0.00 sec
 Commands  initialized (725), CPU time= 0.02 sec, 591 directives.
 Default parameters read. Elapsed time= 0.08 sec

 Checking input...
 Passed
1


                                         ***  PROGRAM SYSTEM MOLPRO  ***
                                       Copyright, TTI GmbH Stuttgart, 2015
                                    Version 2099.9 linked May 26 2017 16:03:21


 **********************************************************************************************************************************
 LABEL *                                                                                 
  64 bit serial version                                                                  DATE: 08-Jun-17          TIME: 09:51:11  
 **********************************************************************************************************************************

 SHA1:             b4a5b34a9e711420743f49e6833241d17c61fb3c
 **********************************************************************************************************************************
 SETTING GEOMTYP        =    XYZ

 Variable memory set to  500000000 words,  buffer space 

 ZSYMEL=NOSYM

 SETTING BASIS          =    STO-3G


 Recomputing integrals since basis changed


 Using spherical harmonics

 Library entry C      S STO-3G               selected for orbital group  1
 Library entry C      P STO-3G               selected for orbital group  1
 Library entry O      S STO-3G               selected for orbital group  2
 Library entry O      P STO-3G               selected for orbital group  2
 Library entry H      S STO-3G               selected for orbital group  4


 PROGRAM * SEWARD (Integral evaluation for generally contracted gaussian basis sets)     Author: Roland Lindh, 1990

 Geometry written to block  1 of record 700


 Point group  C1  



 ATOMIC COORDINATES

 NR  ATOM    CHARGE       X              Y              Z

   1  C       6.00    0.000000000    0.000000000    0.000000000
   2  O       8.00    0.000000000    0.000000000    2.663795740
   3  C       6.00    2.468133497    0.000000000    3.699838088
   4  C       6.00    2.252950383    0.000000000    6.564020385
   5  H       1.00    4.132188528    0.000000000    7.432897560
   6  H       1.00   -1.973063047    0.000000000   -0.613669662
   7  H       1.00    0.946355946   -1.686901820   -0.775751471
   8  H       1.00    0.946355946    1.686901820   -0.775751471
   9  H       1.00    3.523110900   -1.676716196    3.043517307
  10  H       1.00    3.523110900    1.676716196    3.043517307
  11  H       1.00    1.227962933   -1.675998100    7.212574391
  12  H       1.00    1.227962933    1.675998100    7.212574391

 Bond lengths in Bohr (Angstrom)

 1-2  2.663795740  1-6  2.066293358  1-7  2.083990804  1-8  2.083990804  2-3  2.676764223
     ( 1.409620000)     ( 1.093435356)     ( 1.102800441)     ( 1.102800441)     ( 1.416482626)

  3- 4  2.872254168   3- 9  2.086890388   3-10  2.086890388   4- 5  2.070382464   4-11  2.068862297
       ( 1.519931450)       ( 1.104334835)       ( 1.104334835)       ( 1.095599218)       ( 1.094794780)

  4-12  2.068862297
       ( 1.094794780)

 Bond angles

  1-2-3  112.77108340   2-1-6  107.27693969   2-1-7  111.85402987   2-1-8  111.85402987

  2- 3- 4  108.47458109   2- 3- 9  110.14508041   2- 3-10  110.14508041   3- 4- 5  110.51724552

  3- 4-11  110.47015208   3- 4-12  110.47015208   4- 3- 9  110.57823876   4- 3-10  110.57823876

  5- 4-11  108.55021133   5- 4-12  108.55021133   6- 1- 7  108.84842497   6- 1- 8  108.84842497

  7- 1- 8  108.08590744   9- 3-10  106.92203462  11- 4-12  108.21261054

 NUCLEAR CHARGE:                   34
 NUMBER OF PRIMITIVE AOS:          84
 NUMBER OF SYMMETRY AOS:           84
 NUMBER OF CONTRACTIONS:           28   (  28A   )
 NUMBER OF CORE ORBITALS:           4   (   4A   )
 NUMBER OF VALENCE ORBITALS:       24   (  24A   )


 NUCLEAR REPULSION ENERGY  133.31979421


 Eigenvalues of metric

         1 0.212E+00 0.234E+00 0.263E+00 0.352E+00 0.360E+00 0.368E+00 0.374E+00 0.394E+00


 Contracted 2-electron integrals neglected if value below      1.0D-11
 AO integral compression algorithm  1   Integral accuracy      1.0D-11

     0.786 MB (compressed) written to integral file ( 77.9%)


 NUMBER OF SORTED TWO-ELECTRON INTEGRALS:      82621.     BUFFER LENGTH:  32768
 NUMBER OF SEGMENTS:   1  SEGMENT LENGTH:      82621      RECORD LENGTH: 524288

 Memory used in sort:       0.64 MW

 SORT1 READ       95283. AND WROTE       67599. INTEGRALS IN      1 RECORDS. CPU TIME:     0.00 SEC, REAL TIME:     0.01 SEC
 SORT2 READ       67599. AND WROTE       82621. INTEGRALS IN      3 RECORDS. CPU TIME:     0.01 SEC, REAL TIME:     0.01 SEC

 FILE SIZES:   FILE 1:    31.0 MBYTE,  FILE 4:     4.2 MBYTE,   TOTAL:     35.2 MBYTE

 OPERATOR DM      FOR CENTER  0  COORDINATES:    0.000000    0.000000    0.000000


 **********************************************************************************************************************************
 DATASETS  * FILE   NREC   LENGTH (MB)   RECORD NAMES
              1      19       30.48       500      610      700      900      950      970     1000      129      960     1100   
                                          VAR    BASINP    GEOM    SYMINP    ZMAT    AOBASIS   BASIS     P2S    ABASIS      S 
                                         1400     1410     1200     1210     1080     1600     1650     1300     1700   
                                           T        V       H0       H01     AOSYM     SMH    MOLCAS    ERIS     OPER   

 PROGRAMS   *        TOTAL       INT
 CPU TIMES  *         0.47      0.32
 REAL TIME  *         0.80 SEC
 DISK USED  *        35.64 MB      
 **********************************************************************************************************************************

 Density functional group B-P=B88+P86
 Functional: B88(Automatically generated (new) B88)                            Gradient terms: 1
 Functional: P86(Automatically generated (new) P86)                            Gradient terms: 1
 Use grid at  1800.2

 Functional: B88                       Factor:  1.0000
 Functional: P86                       Factor:  1.0000

 Generated new metagrid on record  1800.2 with target accuracy 1.0D-06 and 44796 points in CPU time    1.2
 Computed new grid on record 1800.1 in CPU time    1.3
   26632 words reserved for DFT integration

 PROGRAM * RKS-SCF (Restricted closed shell Kohn-Sham)     Authors: W. Meyer, H.-J. Werner, P.J. Knowles, 1993

 NUMBER OF ELECTRONS:      17+   17-    SPACE SYMMETRY=1    SPIN SYMMETRY: Singlet 
 CONVERGENCE THRESHOLDS:    1.00E-05 (Density)    1.00E-06 (Energy)
 MAX. NUMBER OF ITERATIONS:       60
 INTERPOLATION TYPE:            DIIS
 INTERPOLATION STEPS:              2 (START)      1 (STEP)
 LEVEL SHIFTS:                  0.00 (CLOSED)  0.00 (OPEN) 



 Use fine grid record 1800.2 for energy threshold  1.0D-06
 Orbital guess generated from atomic densities. Full valence occupancy:   17

 Molecular orbital dump at record        2100.2

 Initial occupancy:  17

 ITERATION    DDIFF          GRAD             ENERGY        2-EL.EN.            DIPOLE MOMENTS         DIIS   ORB.
    1      0.000D+00      0.000D+00      -191.67978608    465.386319    0.99052   -0.00000   -0.60888    0    start
    2      0.000D+00      0.279D-01      -191.62713163    443.343431   -0.66031   -0.00000    0.70950    1    diag
    3      0.108D+00      0.323D-01      -191.88094278    454.137475    0.47078   -0.00000   -0.24742    2    diag
    4      0.597D-01      0.513D-02      -191.88642054    454.406402    0.32033   -0.00000   -0.14698    3    diag
    5      0.950D-02      0.116D-02      -191.88670718    454.367522    0.33662   -0.00000   -0.14719    4    diag
    6      0.177D-02      0.120D-03      -191.88671064    454.368227    0.33833   -0.00000   -0.15068    5    diag
    7      0.270D-03      0.403D-04      -191.88671103    454.369289    0.33966   -0.00000   -0.15110    6    diag
    8      0.699D-04      0.207D-05      -191.88671103    454.369560    0.33955   -0.00000   -0.15120    7    diag
    9      0.509D-05      0.617D-06      -191.88671103    454.369630    0.33956   -0.00000   -0.15120    0    orth

 Final occupancy:  17

 !RKS STATE 1.1 Energy               -191.886711032761
 Nuclear energy                       133.31979421
 One-electron energy                 -524.47697893
 Two-electron energy                  227.18481522
 Density functional                   -27.91434154     B88=-26.67318335 P86= -1.24115819
 Virial quotient                       -1.01640871
 !RKS STATE 1.1 Dipole moment           0.33956044    -0.00000000    -0.15119878
 Dipole moment /Debye                   0.86302002    -0.00000000    -0.38428380

 Orbital energies:

         1.1          2.1          3.1          4.1          5.1          6.1          7.1          8.1          9.1         10.1
    -18.525462    -9.777343    -9.770058    -9.731636    -0.884278    -0.652180    -0.569403    -0.505451    -0.385185    -0.384898

        11.1         12.1         13.1         14.1         15.1         16.1         17.1         18.1         19.1
     -0.355783    -0.335534    -0.302195    -0.276291    -0.274023    -0.156263    -0.077843     0.250455     0.342591

 HOMO     17.1    -0.077843 =      -2.1182eV
 LUMO     18.1     0.250455 =       6.8152eV
 LUMO-HOMO         0.328298 =       8.9335eV


 **********************************************************************************************************************************
 DATASETS  * FILE   NREC   LENGTH (MB)   RECORD NAMES
              1      20       31.92       500      610      700      900      950      970     1000      129      960     1100   
                                          VAR    BASINP    GEOM    SYMINP    ZMAT    AOBASIS   BASIS     P2S    ABASIS      S 
                                         1400     1410     1200     1210     1080     1600     1650     1300     1700     1800   
                                           T        V       H0       H01     AOSYM     SMH    MOLCAS    ERIS     OPER     GRID   

              2       5        2.96       700     1000      520     1800     2100   
                                         GEOM     BASIS   MCVARS    GRID      RKS  

 PROGRAMS   *        TOTAL        KS       INT
 CPU TIMES  *         3.90      3.43      0.32
 REAL TIME  *         4.33 SEC
 DISK USED  *        35.64 MB      
 **********************************************************************************************************************************


 PROGRAM * Intrinsic Basis Bonding Analysis (IBBA)          Author: G. Knizia

 Molecular orbitals read from record     2100.2  Type=RKS/CANONICAL (state 1.1)
 Fock matrix read from record            2100.2  Type=RKS/TOTAL (state 1.1)
 Orbital energies read from record       2100.2  Type=RKS/CANONICAL (state 1.1)
 Density matrix read from record         2100.2  Type=RKS/CHARGE (state 1.1)

 Number of core orbitals:           4 (   4 )
 Number of closed-shell orbitals:  13 (  13 )

 Basis set MINAO-AUTO-PP generated.      Number of basis functions:   28 

 Polarized AO type:                A = (O Ot + (1-O)(1-Ot)) P12
 Orthogonalization method:         Symmetric (Loewdin)
 Localization functional:          L = sum[A,i] <i|n_A|i>^4 -> max

 Localization group 1:  17 orbitals, occupancy  2.000
 Iterative localization: IB/PM,    7 iter; Final gradient 0.59E-09

 Bond order analysis:       [THRPRINT= 0.020]

   CEN ATOM   CEN ATOM     WIBERG.BO      RENORM.BO
     1   C  -   2   O       1.024297       1.020250
     1   C  -   6   H       0.954424       0.972612
     1   C  -   7   H       0.949169       0.939080
     1   C  -   8   H       0.949169       0.939080

     2   O  -   1   C       1.024297       1.020250
     2   O  -   3   C       1.006627       0.997908
     2   O  -   8   H       0.033619       0.020125
     2   O  -   7   H       0.033619       0.020125
     2   O  -  10   H       0.030922       0.018547
     2   O  -   9   H       0.030922       0.018547

     3   C  -   4   C       1.017491       1.008406
     3   C  -   2   O       1.006627       0.997908
     3   C  -   9   H       0.938592       0.928904
     3   C  -  10   H       0.938592       0.928904

     4   C  -   3   C       1.017491       1.008406
     4   C  -   5   H       0.962854       0.991249
     4   C  -  12   H       0.961333       0.986110
     4   C  -  11   H       0.961333       0.986110

     5   H  -   4   C       0.962854       0.991249

     6   H  -   1   C       0.954424       0.972612

     7   H  -   1   C       0.949169       0.939080
     7   H  -   2   O       0.033619       0.020125

     8   H  -   1   C       0.949169       0.939080
     8   H  -   2   O       0.033619       0.020125

     9   H  -   3   C       0.938592       0.928904
     9   H  -   2   O       0.030922       0.018547

    10   H  -   3   C       0.938592       0.928904
    10   H  -   2   O       0.030922       0.018547

    11   H  -   4   C       0.961333       0.986110

    12   H  -   4   C       0.961333       0.986110


 Valency analysis:

   CEN ATOM   TOT.VALENCE
     1   C       3.898484
     2   O       2.189986
     3   C       3.925550
     4   C       3.929752
     5   H       0.980630
     6   H       0.979962
     7   H       0.987112
     8   H       0.987112
     9   H       0.987540
    10   H       0.987540
    11   H       0.980321
    12   H       0.980321

 Total charge composition:

   CEN ATOM         s          p       ELECTRONS ->P.CHARGE
     1   C       3.01119    3.25786      6.26905   -0.26905
     2   O       3.65606    4.55123      8.20729   -0.20729
     3   C       2.98796    3.14484      6.13280   -0.13280
     4   C       2.99865    3.40381      6.40246   -0.40246
     5   H       0.86082                 0.86082    0.13918
     6   H       0.85844                 0.85844    0.14156
     7   H       0.88648                 0.88648    0.11352
     8   H       0.88648                 0.88648    0.11352
     9   H       0.88838                 0.88838    0.11162
    10   H       0.88838                 0.88838    0.11162
    11   H       0.85972                 0.85972    0.14028
    12   H       0.85972                 0.85972    0.14028

 Total charge composition, AO contributions:

   CEN ATOM SHL      SPHERICAL COMPONENTS
     1   C  1s       1.99261
     1   C  2s       1.01859
     1   C  2p       1.18965    1.18047    0.88774

     2   O  1s       1.99731
     2   O  2s       1.65874
     2   O  2p       1.39593    1.90151    1.25379

     3   C  1s       1.99282
     3   C  2s       0.99514
     3   C  2p       0.92555    1.17650    1.04279

     4   C  1s       1.99193
     4   C  2s       1.00671
     4   C  2p       1.17223    1.17815    1.05343

     5   H  1s       0.86082

     6   H  1s       0.85844

     7   H  1s       0.88648

     8   H  1s       0.88648

     9   H  1s       0.88838

    10   H  1s       0.88838

    11   H  1s       0.85972

    12   H  1s       0.85972

 Summary of localized orbital composition:   [THRPRINT= 0.020]

   ORB  GRP  ORB.ENERGY      CENTERS/CHARGES
     1   1   -18.370075      O  2   2.000
     2   1    -9.676234      C  3   2.000
     3   1    -9.665122      C  1   2.000
     4   1    -9.621123      C  4   2.000
     5   1    -0.603133      O  2   1.164   C  1   0.825
     6   1    -0.593244      O  2   1.167   C  3   0.819
     7   1    -0.488112      C  3   1.006   C  4   0.983
     8   1    -0.436276      C  1   1.143   H  6   0.849
     9   1    -0.432854      C  1   1.132   H  8   0.866
    10   1    -0.432854      C  1   1.132   H  7   0.866
    11   1    -0.429888      C  3   1.127   H  9   0.865
    12   1    -0.429888      C  3   1.127   H 10   0.865
    13   1    -0.428546      O  2   1.969   (other: 0.031)
    14   1    -0.419712      C  4   1.133   H  5   0.854
    15   1    -0.413388      C  4   1.137   H 11   0.854
    16   1    -0.413388      C  4   1.137   H 12   0.854
    17   1    -0.109990      O  2   1.901   (other: 0.099)

 Localized orbitals saved to record      2100.2  (orbital set 2)


 **********************************************************************************************************************************
 DATASETS  * FILE   NREC   LENGTH (MB)   RECORD NAMES
              1      20       31.92       500      610      700      900      950      970     1000      129      960     1100   
                                          VAR    BASINP    GEOM    SYMINP    ZMAT    AOBASIS   BASIS     P2S    ABASIS      S 
                                         1400     1410     1200     1210     1080     1600     1650     1300     1700     1800   
                                           T        V       H0       H01     AOSYM     SMH    MOLCAS    ERIS     OPER     GRID   

              2       5        2.97       700     1000      520     1800     2100   
                                         GEOM     BASIS   MCVARS    GRID      RKS  

 PROGRAMS   *        TOTAL      IBBA        KS       INT
 CPU TIMES  *         3.93      0.03      3.43      0.32
 REAL TIME  *         4.44 SEC
 DISK USED  *        35.64 MB      
 **********************************************************************************************************************************
 Molecular orbitals read from record     2100.2  Type=RKS/LOCAL(IBO)  
 Occupation numbers read from record     2100.2  Type=RKS/LOCAL(IBO)  
 Orbital energies read from record       2100.2  Type=RKS/LOCAL(IBO)  
 Redundancy group numbers read from rec  2100.2  Type=RKS/LOCAL(IBO)  

 IBBA/STO-3G energy=      0.000000000000

        KS-SCF  
   -191.88671103
 **********************************************************************************************************************************
 Molpro calculation terminated
