
 Primary working directories    : /tmp/sb13343
 Secondary working directories  : /tmp/sb13343
 Wavefunction directory         : /panfs/panasas01/chem/sb13343/wfu/
 Main file repository           : /tmp/sb13343/

 SHA1      : b4a5b34a9e711420743f49e6833241d17c61fb3c
 NAME      : 2099.9.b4a5b34
 ARCHNAME  : linux/x86_64_openmp
 FC        : /cm/shared/languages/GCC-6.1/bin/gfortran
 BLASLIB   : -lblas
 id        : simonbennie

 Nodes     nprocs
 node32-028    1

 Using customized tuning parameters: mindgm=1; mindgv=20; mindgc=4; mindgr=1; noblas=0; minvec=7
 default implementation of scratch files=df  

 memory,500,m
 geomtyp=xyz
 nosym
 noorient
 geometry={
 C          0.00000        0.00000        0.00000
 O          0.00000        0.00000        1.40962
 C          1.30608        0.00000        1.95787
 C          1.19221        0.00000        3.47353
 H          2.18666        0.00000        3.93332
 H         -1.04410        0.00000       -0.32474
 H          0.50079       -0.89267       -0.41051
 H          0.50079        0.89267       -0.41051
 H          1.86435       -0.88728        1.61056
 H          1.86435        0.88728        1.61056
 H          0.64981       -0.88690        3.81673
 H          0.64981        0.88690        3.81673
 }
 basis={ default,svp }
 {uks,PBE0,direct;wf,34,1,0}
 {ibba,bonds=1}

 Variables initialized (895), CPU time= 0.00 sec
 Commands  initialized (725), CPU time= 0.02 sec, 591 directives.
 Default parameters read. Elapsed time= 0.14 sec

 Checking input...
 Passed
1


                                         ***  PROGRAM SYSTEM MOLPRO  ***
                                       Copyright, TTI GmbH Stuttgart, 2015
                                    Version 2099.9 linked May 26 2017 16:03:21


 **********************************************************************************************************************************
 LABEL *                                                                                 
  64 bit serial version                                                                  DATE: 08-Jun-17          TIME: 10:16:15  
 **********************************************************************************************************************************

 SHA1:             b4a5b34a9e711420743f49e6833241d17c61fb3c
 **********************************************************************************************************************************
 SETTING GEOMTYP        =    XYZ

 Variable memory set to  500000000 words,  buffer space 

 ZSYMEL=NOSYM

 SETTING BASIS          =    SVP


 Recomputing integrals since basis changed


 Using spherical harmonics

 Library entry C      S def2-SVP             selected for orbital group  1
 Library entry C      P def2-SVP             selected for orbital group  1
 Library entry C      D def2-SVP             selected for orbital group  1
 Library entry O      S def2-SVP             selected for orbital group  2
 Library entry O      P def2-SVP             selected for orbital group  2
 Library entry O      D def2-SVP             selected for orbital group  2
 Library entry H      S def2-SVP             selected for orbital group  4
 Library entry H      P def2-SVP             selected for orbital group  4


 PROGRAM * SEWARD (Integral evaluation for generally contracted gaussian basis sets)     Author: Roland Lindh, 1990

 Geometry written to block  1 of record 700


 Point group  C1  



 ATOMIC COORDINATES

 NR  ATOM    CHARGE       X              Y              Z

   1  C       6.00    0.000000000    0.000000000    0.000000000
   2  O       8.00    0.000000000    0.000000000    2.663795740
   3  C       6.00    2.468133497    0.000000000    3.699838088
   4  C       6.00    2.252950383    0.000000000    6.564020385
   5  H       1.00    4.132188528    0.000000000    7.432897560
   6  H       1.00   -1.973063047    0.000000000   -0.613669662
   7  H       1.00    0.946355946   -1.686901820   -0.775751471
   8  H       1.00    0.946355946    1.686901820   -0.775751471
   9  H       1.00    3.523110900   -1.676716196    3.043517307
  10  H       1.00    3.523110900    1.676716196    3.043517307
  11  H       1.00    1.227962933   -1.675998100    7.212574391
  12  H       1.00    1.227962933    1.675998100    7.212574391

 Bond lengths in Bohr (Angstrom)

 1-2  2.663795740  1-6  2.066293358  1-7  2.083990804  1-8  2.083990804  2-3  2.676764223
     ( 1.409620000)     ( 1.093435356)     ( 1.102800441)     ( 1.102800441)     ( 1.416482626)

  3- 4  2.872254168   3- 9  2.086890388   3-10  2.086890388   4- 5  2.070382464   4-11  2.068862297
       ( 1.519931450)       ( 1.104334835)       ( 1.104334835)       ( 1.095599218)       ( 1.094794780)

  4-12  2.068862297
       ( 1.094794780)

 Bond angles

  1-2-3  112.77108340   2-1-6  107.27693969   2-1-7  111.85402987   2-1-8  111.85402987

  2- 3- 4  108.47458109   2- 3- 9  110.14508041   2- 3-10  110.14508041   3- 4- 5  110.51724552

  3- 4-11  110.47015208   3- 4-12  110.47015208   4- 3- 9  110.57823876   4- 3-10  110.57823876

  5- 4-11  108.55021133   5- 4-12  108.55021133   6- 1- 7  108.84842497   6- 1- 8  108.84842497

  7- 1- 8  108.08590744   9- 3-10  106.92203462  11- 4-12  108.21261054

 NUCLEAR CHARGE:                   34
 NUMBER OF PRIMITIVE AOS:         156
 NUMBER OF SYMMETRY AOS:          152
 NUMBER OF CONTRACTIONS:           96   (  96A   )
 NUMBER OF CORE ORBITALS:           4   (   4A   )
 NUMBER OF VALENCE ORBITALS:       24   (  24A   )


 NUCLEAR REPULSION ENERGY  133.31979421


 Eigenvalues of metric

         1 0.364E-02 0.952E-02 0.147E-01 0.282E-01 0.312E-01 0.319E-01 0.432E-01 0.449E-01


 Contracted 2-electron integrals neglected if value below      1.0D-11
 AO integral compression algorithm  1   Integral accuracy      1.0D-11

     37.487 MB (compressed) written to integral file ( 40.8%)


 NUMBER OF SORTED TWO-ELECTRON INTEGRALS:   10841496.     BUFFER LENGTH:  32768
 NUMBER OF SEGMENTS:   1  SEGMENT LENGTH:   10841496      RECORD LENGTH: 524288

 Memory used in sort:      11.40 MW

 SORT1 READ    11483613. AND WROTE     8333550. INTEGRALS IN     24 RECORDS. CPU TIME:     0.15 SEC, REAL TIME:     0.30 SEC
 SORT2 READ     8333550. AND WROTE    10841496. INTEGRALS IN    143 RECORDS. CPU TIME:     0.32 SEC, REAL TIME:     0.38 SEC

 FILE SIZES:   FILE 1:    68.0 MBYTE,  FILE 4:   100.7 MBYTE,   TOTAL:    168.7 MBYTE

 OPERATOR DM      FOR CENTER  0  COORDINATES:    0.000000    0.000000    0.000000


 **********************************************************************************************************************************
 DATASETS  * FILE   NREC   LENGTH (MB)   RECORD NAMES
              1      19       62.89       500      610      700      900      950      970     1000      129      960     1100   
                                          VAR    BASINP    GEOM    SYMINP    ZMAT    AOBASIS   BASIS     P2S    ABASIS      S 
                                         1400     1410     1200     1210     1080     1600     1650     1300     1700   
                                           T        V       H0       H01     AOSYM     SMH    MOLCAS    ERIS     OPER   

 PROGRAMS   *        TOTAL       INT
 CPU TIMES  *         2.01      1.86
 REAL TIME  *         2.79 SEC
 DISK USED  *       169.15 MB      
 **********************************************************************************************************************************

 Density functional group PBE0=PBEX+PBEC
 Functional: PBEX(Automatically generated (new) PBEX)                          Gradient terms: 1
 Functional: PBEC(Automatically generated (new) PBEC)                          Gradient terms: 1
 Use grid at  1800.2


 Exact exchange will be calculated, factor:  0.2500

 Functional: PBEX                      Factor:  0.7500
 Functional: PBEC                      Factor:  1.0000

 Generated new metagrid on record  1800.2 with target accuracy 1.0D-06 and 44796 points in CPU time    1.2
 Computed new grid on record 1800.1 in CPU time    1.3
   80368 words reserved for DFT integration

 PROGRAM * UKS-SCF (Unrestricted Kohn-Sham)     Authors: W. Meyer, H.-J. Werner, P.J. Knowles, 1993

 NUMBER OF ELECTRONS:      17+   17-    SPACE SYMMETRY=1    SPIN SYMMETRY: Singlet 
 CONVERGENCE THRESHOLDS:    1.00E-05 (Density)    1.00E-06 (Energy)
 MAX. NUMBER OF ITERATIONS:       60
 INTERPOLATION TYPE:            DIIS
 INTERPOLATION STEPS:              2 (START)      1 (STEP)
 LEVEL SHIFTS:                 -0.20 (ALPHA)  -0.20 (BETA) 



 Use fine grid record 1800.2 for energy threshold  1.0D-06
 Orbital guess generated from atomic densities. Full valence occupancy:   17

 Molecular orbital dump at record        2200.2

 Initial alpha occupation  17
 Initial beta  occupation  17

 ITERATION    DDIFF          GRAD             ENERGY        2-EL.EN.            DIPOLE MOMENTS         DIIS
    1      0.000D+00      0.000D+00      -193.87409899    448.295746    0.77034   -0.00000   -0.48401    0
    2      0.873D-02      0.430D-02      -193.95636635    437.660855    0.36604   -0.00000   -0.22018    1
    3      0.259D-02      0.174D-02      -193.96707856    440.100603    0.45304   -0.00000   -0.28136    2
    4      0.821D-03      0.341D-03      -193.96772625    439.874412    0.42020   -0.00000   -0.26373    3
    5      0.694D-03      0.155D-03      -193.96797414    439.813618    0.41180   -0.00000   -0.25989    4
    6      0.379D-03      0.487D-04      -193.96801033    439.782457    0.40466   -0.00000   -0.25740    5
    7      0.681D-04      0.108D-04      -193.96801176    439.780663    0.40428   -0.00000   -0.25671    6
    8      0.174D-04      0.448D-05      -193.96801192    439.778810    0.40388   -0.00000   -0.25678    7
    9      0.673D-05      0.116D-05      -193.96801194    439.779115    0.40381   -0.00000   -0.25669    7
   10      0.152D-05      0.310D-06      -193.96801194    439.779393    0.40380   -0.00000   -0.25668    7

 Final alpha occupancy:  17
 Final beta  occupancy:  17

 !UKS STATE 1.1 Energy               -193.968011941285
 Nuclear energy                       133.31979421
 One-electron energy                 -526.22703389
 Two-electron energy                  219.88969637
 Density functional                   -20.95046863     PBEX=-26.45475344 PBEC= -1.10940355
 Virial quotient                       -1.01007309
 !UKS STATE 1.1 Dipole moment           0.40379826    -0.00000000    -0.25668402
 Dipole moment /Debye                   1.02628559    -0.00000000    -0.65238298

 Orbital energies for positive spin:

         1.1          2.1          3.1          4.1          5.1          6.1          7.1          8.1          9.1         10.1
    -19.205064   -10.274473   -10.270941   -10.221854    -1.045088    -0.774528    -0.683878    -0.614614    -0.500983    -0.492490

        11.1         12.1         13.1         14.1         15.1         16.1         17.1         18.1         19.1
     -0.463659    -0.429805    -0.393066    -0.373852    -0.362179    -0.326173    -0.264734     0.072146     0.095730

 Orbital energies for negative spin:

         1.1          2.1          3.1          4.1          5.1          6.1          7.1          8.1          9.1         10.1
    -19.205063   -10.274472   -10.270940   -10.221853    -1.045086    -0.774527    -0.683877    -0.614613    -0.500982    -0.492490

        11.1         12.1         13.1         14.1         15.1         16.1         17.1         18.1         19.1
     -0.463659    -0.429804    -0.393066    -0.373852    -0.362178    -0.326172    -0.264733     0.072145     0.095729

 HOMO    -17.1    -0.264733 =      -7.2038eV
 LUMO    -18.1     0.072145 =       1.9632eV
 LUMO-HOMO         0.336878 =       9.1669eV

 EXPECTATION VALUE OF S**2:             0.00000000

 Occupation number threshold for canonical orbitals:  1.999000 (occupied),  0.001000 (virtual)

 Number of pseudo-canonical orbitals per symmetry:   17
 Number of active natural orbitals per symmetry:      0

 Natural orbitals saved to record    2200.2 (Orbital set 3)

 Orbital spaces for UNO-CAS (Min. occupation: 0.020  Max. occupation: 1.980):

 Closed:       17
 Active:        0


 **********************************************************************************************************************************
 DATASETS  * FILE   NREC   LENGTH (MB)   RECORD NAMES
              1      20       64.33       500      610      700      900      950      970     1000      129      960     1100   
                                          VAR    BASINP    GEOM    SYMINP    ZMAT    AOBASIS   BASIS     P2S    ABASIS      S 
                                         1400     1410     1200     1210     1080     1600     1650     1300     1700     1800   
                                           T        V       H0       H01     AOSYM     SMH    MOLCAS    ERIS     OPER     GRID   

              2       5        3.33       700     1000      520     1800     2200   
                                         GEOM     BASIS   MCVARS    GRID      UKS  

 PROGRAMS   *        TOTAL       UKS       INT
 CPU TIMES  *        15.60     13.60      1.86
 REAL TIME  *        16.58 SEC
 DISK USED  *       169.15 MB      
 **********************************************************************************************************************************


 PROGRAM * Intrinsic Basis Bonding Analysis (IBBA)          Author: G. Knizia

 Molecular orbitals read from record     2200.2  Type=UKS/ALPHA (state 1.1)
 Fock matrix read from record            2200.2  Type=UKS/TOTAL (state 1.1)
 Orbital energies read from record       2200.2  Type=UKS/ALPHA (state 1.1)
 Density matrix read from record         2200.2  Type=UKS/CHARGE (state 1.1)

 Number of core orbitals:           4 (   4 )
 Number of closed-shell orbitals:  13 (  13 )

 Basis set MINAO-AUTO-PP generated.      Number of basis functions:   28 

 Polarized AO type:                A = (O Ot + (1-O)(1-Ot)) P12
 Orthogonalization method:         Symmetric (Loewdin)
 Localization functional:          L = sum[A,i] <i|n_A|i>^4 -> max

 Localization group 1:  17 orbitals, occupancy  2.000
 Iterative localization: IB/PM,    7 iter; Final gradient 0.21E-09

 Bond order analysis:       [THRPRINT= 0.020]

   CEN ATOM   CEN ATOM     WIBERG.BO      RENORM.BO
     1   C  -   2   O       0.987908       1.018971
     1   C  -   6   H       0.957959       0.978059
     1   C  -   7   H       0.949909       0.938960
     1   C  -   8   H       0.949909       0.938960

     2   O  -   1   C       0.987908       1.018971
     2   O  -   3   C       0.967538       0.989904
     2   O  -   8   H       0.032728       0.019480
     2   O  -   7   H       0.032728       0.019480
     2   O  -  10   H       0.029544       0.017555
     2   O  -   9   H       0.029544       0.017555

     3   C  -   4   C       1.028923       1.020584
     3   C  -   2   O       0.967538       0.989904
     3   C  -   9   H       0.938090       0.927378
     3   C  -  10   H       0.938090       0.927378

     4   C  -   3   C       1.028923       1.020584
     4   C  -   5   H       0.961383       0.989286
     4   C  -  12   H       0.958372       0.981871
     4   C  -  11   H       0.958372       0.981871

     5   H  -   4   C       0.961383       0.989286

     6   H  -   1   C       0.957959       0.978059

     7   H  -   1   C       0.949909       0.938960
     7   H  -   2   O       0.032728       0.019480

     8   H  -   1   C       0.949909       0.938960
     8   H  -   2   O       0.032728       0.019480

     9   H  -   3   C       0.938090       0.927378
     9   H  -   2   O       0.029544       0.017555

    10   H  -   3   C       0.938090       0.927378
    10   H  -   2   O       0.029544       0.017555

    11   H  -   4   C       0.958372       0.981871

    12   H  -   4   C       0.958372       0.981871


 Valency analysis:

   CEN ATOM   TOT.VALENCE
     1   C       3.865202
     2   O       2.113945
     3   C       3.895467
     4   C       3.934259
     5   H       0.981076
     6   H       0.977505
     7   H       0.987150
     8   H       0.987150
     9   H       0.988529
    10   H       0.988529
    11   H       0.979592
    12   H       0.979592

 Total charge composition:

   CEN ATOM         s          p       ELECTRONS ->P.CHARGE
     1   C       3.01909    3.17116      6.19025   -0.19025
     2   O       3.59343    4.79055      8.38398   -0.38398
     3   C       2.98497    3.04726      6.03223   -0.03223
     4   C       3.02094    3.38678      6.40772   -0.40772
     5   H       0.86244                 0.86244    0.13756
     6   H       0.85002                 0.85002    0.14998
     7   H       0.88664                 0.88664    0.11336
     8   H       0.88664                 0.88664    0.11336
     9   H       0.89290                 0.89290    0.10710
    10   H       0.89290                 0.89290    0.10710
    11   H       0.85714                 0.85714    0.14286
    12   H       0.85714                 0.85714    0.14286

 Total charge composition, AO contributions:

   CEN ATOM SHL      SPHERICAL COMPONENTS
     1   C  1s       1.99163
     1   C  2s       1.02746
     1   C  2p       1.18747    1.16820    0.81549

     2   O  1s       1.99708
     2   O  2s       1.59635
     2   O  2p       1.51930    1.90991    1.36133

     3   C  1s       1.99190
     3   C  2s       0.99307
     3   C  2p       0.86168    1.15988    1.02570

     4   C  1s       1.99085
     4   C  2s       1.03009
     4   C  2p       1.16368    1.17428    1.04882

     5   H  1s       0.86244

     6   H  1s       0.85002

     7   H  1s       0.88664

     8   H  1s       0.88664

     9   H  1s       0.89290

    10   H  1s       0.89290

    11   H  1s       0.85714

    12   H  1s       0.85714

 Summary of localized orbital composition:   [THRPRINT= 0.020]

   ORB  GRP  ORB.ENERGY      CENTERS/CHARGES
     1   1   -19.059917      O  2   2.000
     2   1   -10.169885      C  3   2.000
     3   1   -10.160957      C  1   2.000
     4   1   -10.105611      C  4   2.000
     5   1    -0.778189      O  2   1.249   C  1   0.742
     6   1    -0.769657      O  2   1.259   C  3   0.729
     7   1    -0.600330      C  3   1.005   C  4   0.988
     8   1    -0.562215      O  2   1.962   (other: 0.038)
     9   1    -0.531703      C  1   1.131   H  8   0.867
    10   1    -0.531703      C  1   1.131   H  7   0.867
    11   1    -0.531508      C  1   1.151   H  6   0.843
    12   1    -0.527472      C  3   1.120   H 10   0.870
    13   1    -0.527472      C  3   1.120   H  9   0.870
    14   1    -0.511975      C  4   1.129   H  5   0.856
    15   1    -0.505820      C  4   1.139   H 11   0.850
    16   1    -0.505820      C  4   1.139   H 12   0.850
    17   1    -0.317034      O  2   1.910   (other: 0.090)

 Localized orbitals saved to record      2200.2  (orbital set 4)


 **********************************************************************************************************************************
 DATASETS  * FILE   NREC   LENGTH (MB)   RECORD NAMES
              1      20       64.33       500      610      700      900      950      970     1000      129      960     1100   
                                          VAR    BASINP    GEOM    SYMINP    ZMAT    AOBASIS   BASIS     P2S    ABASIS      S 
                                         1400     1410     1200     1210     1080     1600     1650     1300     1700     1800   
                                           T        V       H0       H01     AOSYM     SMH    MOLCAS    ERIS     OPER     GRID   

              2       5        3.40       700     1000      520     1800     2200   
                                         GEOM     BASIS   MCVARS    GRID      UKS  

 PROGRAMS   *        TOTAL      IBBA       UKS       INT
 CPU TIMES  *        15.63      0.03     13.60      1.86
 REAL TIME  *        16.69 SEC
 DISK USED  *       169.15 MB      
 **********************************************************************************************************************************
 Molecular orbitals read from record     2200.2  Type=UKS/LOCAL(IBO)  
 Occupation numbers read from record     2200.2  Type=UKS/LOCAL(IBO)  
 Orbital energies read from record       2200.2  Type=UKS/LOCAL(IBO)  
 Redundancy group numbers read from rec  2200.2  Type=UKS/BETA (state 1.1)

 IBBA/SVP energy=      0.000000000000

        UKS-SCF 
   -193.96801194
 **********************************************************************************************************************************
 Molpro calculation terminated
