
 Primary working directories    : /tmp/sb13343
 Secondary working directories  : /tmp/sb13343
 Wavefunction directory         : /panfs/panasas01/chem/sb13343/wfu/
 Main file repository           : /tmp/sb13343/

 SHA1      : b4a5b34a9e711420743f49e6833241d17c61fb3c
 NAME      : 2099.9.b4a5b34
 ARCHNAME  : linux/x86_64_openmp
 FC        : /cm/shared/languages/GCC-6.1/bin/gfortran
 BLASLIB   : -lblas
 id        : simonbennie

 Nodes     nprocs
 node32-029    1

 Using customized tuning parameters: mindgm=1; mindgv=20; mindgc=4; mindgr=1; noblas=0; minvec=7
 default implementation of scratch files=df  

 memory,500,m
 geomtyp=xyz
 nosym
 noorient
 geometry={
 C          0.00000        0.00000        0.00000
 O          0.00000        0.00000        1.40962
 C          1.30608        0.00000        1.95787
 C          1.19221        0.00000        3.47353
 H          2.18666        0.00000        3.93332
 H         -1.04410        0.00000       -0.32474
 H          0.50079       -0.89267       -0.41051
 H          0.50079        0.89267       -0.41051
 H          1.86435       -0.88728        1.61056
 H          1.86435        0.88728        1.61056
 H          0.64981       -0.88690        3.81673
 H          0.64981        0.88690        3.81673
 }
 basis={ default,svp }
 {ks,SOGGA,direct;wf,34,1,0}
 {ibba,bonds=1}

 Variables initialized (895), CPU time= 0.01 sec
 Commands  initialized (725), CPU time= 0.01 sec, 591 directives.
 Default parameters read. Elapsed time= 4.99 sec

 Checking input...
 Passed
1


                                         ***  PROGRAM SYSTEM MOLPRO  ***
                                       Copyright, TTI GmbH Stuttgart, 2015
                                    Version 2099.9 linked May 26 2017 16:03:21


 **********************************************************************************************************************************
 LABEL *                                                                                 
  64 bit serial version                                                                  DATE: 08-Jun-17          TIME: 09:48:39  
 **********************************************************************************************************************************

 SHA1:             b4a5b34a9e711420743f49e6833241d17c61fb3c
 **********************************************************************************************************************************
 SETTING GEOMTYP        =    XYZ

 Variable memory set to  500000000 words,  buffer space 

 ZSYMEL=NOSYM

 SETTING BASIS          =    SVP


 Recomputing integrals since basis changed


 Using spherical harmonics

 Library entry C      S def2-SVP             selected for orbital group  1
 Library entry C      P def2-SVP             selected for orbital group  1
 Library entry C      D def2-SVP             selected for orbital group  1
 Library entry O      S def2-SVP             selected for orbital group  2
 Library entry O      P def2-SVP             selected for orbital group  2
 Library entry O      D def2-SVP             selected for orbital group  2
 Library entry H      S def2-SVP             selected for orbital group  4
 Library entry H      P def2-SVP             selected for orbital group  4


 PROGRAM * SEWARD (Integral evaluation for generally contracted gaussian basis sets)     Author: Roland Lindh, 1990

 Geometry written to block  1 of record 700


 Point group  C1  



 ATOMIC COORDINATES

 NR  ATOM    CHARGE       X              Y              Z

   1  C       6.00    0.000000000    0.000000000    0.000000000
   2  O       8.00    0.000000000    0.000000000    2.663795740
   3  C       6.00    2.468133497    0.000000000    3.699838088
   4  C       6.00    2.252950383    0.000000000    6.564020385
   5  H       1.00    4.132188528    0.000000000    7.432897560
   6  H       1.00   -1.973063047    0.000000000   -0.613669662
   7  H       1.00    0.946355946   -1.686901820   -0.775751471
   8  H       1.00    0.946355946    1.686901820   -0.775751471
   9  H       1.00    3.523110900   -1.676716196    3.043517307
  10  H       1.00    3.523110900    1.676716196    3.043517307
  11  H       1.00    1.227962933   -1.675998100    7.212574391
  12  H       1.00    1.227962933    1.675998100    7.212574391

 Bond lengths in Bohr (Angstrom)

 1-2  2.663795740  1-6  2.066293358  1-7  2.083990804  1-8  2.083990804  2-3  2.676764223
     ( 1.409620000)     ( 1.093435356)     ( 1.102800441)     ( 1.102800441)     ( 1.416482626)

  3- 4  2.872254168   3- 9  2.086890388   3-10  2.086890388   4- 5  2.070382464   4-11  2.068862297
       ( 1.519931450)       ( 1.104334835)       ( 1.104334835)       ( 1.095599218)       ( 1.094794780)

  4-12  2.068862297
       ( 1.094794780)

 Bond angles

  1-2-3  112.77108340   2-1-6  107.27693969   2-1-7  111.85402987   2-1-8  111.85402987

  2- 3- 4  108.47458109   2- 3- 9  110.14508041   2- 3-10  110.14508041   3- 4- 5  110.51724552

  3- 4-11  110.47015208   3- 4-12  110.47015208   4- 3- 9  110.57823876   4- 3-10  110.57823876

  5- 4-11  108.55021133   5- 4-12  108.55021133   6- 1- 7  108.84842497   6- 1- 8  108.84842497

  7- 1- 8  108.08590744   9- 3-10  106.92203462  11- 4-12  108.21261054

 NUCLEAR CHARGE:                   34
 NUMBER OF PRIMITIVE AOS:         156
 NUMBER OF SYMMETRY AOS:          152
 NUMBER OF CONTRACTIONS:           96   (  96A   )
 NUMBER OF CORE ORBITALS:           4   (   4A   )
 NUMBER OF VALENCE ORBITALS:       24   (  24A   )


 NUCLEAR REPULSION ENERGY  133.31979421


 Eigenvalues of metric

         1 0.364E-02 0.952E-02 0.147E-01 0.282E-01 0.312E-01 0.319E-01 0.432E-01 0.449E-01


 Contracted 2-electron integrals neglected if value below      1.0D-11
 AO integral compression algorithm  1   Integral accuracy      1.0D-11

     37.487 MB (compressed) written to integral file ( 40.8%)


 NUMBER OF SORTED TWO-ELECTRON INTEGRALS:   10841496.     BUFFER LENGTH:  32768
 NUMBER OF SEGMENTS:   1  SEGMENT LENGTH:   10841496      RECORD LENGTH: 524288

 Memory used in sort:      11.40 MW

 SORT1 READ    11483613. AND WROTE     8333550. INTEGRALS IN     24 RECORDS. CPU TIME:     0.15 SEC, REAL TIME:     0.30 SEC
 SORT2 READ     8333550. AND WROTE    10841496. INTEGRALS IN    143 RECORDS. CPU TIME:     0.31 SEC, REAL TIME:     0.39 SEC

 FILE SIZES:   FILE 1:    68.0 MBYTE,  FILE 4:   100.7 MBYTE,   TOTAL:    168.7 MBYTE

 OPERATOR DM      FOR CENTER  0  COORDINATES:    0.000000    0.000000    0.000000


 **********************************************************************************************************************************
 DATASETS  * FILE   NREC   LENGTH (MB)   RECORD NAMES
              1      19       62.89       500      610      700      900      950      970     1000      129      960     1100   
                                          VAR    BASINP    GEOM    SYMINP    ZMAT    AOBASIS   BASIS     P2S    ABASIS      S 
                                         1400     1410     1200     1210     1080     1600     1650     1300     1700   
                                           T        V       H0       H01     AOSYM     SMH    MOLCAS    ERIS     OPER   

 PROGRAMS   *        TOTAL       INT
 CPU TIMES  *         2.05      1.88
 REAL TIME  *         7.86 SEC
 DISK USED  *       169.15 MB      
 **********************************************************************************************************************************

 Density functional group SOGGA=XC-SOGGA
 Functional: XC-SOGGA(via MFM 1.6)                                             Gradient terms: 1
 Use grid at  1800.2

 Functional: XC-SOGGA                  Factor:  1.0000

 Generated new metagrid on record  1800.2 with target accuracy 1.0D-06 and 44796 points in CPU time    1.2
 Computed new grid on record 1800.1 in CPU time    1.3
   80368 words reserved for DFT integration

 PROGRAM * RKS-SCF (Restricted closed shell Kohn-Sham)     Authors: W. Meyer, H.-J. Werner, P.J. Knowles, 1993

 NUMBER OF ELECTRONS:      17+   17-    SPACE SYMMETRY=1    SPIN SYMMETRY: Singlet 
 CONVERGENCE THRESHOLDS:    1.00E-05 (Density)    1.00E-06 (Energy)
 MAX. NUMBER OF ITERATIONS:       60
 INTERPOLATION TYPE:            DIIS
 INTERPOLATION STEPS:              2 (START)      1 (STEP)
 LEVEL SHIFTS:                  0.00 (CLOSED)  0.00 (OPEN) 



 Use fine grid record 1800.2 for energy threshold  1.0D-06
 Orbital guess generated from atomic densities. Full valence occupancy:   17

 Molecular orbital dump at record        2100.2

 Initial occupancy:  17

 ITERATION    DDIFF          GRAD             ENERGY        2-EL.EN.            DIPOLE MOMENTS         DIIS   ORB.
    1      0.000D+00      0.000D+00      -192.80468819    464.728127    0.75212   -0.00000   -0.49176    0    start
    2      0.000D+00      0.106D-01      -192.59800809    434.501803   -0.51645    0.00000    0.29702    1    diag
    3      0.289D-01      0.160D-01      -192.97138397    453.676569    0.51539   -0.00000   -0.31249    2    diag
    4      0.200D-01      0.218D-02      -192.97580536    452.709788    0.33078   -0.00000   -0.21460    3    diag
    5      0.214D-02      0.855D-03      -192.97653900    452.703898    0.35989   -0.00000   -0.22381    4    diag
    6      0.616D-03      0.130D-03      -192.97655398    452.727770    0.35934   -0.00000   -0.22652    5    diag
    7      0.138D-03      0.688D-04      -192.97655992    452.729534    0.36205   -0.00000   -0.22657    6    diag
    8      0.565D-04      0.825D-05      -192.97656002    452.732712    0.36137   -0.00000   -0.22688    7    diag
    9      0.815D-05      0.179D-05      -192.97656002    452.733881    0.36181   -0.00000   -0.22676    0    orth

 Final occupancy:  17

 !RKS STATE 1.1 Energy               -192.976560016771
 Nuclear energy                       133.31979421
 One-electron energy                 -526.11221231
 Two-electron energy                  226.36694032
 Density functional                   -26.55108224     XC-SOGGA=-26.55108224
 Virial quotient                       -1.00686984
 !RKS STATE 1.1 Dipole moment           0.36181173    -0.00000000    -0.22675757
 Dipole moment /Debye                   0.91957347    -0.00000000    -0.57632250

 Orbital energies:

         1.1          2.1          3.1          4.1          5.1          6.1          7.1          8.1          9.1         10.1
    -18.674058    -9.868934    -9.864298    -9.818620    -0.925465    -0.677483    -0.592869    -0.528083    -0.434725    -0.419749

        11.1         12.1         13.1         14.1         15.1         16.1         17.1         18.1         19.1
     -0.394993    -0.362940    -0.329541    -0.313480    -0.298703    -0.260901    -0.197699     0.045123     0.070090

 HOMO     17.1    -0.197699 =      -5.3797eV
 LUMO     18.1     0.045123 =       1.2279eV
 LUMO-HOMO         0.242822 =       6.6075eV


 **********************************************************************************************************************************
 DATASETS  * FILE   NREC   LENGTH (MB)   RECORD NAMES
              1      20       64.33       500      610      700      900      950      970     1000      129      960     1100   
                                          VAR    BASINP    GEOM    SYMINP    ZMAT    AOBASIS   BASIS     P2S    ABASIS      S 
                                         1400     1410     1200     1210     1080     1600     1650     1300     1700     1800   
                                           T        V       H0       H01     AOSYM     SMH    MOLCAS    ERIS     OPER     GRID   

              2       5        3.14       700     1000      520     1800     2100   
                                         GEOM     BASIS   MCVARS    GRID      RKS  

 PROGRAMS   *        TOTAL        KS       INT
 CPU TIMES  *        10.56      8.51      1.88
 REAL TIME  *        17.15 SEC
 DISK USED  *       169.15 MB      
 **********************************************************************************************************************************


 PROGRAM * Intrinsic Basis Bonding Analysis (IBBA)          Author: G. Knizia

 Molecular orbitals read from record     2100.2  Type=RKS/CANONICAL (state 1.1)
 Fock matrix read from record            2100.2  Type=RKS/TOTAL (state 1.1)
 Orbital energies read from record       2100.2  Type=RKS/CANONICAL (state 1.1)
 Density matrix read from record         2100.2  Type=RKS/CHARGE (state 1.1)

 Number of core orbitals:           4 (   4 )
 Number of closed-shell orbitals:  13 (  13 )

 Basis set MINAO-AUTO-PP generated.      Number of basis functions:   28 

 Polarized AO type:                A = (O Ot + (1-O)(1-Ot)) P12
 Orthogonalization method:         Symmetric (Loewdin)
 Localization functional:          L = sum[A,i] <i|n_A|i>^4 -> max

 Localization group 1:  17 orbitals, occupancy  2.000
 Iterative localization: IB/PM,    7 iter; Final gradient 0.25E-09

 Bond order analysis:       [THRPRINT= 0.020]

   CEN ATOM   CEN ATOM     WIBERG.BO      RENORM.BO
     1   C  -   2   O       0.998013       1.020554
     1   C  -   6   H       0.953377       0.975829
     1   C  -   7   H       0.943034       0.930746
     1   C  -   8   H       0.943034       0.930746

     2   O  -   1   C       0.998013       1.020554
     2   O  -   3   C       0.975679       0.987064
     2   O  -   8   H       0.036949       0.022252
     2   O  -   7   H       0.036949       0.022252
     2   O  -  10   H       0.033105       0.019900
     2   O  -   9   H       0.033105       0.019900

     3   C  -   4   C       1.031842       1.021995
     3   C  -   2   O       0.975679       0.987064
     3   C  -   9   H       0.930334       0.918632
     3   C  -  10   H       0.930334       0.918632

     4   C  -   3   C       1.031842       1.021995
     4   C  -   5   H       0.955661       0.987998
     4   C  -  12   H       0.953493       0.979475
     4   C  -  11   H       0.953493       0.979475

     5   H  -   4   C       0.955661       0.987998

     6   H  -   1   C       0.953377       0.975829

     7   H  -   1   C       0.943034       0.930746
     7   H  -   2   O       0.036949       0.022252

     8   H  -   1   C       0.943034       0.930746
     8   H  -   2   O       0.036949       0.022252

     9   H  -   3   C       0.930334       0.918632
     9   H  -   2   O       0.033105       0.019900

    10   H  -   3   C       0.930334       0.918632
    10   H  -   2   O       0.033105       0.019900

    11   H  -   4   C       0.953493       0.979475

    12   H  -   4   C       0.953493       0.979475


 Valency analysis:

   CEN ATOM   TOT.VALENCE
     1   C       3.859961
     2   O       2.153827
     3   C       3.894450
     4   C       3.926463
     5   H       0.978416
     6   H       0.975309
     7   H       0.985818
     8   H       0.985818
     9   H       0.987292
    10   H       0.987292
    11   H       0.977472
    12   H       0.977472

 Total charge composition:

   CEN ATOM         s          p       ELECTRONS ->P.CHARGE
     1   C       3.02025    3.20526      6.22550   -0.22550
     2   O       3.59111    4.76016      8.35126   -0.35126
     3   C       2.98495    3.07513      6.06008   -0.06008
     4   C       3.01957    3.41145      6.43103   -0.43103
     5   H       0.85308                 0.85308    0.14692
     6   H       0.84287                 0.84287    0.15713
     7   H       0.88091                 0.88091    0.11909
     8   H       0.88091                 0.88091    0.11909
     9   H       0.88727                 0.88727    0.11273
    10   H       0.88727                 0.88727    0.11273
    11   H       0.84991                 0.84991    0.15009
    12   H       0.84991                 0.84991    0.15009

 Total charge composition, AO contributions:

   CEN ATOM SHL      SPHERICAL COMPONENTS
     1   C  1s       1.99221
     1   C  2s       1.02803
     1   C  2p       1.19833    1.18158    0.82535

     2   O  1s       1.99725
     2   O  2s       1.59385
     2   O  2p       1.50975    1.89685    1.35356

     3   C  1s       1.99248
     3   C  2s       0.99247
     3   C  2p       0.87233    1.17217    1.03063

     4   C  1s       1.99148
     4   C  2s       1.02809
     4   C  2p       1.17324    1.18406    1.05416

     5   H  1s       0.85308

     6   H  1s       0.84287

     7   H  1s       0.88091

     8   H  1s       0.88091

     9   H  1s       0.88727

    10   H  1s       0.88727

    11   H  1s       0.84991

    12   H  1s       0.84991

 Summary of localized orbital composition:   [THRPRINT= 0.020]

   ORB  GRP  ORB.ENERGY      CENTERS/CHARGES
     1   1   -18.539673      O  2   2.000
     2   1    -9.768835      C  3   2.000
     3   1    -9.758972      C  1   2.000
     4   1    -9.707528      C  4   2.000
     5   1    -0.691466      O  2   1.241   C  1   0.749
     6   1    -0.682222      O  2   1.251   C  3   0.736
     7   1    -0.524618      C  3   1.003   C  4   0.988
     8   1    -0.466970      O  2   1.958   (other: 0.042)
     9   1    -0.456755      C  1   1.139   H  8   0.858
    10   1    -0.456755      C  1   1.139   H  7   0.858
    11   1    -0.456722      C  1   1.158   H  6   0.834
    12   1    -0.452266      C  3   1.128   H 10   0.862
    13   1    -0.452266      C  3   1.128   H  9   0.862
    14   1    -0.439020      C  4   1.137   H  5   0.845
    15   1    -0.432672      C  4   1.146   H 11   0.842
    16   1    -0.432672      C  4   1.146   H 12   0.842
    17   1    -0.243127      O  2   1.897   C  1   0.021   (other: 0.083)

 Localized orbitals saved to record      2100.2  (orbital set 2)


 **********************************************************************************************************************************
 DATASETS  * FILE   NREC   LENGTH (MB)   RECORD NAMES
              1      20       64.33       500      610      700      900      950      970     1000      129      960     1100   
                                          VAR    BASINP    GEOM    SYMINP    ZMAT    AOBASIS   BASIS     P2S    ABASIS      S 
                                         1400     1410     1200     1210     1080     1600     1650     1300     1700     1800   
                                           T        V       H0       H01     AOSYM     SMH    MOLCAS    ERIS     OPER     GRID   

              2       5        3.21       700     1000      520     1800     2100   
                                         GEOM     BASIS   MCVARS    GRID      RKS  

 PROGRAMS   *        TOTAL      IBBA        KS       INT
 CPU TIMES  *        10.59      0.03      8.51      1.88
 REAL TIME  *        17.26 SEC
 DISK USED  *       169.15 MB      
 **********************************************************************************************************************************
 Molecular orbitals read from record     2100.2  Type=RKS/LOCAL(IBO)  
 Occupation numbers read from record     2100.2  Type=RKS/LOCAL(IBO)  
 Orbital energies read from record       2100.2  Type=RKS/LOCAL(IBO)  
 Redundancy group numbers read from rec  2100.2  Type=RKS/LOCAL(IBO)  

 IBBA/SVP energy=      0.000000000000

        KS-SCF  
   -192.97656002
 **********************************************************************************************************************************
 Molpro calculation terminated
