
 Primary working directories    : /tmp/sb13343
 Secondary working directories  : /tmp/sb13343
 Wavefunction directory         : /panfs/panasas01/chem/sb13343/wfu/
 Main file repository           : /tmp/sb13343/

 SHA1      : b4a5b34a9e711420743f49e6833241d17c61fb3c
 NAME      : 2099.9.b4a5b34
 ARCHNAME  : linux/x86_64_openmp
 FC        : /cm/shared/languages/GCC-6.1/bin/gfortran
 BLASLIB   : -lblas
 id        : simonbennie

 Nodes     nprocs
 node32-017    1

 Using customized tuning parameters: mindgm=1; mindgv=20; mindgc=4; mindgr=1; noblas=0; minvec=7
 default implementation of scratch files=df  

 memory,500,m
 geomtyp=xyz
 nosym
 noorient
 geometry={
 C          0.00000        0.00000        0.00000
 O          0.00000        0.00000        1.40962
 C          1.30608        0.00000        1.95787
 C          1.19221        0.00000        3.47353
 H          2.18666        0.00000        3.93332
 H         -1.04410        0.00000       -0.32474
 H          0.50079       -0.89267       -0.41051
 H          0.50079        0.89267       -0.41051
 H          1.86435       -0.88728        1.61056
 H          1.86435        0.88728        1.61056
 H          0.64981       -0.88690        3.81673
 H          0.64981        0.88690        3.81673
 }
 basis={ default,svp }
 {ks,PBE,direct;wf,34,1,0}
 {ibba,bonds=1}

 Variables initialized (895), CPU time= 0.00 sec
 Commands  initialized (725), CPU time= 0.02 sec, 591 directives.
 Default parameters read. Elapsed time= 0.08 sec

 Checking input...
 Passed
1


                                         ***  PROGRAM SYSTEM MOLPRO  ***
                                       Copyright, TTI GmbH Stuttgart, 2015
                                    Version 2099.9 linked May 26 2017 16:03:21


 **********************************************************************************************************************************
 LABEL *                                                                                 
  64 bit serial version                                                                  DATE: 08-Jun-17          TIME: 10:10:23  
 **********************************************************************************************************************************

 SHA1:             b4a5b34a9e711420743f49e6833241d17c61fb3c
 **********************************************************************************************************************************
 SETTING GEOMTYP        =    XYZ

 Variable memory set to  500000000 words,  buffer space 

 ZSYMEL=NOSYM

 SETTING BASIS          =    SVP


 Recomputing integrals since basis changed


 Using spherical harmonics

 Library entry C      S def2-SVP             selected for orbital group  1
 Library entry C      P def2-SVP             selected for orbital group  1
 Library entry C      D def2-SVP             selected for orbital group  1
 Library entry O      S def2-SVP             selected for orbital group  2
 Library entry O      P def2-SVP             selected for orbital group  2
 Library entry O      D def2-SVP             selected for orbital group  2
 Library entry H      S def2-SVP             selected for orbital group  4
 Library entry H      P def2-SVP             selected for orbital group  4


 PROGRAM * SEWARD (Integral evaluation for generally contracted gaussian basis sets)     Author: Roland Lindh, 1990

 Geometry written to block  1 of record 700


 Point group  C1  



 ATOMIC COORDINATES

 NR  ATOM    CHARGE       X              Y              Z

   1  C       6.00    0.000000000    0.000000000    0.000000000
   2  O       8.00    0.000000000    0.000000000    2.663795740
   3  C       6.00    2.468133497    0.000000000    3.699838088
   4  C       6.00    2.252950383    0.000000000    6.564020385
   5  H       1.00    4.132188528    0.000000000    7.432897560
   6  H       1.00   -1.973063047    0.000000000   -0.613669662
   7  H       1.00    0.946355946   -1.686901820   -0.775751471
   8  H       1.00    0.946355946    1.686901820   -0.775751471
   9  H       1.00    3.523110900   -1.676716196    3.043517307
  10  H       1.00    3.523110900    1.676716196    3.043517307
  11  H       1.00    1.227962933   -1.675998100    7.212574391
  12  H       1.00    1.227962933    1.675998100    7.212574391

 Bond lengths in Bohr (Angstrom)

 1-2  2.663795740  1-6  2.066293358  1-7  2.083990804  1-8  2.083990804  2-3  2.676764223
     ( 1.409620000)     ( 1.093435356)     ( 1.102800441)     ( 1.102800441)     ( 1.416482626)

  3- 4  2.872254168   3- 9  2.086890388   3-10  2.086890388   4- 5  2.070382464   4-11  2.068862297
       ( 1.519931450)       ( 1.104334835)       ( 1.104334835)       ( 1.095599218)       ( 1.094794780)

  4-12  2.068862297
       ( 1.094794780)

 Bond angles

  1-2-3  112.77108340   2-1-6  107.27693969   2-1-7  111.85402987   2-1-8  111.85402987

  2- 3- 4  108.47458109   2- 3- 9  110.14508041   2- 3-10  110.14508041   3- 4- 5  110.51724552

  3- 4-11  110.47015208   3- 4-12  110.47015208   4- 3- 9  110.57823876   4- 3-10  110.57823876

  5- 4-11  108.55021133   5- 4-12  108.55021133   6- 1- 7  108.84842497   6- 1- 8  108.84842497

  7- 1- 8  108.08590744   9- 3-10  106.92203462  11- 4-12  108.21261054

 NUCLEAR CHARGE:                   34
 NUMBER OF PRIMITIVE AOS:         156
 NUMBER OF SYMMETRY AOS:          152
 NUMBER OF CONTRACTIONS:           96   (  96A   )
 NUMBER OF CORE ORBITALS:           4   (   4A   )
 NUMBER OF VALENCE ORBITALS:       24   (  24A   )


 NUCLEAR REPULSION ENERGY  133.31979421


 Eigenvalues of metric

         1 0.364E-02 0.952E-02 0.147E-01 0.282E-01 0.312E-01 0.319E-01 0.432E-01 0.449E-01


 Contracted 2-electron integrals neglected if value below      1.0D-11
 AO integral compression algorithm  1   Integral accuracy      1.0D-11

     37.487 MB (compressed) written to integral file ( 40.8%)


 NUMBER OF SORTED TWO-ELECTRON INTEGRALS:   10841496.     BUFFER LENGTH:  32768
 NUMBER OF SEGMENTS:   1  SEGMENT LENGTH:   10841496      RECORD LENGTH: 524288

 Memory used in sort:      11.40 MW

 SORT1 READ    11483613. AND WROTE     8333550. INTEGRALS IN     24 RECORDS. CPU TIME:     0.13 SEC, REAL TIME:     0.24 SEC
 SORT2 READ     8333550. AND WROTE    10841496. INTEGRALS IN    143 RECORDS. CPU TIME:     0.26 SEC, REAL TIME:     0.32 SEC

 FILE SIZES:   FILE 1:    68.0 MBYTE,  FILE 4:   100.7 MBYTE,   TOTAL:    168.7 MBYTE

 OPERATOR DM      FOR CENTER  0  COORDINATES:    0.000000    0.000000    0.000000


 **********************************************************************************************************************************
 DATASETS  * FILE   NREC   LENGTH (MB)   RECORD NAMES
              1      19       62.89       500      610      700      900      950      970     1000      129      960     1100   
                                          VAR    BASINP    GEOM    SYMINP    ZMAT    AOBASIS   BASIS     P2S    ABASIS      S 
                                         1400     1410     1200     1210     1080     1600     1650     1300     1700   
                                           T        V       H0       H01     AOSYM     SMH    MOLCAS    ERIS     OPER   

 PROGRAMS   *        TOTAL       INT
 CPU TIMES  *         1.74      1.61
 REAL TIME  *         2.34 SEC
 DISK USED  *       169.15 MB      
 **********************************************************************************************************************************

 Density functional group PBE=PBEX+PBEC
 Functional: PBEX(Automatically generated (new) PBEX)                          Gradient terms: 1
 Functional: PBEC(Automatically generated (new) PBEC)                          Gradient terms: 1
 Use grid at  1800.2

 Functional: PBEX                      Factor:  1.0000
 Functional: PBEC                      Factor:  1.0000

 Generated new metagrid on record  1800.2 with target accuracy 1.0D-06 and 44796 points in CPU time    1.1
 Computed new grid on record 1800.1 in CPU time    1.2
   80368 words reserved for DFT integration

 PROGRAM * RKS-SCF (Restricted closed shell Kohn-Sham)     Authors: W. Meyer, H.-J. Werner, P.J. Knowles, 1993

 NUMBER OF ELECTRONS:      17+   17-    SPACE SYMMETRY=1    SPIN SYMMETRY: Singlet 
 CONVERGENCE THRESHOLDS:    1.00E-05 (Density)    1.00E-06 (Energy)
 MAX. NUMBER OF ITERATIONS:       60
 INTERPOLATION TYPE:            DIIS
 INTERPOLATION STEPS:              2 (START)      1 (STEP)
 LEVEL SHIFTS:                  0.00 (CLOSED)  0.00 (OPEN) 



 Use fine grid record 1800.2 for energy threshold  1.0D-06
 Orbital guess generated from atomic densities. Full valence occupancy:   17

 Molecular orbital dump at record        2100.2

 Initial occupancy:  17

 ITERATION    DDIFF          GRAD             ENERGY        2-EL.EN.            DIPOLE MOMENTS         DIIS   ORB.
    1      0.000D+00      0.000D+00      -193.76397176    465.272540    0.75574   -0.00000   -0.49169    0    start
    2      0.000D+00      0.108D-01      -193.54109235    434.141722   -0.59402    0.00000    0.33691    1    diag
    3      0.303D-01      0.165D-01      -193.93456380    453.937624    0.52371   -0.00000   -0.31683    2    diag
    4      0.213D-01      0.240D-02      -193.94003819    453.045705    0.32868   -0.00000   -0.21480    3    diag
    5      0.226D-02      0.849D-03      -193.94077125    452.977026    0.35164   -0.00000   -0.22023    4    diag
    6      0.619D-03      0.134D-03      -193.94078773    453.011530    0.35266   -0.00000   -0.22348    5    diag
    7      0.141D-03      0.697D-04      -193.94079385    453.012923    0.35524   -0.00000   -0.22358    6    diag
    8      0.572D-04      0.829D-05      -193.94079394    453.016824    0.35456   -0.00000   -0.22391    7    diag
    9      0.828D-05      0.184D-05      -193.94079394    453.018325    0.35503   -0.00000   -0.22380    0    orth

 Final occupancy:  17

 !RKS STATE 1.1 Energy               -193.940793944635
 Nuclear energy                       133.31979421
 One-electron energy                 -526.21250894
 Two-electron energy                  226.50916272
 Density functional                   -27.55724194     PBEX=-26.44872575 PBEC= -1.10851618
 Virial quotient                       -1.00993038
 !RKS STATE 1.1 Dipole moment           0.35503396    -0.00000000    -0.22380415
 Dipole moment /Debye                   0.90234720    -0.00000000    -0.56881614

 Orbital energies:

         1.1          2.1          3.1          4.1          5.1          6.1          7.1          8.1          9.1         10.1
    -18.752043    -9.935516    -9.932201    -9.885632    -0.929828    -0.682151    -0.598751    -0.534253    -0.437860    -0.423912

        11.1         12.1         13.1         14.1         15.1         16.1         17.1         18.1         19.1
     -0.398928    -0.368634    -0.335893    -0.318749    -0.306003    -0.266018    -0.203417     0.039887     0.063553

 HOMO     17.1    -0.203417 =      -5.5353eV
 LUMO     18.1     0.039887 =       1.0854eV
 LUMO-HOMO         0.243304 =       6.6206eV


 **********************************************************************************************************************************
 DATASETS  * FILE   NREC   LENGTH (MB)   RECORD NAMES
              1      20       64.33       500      610      700      900      950      970     1000      129      960     1100   
                                          VAR    BASINP    GEOM    SYMINP    ZMAT    AOBASIS   BASIS     P2S    ABASIS      S 
                                         1400     1410     1200     1210     1080     1600     1650     1300     1700     1800   
                                           T        V       H0       H01     AOSYM     SMH    MOLCAS    ERIS     OPER     GRID   

              2       5        3.14       700     1000      520     1800     2100   
                                         GEOM     BASIS   MCVARS    GRID      RKS  

 PROGRAMS   *        TOTAL        KS       INT
 CPU TIMES  *         8.79      7.05      1.61
 REAL TIME  *        10.17 SEC
 DISK USED  *       169.15 MB      
 **********************************************************************************************************************************


 PROGRAM * Intrinsic Basis Bonding Analysis (IBBA)          Author: G. Knizia

 Molecular orbitals read from record     2100.2  Type=RKS/CANONICAL (state 1.1)
 Fock matrix read from record            2100.2  Type=RKS/TOTAL (state 1.1)
 Orbital energies read from record       2100.2  Type=RKS/CANONICAL (state 1.1)
 Density matrix read from record         2100.2  Type=RKS/CHARGE (state 1.1)

 Number of core orbitals:           4 (   4 )
 Number of closed-shell orbitals:  13 (  13 )

 Basis set MINAO-AUTO-PP generated.      Number of basis functions:   28 

 Polarized AO type:                A = (O Ot + (1-O)(1-Ot)) P12
 Orthogonalization method:         Symmetric (Loewdin)
 Localization functional:          L = sum[A,i] <i|n_A|i>^4 -> max

 Localization group 1:  17 orbitals, occupancy  2.000
 Iterative localization: IB/PM,    7 iter; Final gradient 0.20E-09

 Bond order analysis:       [THRPRINT= 0.020]

   CEN ATOM   CEN ATOM     WIBERG.BO      RENORM.BO
     1   C  -   2   O       0.997063       1.021319
     1   C  -   6   H       0.956326       0.976239
     1   C  -   7   H       0.945204       0.930943
     1   C  -   8   H       0.945204       0.930943

     2   O  -   1   C       0.997063       1.021319
     2   O  -   3   C       0.974983       0.989128
     2   O  -   8   H       0.036694       0.021932
     2   O  -   7   H       0.036694       0.021932
     2   O  -  10   H       0.032879       0.019618
     2   O  -   9   H       0.032879       0.019618

     3   C  -   4   C       1.031292       1.021950
     3   C  -   2   O       0.974983       0.989128
     3   C  -   9   H       0.932787       0.919306
     3   C  -  10   H       0.932787       0.919306

     4   C  -   3   C       1.031292       1.021950
     4   C  -   5   H       0.958976       0.988154
     4   C  -  12   H       0.956709       0.979946
     4   C  -  11   H       0.956709       0.979946

     5   H  -   4   C       0.958976       0.988154

     6   H  -   1   C       0.956326       0.976239

     7   H  -   1   C       0.945204       0.930943
     7   H  -   2   O       0.036694       0.021932

     8   H  -   1   C       0.945204       0.930943
     8   H  -   2   O       0.036694       0.021932

     9   H  -   3   C       0.932787       0.919306
     9   H  -   2   O       0.032879       0.019618

    10   H  -   3   C       0.932787       0.919306
    10   H  -   2   O       0.032879       0.019618

    11   H  -   4   C       0.956709       0.979946

    12   H  -   4   C       0.956709       0.979946


 Valency analysis:

   CEN ATOM   TOT.VALENCE
     1   C       3.865688
     2   O       2.149680
     3   C       3.897093
     4   C       3.934286
     5   H       0.980670
     6   H       0.977518
     7   H       0.987364
     8   H       0.987364
     9   H       0.988735
    10   H       0.988735
    11   H       0.979678
    12   H       0.979678

 Total charge composition:

   CEN ATOM         s          p       ELECTRONS ->P.CHARGE
     1   C       3.02069    3.18121      6.20190   -0.20190
     2   O       3.59567    4.76185      8.35752   -0.35752
     3   C       2.98663    3.05637      6.04300   -0.04300
     4   C       3.02137    3.38738      6.40875   -0.40875
     5   H       0.86097                 0.86097    0.13903
     6   H       0.85006                 0.85006    0.14994
     7   H       0.88759                 0.88759    0.11241
     8   H       0.88759                 0.88759    0.11241
     9   H       0.89386                 0.89386    0.10614
    10   H       0.89386                 0.89386    0.10614
    11   H       0.85745                 0.85745    0.14255
    12   H       0.85745                 0.85745    0.14255

 Total charge composition, AO contributions:

   CEN ATOM SHL      SPHERICAL COMPONENTS
     1   C  1s       1.99193
     1   C  2s       1.02875
     1   C  2p       1.18887    1.17233    0.82001

     2   O  1s       1.99716
     2   O  2s       1.59851
     2   O  2p       1.51027    1.89744    1.35414

     3   C  1s       1.99219
     3   C  2s       0.99444
     3   C  2p       0.86624    1.16332    1.02681

     4   C  1s       1.99117
     4   C  2s       1.03021
     4   C  2p       1.16369    1.17428    1.04941

     5   H  1s       0.86097

     6   H  1s       0.85006

     7   H  1s       0.88759

     8   H  1s       0.88759

     9   H  1s       0.89386

    10   H  1s       0.89386

    11   H  1s       0.85745

    12   H  1s       0.85745

 Summary of localized orbital composition:   [THRPRINT= 0.020]

   ORB  GRP  ORB.ENERGY      CENTERS/CHARGES
     1   1   -18.614574      O  2   2.000
     2   1    -9.834487      C  3   2.000
     3   1    -9.825983      C  1   2.000
     4   1    -9.773448      C  4   2.000
     5   1    -0.693091      O  2   1.244   C  1   0.746
     6   1    -0.684357      O  2   1.254   C  3   0.733
     7   1    -0.527569      C  3   1.004   C  4   0.988
     8   1    -0.475669      O  2   1.958   (other: 0.042)
     9   1    -0.463641      C  1   1.151   H  6   0.842
    10   1    -0.463395      C  1   1.133   H  8   0.865
    11   1    -0.463395      C  1   1.133   H  7   0.865
    12   1    -0.459183      C  3   1.121   H 10   0.869
    13   1    -0.459183      C  3   1.121   H  9   0.869
    14   1    -0.445696      C  4   1.129   H  5   0.854
    15   1    -0.439601      C  4   1.138   H 11   0.850
    16   1    -0.439601      C  4   1.138   H 12   0.850
    17   1    -0.246917      O  2   1.897   C  1   0.021   C  3   0.020   (other: 0.062)

 Localized orbitals saved to record      2100.2  (orbital set 2)


 **********************************************************************************************************************************
 DATASETS  * FILE   NREC   LENGTH (MB)   RECORD NAMES
              1      20       64.33       500      610      700      900      950      970     1000      129      960     1100   
                                          VAR    BASINP    GEOM    SYMINP    ZMAT    AOBASIS   BASIS     P2S    ABASIS      S 
                                         1400     1410     1200     1210     1080     1600     1650     1300     1700     1800   
                                           T        V       H0       H01     AOSYM     SMH    MOLCAS    ERIS     OPER     GRID   

              2       5        3.21       700     1000      520     1800     2100   
                                         GEOM     BASIS   MCVARS    GRID      RKS  

 PROGRAMS   *        TOTAL      IBBA        KS       INT
 CPU TIMES  *         8.83      0.03      7.05      1.61
 REAL TIME  *        10.28 SEC
 DISK USED  *       169.15 MB      
 **********************************************************************************************************************************
 Molecular orbitals read from record     2100.2  Type=RKS/LOCAL(IBO)  
 Occupation numbers read from record     2100.2  Type=RKS/LOCAL(IBO)  
 Orbital energies read from record       2100.2  Type=RKS/LOCAL(IBO)  
 Redundancy group numbers read from rec  2100.2  Type=RKS/LOCAL(IBO)  

 IBBA/SVP energy=      0.000000000000

        KS-SCF  
   -193.94079394
 **********************************************************************************************************************************
 Molpro calculation terminated
