
 Primary working directories    : /tmp/sb13343
 Secondary working directories  : /tmp/sb13343
 Wavefunction directory         : /panfs/panasas01/chem/sb13343/wfu/
 Main file repository           : /tmp/sb13343/

 SHA1      : b4a5b34a9e711420743f49e6833241d17c61fb3c
 NAME      : 2099.9.b4a5b34
 ARCHNAME  : linux/x86_64_openmp
 FC        : /cm/shared/languages/GCC-6.1/bin/gfortran
 BLASLIB   : -lblas
 id        : simonbennie

 Nodes     nprocs
 node44-009    1

 Using customized tuning parameters: mindgm=1; mindgv=20; mindgc=4; mindgr=1; noblas=0; minvec=7
 default implementation of scratch files=df  

 memory,500,m
 geomtyp=xyz
 nosym
 noorient
 geometry={
 C          0.00000        0.00000        0.00000
 O          0.00000        0.00000        1.40962
 C          1.30608        0.00000        1.95787
 C          1.19221        0.00000        3.47353
 H          2.18666        0.00000        3.93332
 H         -1.04410        0.00000       -0.32474
 H          0.50079       -0.89267       -0.41051
 H          0.50079        0.89267       -0.41051
 H          1.86435       -0.88728        1.61056
 H          1.86435        0.88728        1.61056
 H          0.64981       -0.88690        3.81673
 H          0.64981        0.88690        3.81673
 }
 basis={ default,sto-3g }
 {ks,M06-L,direct;wf,34,1,0}
 {ibba,bonds=1}

 Variables initialized (895), CPU time= 0.00 sec
 Commands  initialized (725), CPU time= 0.01 sec, 591 directives.
 Default parameters read. Elapsed time= 0.20 sec

 Checking input...
 Passed
1


                                         ***  PROGRAM SYSTEM MOLPRO  ***
                                       Copyright, TTI GmbH Stuttgart, 2015
                                    Version 2099.9 linked May 26 2017 16:03:21


 **********************************************************************************************************************************
 LABEL *                                                                                 
  64 bit serial version                                                                  DATE: 08-Jun-17          TIME: 10:00:47  
 **********************************************************************************************************************************

 SHA1:             b4a5b34a9e711420743f49e6833241d17c61fb3c
 **********************************************************************************************************************************
 SETTING GEOMTYP        =    XYZ

 Variable memory set to  500000000 words,  buffer space 

 ZSYMEL=NOSYM

 SETTING BASIS          =    STO-3G


 Recomputing integrals since basis changed


 Using spherical harmonics

 Library entry C      S STO-3G               selected for orbital group  1
 Library entry C      P STO-3G               selected for orbital group  1
 Library entry O      S STO-3G               selected for orbital group  2
 Library entry O      P STO-3G               selected for orbital group  2
 Library entry H      S STO-3G               selected for orbital group  4


 PROGRAM * SEWARD (Integral evaluation for generally contracted gaussian basis sets)     Author: Roland Lindh, 1990

 Geometry written to block  1 of record 700


 Point group  C1  



 ATOMIC COORDINATES

 NR  ATOM    CHARGE       X              Y              Z

   1  C       6.00    0.000000000    0.000000000    0.000000000
   2  O       8.00    0.000000000    0.000000000    2.663795740
   3  C       6.00    2.468133497    0.000000000    3.699838088
   4  C       6.00    2.252950383    0.000000000    6.564020385
   5  H       1.00    4.132188528    0.000000000    7.432897560
   6  H       1.00   -1.973063047    0.000000000   -0.613669662
   7  H       1.00    0.946355946   -1.686901820   -0.775751471
   8  H       1.00    0.946355946    1.686901820   -0.775751471
   9  H       1.00    3.523110900   -1.676716196    3.043517307
  10  H       1.00    3.523110900    1.676716196    3.043517307
  11  H       1.00    1.227962933   -1.675998100    7.212574391
  12  H       1.00    1.227962933    1.675998100    7.212574391

 Bond lengths in Bohr (Angstrom)

 1-2  2.663795740  1-6  2.066293358  1-7  2.083990804  1-8  2.083990804  2-3  2.676764223
     ( 1.409620000)     ( 1.093435356)     ( 1.102800441)     ( 1.102800441)     ( 1.416482626)

  3- 4  2.872254168   3- 9  2.086890388   3-10  2.086890388   4- 5  2.070382464   4-11  2.068862297
       ( 1.519931450)       ( 1.104334835)       ( 1.104334835)       ( 1.095599218)       ( 1.094794780)

  4-12  2.068862297
       ( 1.094794780)

 Bond angles

  1-2-3  112.77108340   2-1-6  107.27693969   2-1-7  111.85402987   2-1-8  111.85402987

  2- 3- 4  108.47458109   2- 3- 9  110.14508041   2- 3-10  110.14508041   3- 4- 5  110.51724552

  3- 4-11  110.47015208   3- 4-12  110.47015208   4- 3- 9  110.57823876   4- 3-10  110.57823876

  5- 4-11  108.55021133   5- 4-12  108.55021133   6- 1- 7  108.84842497   6- 1- 8  108.84842497

  7- 1- 8  108.08590744   9- 3-10  106.92203462  11- 4-12  108.21261054

 NUCLEAR CHARGE:                   34
 NUMBER OF PRIMITIVE AOS:          84
 NUMBER OF SYMMETRY AOS:           84
 NUMBER OF CONTRACTIONS:           28   (  28A   )
 NUMBER OF CORE ORBITALS:           4   (   4A   )
 NUMBER OF VALENCE ORBITALS:       24   (  24A   )


 NUCLEAR REPULSION ENERGY  133.31979421


 Eigenvalues of metric

         1 0.212E+00 0.234E+00 0.263E+00 0.352E+00 0.360E+00 0.368E+00 0.374E+00 0.394E+00


 Contracted 2-electron integrals neglected if value below      1.0D-11
 AO integral compression algorithm  1   Integral accuracy      1.0D-11

     0.786 MB (compressed) written to integral file ( 77.9%)


 NUMBER OF SORTED TWO-ELECTRON INTEGRALS:      82621.     BUFFER LENGTH:  32768
 NUMBER OF SEGMENTS:   1  SEGMENT LENGTH:      82621      RECORD LENGTH: 524288

 Memory used in sort:       0.64 MW

 SORT1 READ       95283. AND WROTE       67599. INTEGRALS IN      1 RECORDS. CPU TIME:     0.00 SEC, REAL TIME:     0.01 SEC
 SORT2 READ       67599. AND WROTE       82621. INTEGRALS IN      3 RECORDS. CPU TIME:     0.01 SEC, REAL TIME:     0.01 SEC

 FILE SIZES:   FILE 1:    31.0 MBYTE,  FILE 4:     4.2 MBYTE,   TOTAL:     35.2 MBYTE

 OPERATOR DM      FOR CENTER  0  COORDINATES:    0.000000    0.000000    0.000000


 **********************************************************************************************************************************
 DATASETS  * FILE   NREC   LENGTH (MB)   RECORD NAMES
              1      19       30.48       500      610      700      900      950      970     1000      129      960     1100   
                                          VAR    BASINP    GEOM    SYMINP    ZMAT    AOBASIS   BASIS     P2S    ABASIS      S 
                                         1400     1410     1200     1210     1080     1600     1650     1300     1700   
                                           T        V       H0       H01     AOSYM     SMH    MOLCAS    ERIS     OPER   

 PROGRAMS   *        TOTAL       INT
 CPU TIMES  *         0.46      0.31
 REAL TIME  *         0.95 SEC
 DISK USED  *        35.64 MB      
 **********************************************************************************************************************************

 Density functional group M06-L=XC-M06-L
 Functional: XC-M06-L(via MFM 1.6)                                             Gradient terms: 1
 Use grid at  1800.2

 Functional: XC-M06-L                  Factor:  1.0000

 Generated new metagrid on record  1800.2 with target accuracy 1.0D-06 and 44796 points in CPU time    1.1
 Computed new grid on record 1800.1 in CPU time    1.2
   26632 words reserved for DFT integration

 PROGRAM * RKS-SCF (Restricted closed shell Kohn-Sham)     Authors: W. Meyer, H.-J. Werner, P.J. Knowles, 1993

 NUMBER OF ELECTRONS:      17+   17-    SPACE SYMMETRY=1    SPIN SYMMETRY: Singlet 
 CONVERGENCE THRESHOLDS:    1.00E-05 (Density)    1.00E-06 (Energy)
 MAX. NUMBER OF ITERATIONS:       60
 INTERPOLATION TYPE:            DIIS
 INTERPOLATION STEPS:              2 (START)      1 (STEP)
 LEVEL SHIFTS:                  0.00 (CLOSED)  0.00 (OPEN) 



 Use fine grid record 1800.2 for energy threshold  1.0D-06
 Orbital guess generated from atomic densities. Full valence occupancy:   17

 Molecular orbital dump at record        2100.2

 Initial occupancy:  17

 ITERATION    DDIFF          GRAD             ENERGY        2-EL.EN.            DIPOLE MOMENTS         DIIS   ORB.
    1      0.000D+00      0.000D+00      -191.62714621    465.010101    1.02149   -0.00000   -0.62126    0    start
    2      0.000D+00      0.266D-01      -191.57915426    444.152867   -0.67837   -0.00000    0.71011    1    diag
    3      0.104D+00      0.313D-01      -191.81618627    453.920918    0.46273   -0.00000   -0.23474    2    diag
    4      0.568D-01      0.455D-02      -191.82055679    454.370587    0.33688   -0.00000   -0.15628    3    diag
    5      0.878D-02      0.112D-02      -191.82083680    454.367428    0.36363   -0.00000   -0.16586    4    diag
    6      0.174D-02      0.852D-04      -191.82083845    454.367850    0.36381   -0.00000   -0.16783    5    diag
    7      0.194D-03      0.281D-04      -191.82083863    454.368131    0.36447   -0.00000   -0.16794    6    diag
    8      0.492D-04      0.214D-05      -191.82083864    454.368084    0.36428   -0.00000   -0.16789    7    diag
    9      0.550D-05      0.272D-06      -191.82083864    454.368124    0.36430   -0.00000   -0.16789    0    orth

 Final occupancy:  17

 !RKS STATE 1.1 Energy               -191.820838635078
 Nuclear energy                       133.31979421
 One-electron energy                 -524.46510512
 Two-electron energy                  227.18406225
 Density functional                   -27.85958998     XC-M06-L=-27.85958998
 Virial quotient                       -1.01541009
 !RKS STATE 1.1 Dipole moment           0.36429937    -0.00000000    -0.16788603
 Dipole moment /Debye                   0.92589599    -0.00000000    -0.42669579

 Orbital energies:

         1.1          2.1          3.1          4.1          5.1          6.1          7.1          8.1          9.1         10.1
    -18.689816    -9.921415    -9.913282    -9.871628    -0.933129    -0.687994    -0.601006    -0.532881    -0.401353    -0.399808

        11.1         12.1         13.1         14.1         15.1         16.1         17.1         18.1         19.1
     -0.369542    -0.349877    -0.315296    -0.289165    -0.286209    -0.168480    -0.082919     0.272286     0.362359

 HOMO     17.1    -0.082919 =      -2.2563eV
 LUMO     18.1     0.272286 =       7.4093eV
 LUMO-HOMO         0.355205 =       9.6656eV


 **********************************************************************************************************************************
 DATASETS  * FILE   NREC   LENGTH (MB)   RECORD NAMES
              1      20       31.92       500      610      700      900      950      970     1000      129      960     1100   
                                          VAR    BASINP    GEOM    SYMINP    ZMAT    AOBASIS   BASIS     P2S    ABASIS      S 
                                         1400     1410     1200     1210     1080     1600     1650     1300     1700     1800   
                                           T        V       H0       H01     AOSYM     SMH    MOLCAS    ERIS     OPER     GRID   

              2       5        2.96       700     1000      520     1800     2100   
                                         GEOM     BASIS   MCVARS    GRID      RKS  

 PROGRAMS   *        TOTAL        KS       INT
 CPU TIMES  *         6.88      6.42      0.31
 REAL TIME  *         7.66 SEC
 DISK USED  *        35.64 MB      
 **********************************************************************************************************************************


 PROGRAM * Intrinsic Basis Bonding Analysis (IBBA)          Author: G. Knizia

 Molecular orbitals read from record     2100.2  Type=RKS/CANONICAL (state 1.1)
 Fock matrix read from record            2100.2  Type=RKS/TOTAL (state 1.1)
 Orbital energies read from record       2100.2  Type=RKS/CANONICAL (state 1.1)
 Density matrix read from record         2100.2  Type=RKS/CHARGE (state 1.1)

 Number of core orbitals:           4 (   4 )
 Number of closed-shell orbitals:  13 (  13 )

 Basis set MINAO-AUTO-PP generated.      Number of basis functions:   28 

 Polarized AO type:                A = (O Ot + (1-O)(1-Ot)) P12
 Orthogonalization method:         Symmetric (Loewdin)
 Localization functional:          L = sum[A,i] <i|n_A|i>^4 -> max

 Localization group 1:  17 orbitals, occupancy  2.000
 Iterative localization: IB/PM,    7 iter; Final gradient 0.41E-09

 Bond order analysis:       [THRPRINT= 0.020]

   CEN ATOM   CEN ATOM     WIBERG.BO      RENORM.BO
     1   C  -   2   O       1.020554       1.021010
     1   C  -   6   H       0.956402       0.972452
     1   C  -   7   H       0.950570       0.939266
     1   C  -   8   H       0.950570       0.939266

     2   O  -   1   C       1.020554       1.021010
     2   O  -   3   C       1.001293       0.997801
     2   O  -   7   H       0.033364       0.019904
     2   O  -   8   H       0.033364       0.019904
     2   O  -  10   H       0.030697       0.018340
     2   O  -   9   H       0.030697       0.018340

     3   C  -   4   C       1.020415       1.011289
     3   C  -   2   O       1.001293       0.997801
     3   C  -   9   H       0.939467       0.928685
     3   C  -  10   H       0.939467       0.928685

     4   C  -   3   C       1.020415       1.011289
     4   C  -   5   H       0.964848       0.991165
     4   C  -  12   H       0.962942       0.985555
     4   C  -  11   H       0.962942       0.985555

     5   H  -   4   C       0.964848       0.991165

     6   H  -   1   C       0.956402       0.972452

     7   H  -   1   C       0.950570       0.939266
     7   H  -   2   O       0.033364       0.019904

     8   H  -   1   C       0.950570       0.939266
     8   H  -   2   O       0.033364       0.019904

     9   H  -   3   C       0.939467       0.928685
     9   H  -   2   O       0.030697       0.018340

    10   H  -   3   C       0.939467       0.928685
    10   H  -   2   O       0.030697       0.018340

    11   H  -   4   C       0.962942       0.985555

    12   H  -   4   C       0.962942       0.985555


 Valency analysis:

   CEN ATOM   TOT.VALENCE
     1   C       3.898535
     2   O       2.178722
     3   C       3.923949
     4   C       3.936155
     5   H       0.981692
     6   H       0.981123
     7   H       0.987680
     8   H       0.987680
     9   H       0.988189
    10   H       0.988189
    11   H       0.981449
    12   H       0.981449

 Total charge composition:

   CEN ATOM         s          p       ELECTRONS ->P.CHARGE
     1   C       3.01739    3.22913      6.24652   -0.24652
     2   O       3.66173    4.57296      8.23470   -0.23470
     3   C       2.99240    3.11953      6.11193   -0.11193
     4   C       3.00840    3.38290      6.39130   -0.39130
     5   H       0.86469                 0.86469    0.13531
     6   H       0.86260                 0.86260    0.13740
     7   H       0.88901                 0.88901    0.11099
     8   H       0.88901                 0.88901    0.11099
     9   H       0.89132                 0.89132    0.10868
    10   H       0.89132                 0.89132    0.10868
    11   H       0.86380                 0.86380    0.13620
    12   H       0.86380                 0.86380    0.13620

 Total charge composition, AO contributions:

   CEN ATOM SHL      SPHERICAL COMPONENTS
     1   C  1s       1.99229
     1   C  2s       1.02510
     1   C  2p       1.18136    1.17377    0.87400

     2   O  1s       1.99725
     2   O  2s       1.66449
     2   O  2p       1.40488    1.90173    1.26635

     3   C  1s       1.99250
     3   C  2s       0.99990
     3   C  2p       0.91279    1.16945    1.03729

     4   C  1s       1.99157
     4   C  2s       1.01683
     4   C  2p       1.16378    1.16950    1.04962

     5   H  1s       0.86469

     6   H  1s       0.86260

     7   H  1s       0.88901

     8   H  1s       0.88901

     9   H  1s       0.89132

    10   H  1s       0.89132

    11   H  1s       0.86380

    12   H  1s       0.86380

 Summary of localized orbital composition:   [THRPRINT= 0.020]

   ORB  GRP  ORB.ENERGY      CENTERS/CHARGES
     1   1   -18.527036      O  2   2.000
     2   1    -9.818027      C  3   2.000
     3   1    -9.805731      C  1   2.000
     4   1    -9.758118      C  4   2.000
     5   1    -0.628996      O  2   1.177   C  1   0.812
     6   1    -0.619059      O  2   1.180   C  3   0.805
     7   1    -0.511773      C  3   1.006   C  4   0.985
     8   1    -0.465168      O  2   1.970   (other: 0.030)
     9   1    -0.454566      C  1   1.139   H  6   0.853
    10   1    -0.453344      C  1   1.130   H  7   0.869
    11   1    -0.453344      C  1   1.130   H  8   0.869
    12   1    -0.450727      C  3   1.124   H 10   0.868
    13   1    -0.450727      C  3   1.124   H  9   0.868
    14   1    -0.438251      C  4   1.129   H  5   0.858
    15   1    -0.431247      C  4   1.133   H 12   0.858
    16   1    -0.431247      C  4   1.133   H 11   0.858
    17   1    -0.116438      O  2   1.901   (other: 0.099)

 Localized orbitals saved to record      2100.2  (orbital set 2)


 **********************************************************************************************************************************
 DATASETS  * FILE   NREC   LENGTH (MB)   RECORD NAMES
              1      20       31.92       500      610      700      900      950      970     1000      129      960     1100   
                                          VAR    BASINP    GEOM    SYMINP    ZMAT    AOBASIS   BASIS     P2S    ABASIS      S 
                                         1400     1410     1200     1210     1080     1600     1650     1300     1700     1800   
                                           T        V       H0       H01     AOSYM     SMH    MOLCAS    ERIS     OPER     GRID   

              2       5        2.97       700     1000      520     1800     2100   
                                         GEOM     BASIS   MCVARS    GRID      RKS  

 PROGRAMS   *        TOTAL      IBBA        KS       INT
 CPU TIMES  *         6.91      0.02      6.42      0.31
 REAL TIME  *         7.76 SEC
 DISK USED  *        35.64 MB      
 **********************************************************************************************************************************
 Molecular orbitals read from record     2100.2  Type=RKS/LOCAL(IBO)  
 Occupation numbers read from record     2100.2  Type=RKS/LOCAL(IBO)  
 Orbital energies read from record       2100.2  Type=RKS/LOCAL(IBO)  
 Redundancy group numbers read from rec  2100.2  Type=RKS/LOCAL(IBO)  

 IBBA/STO-3G energy=      0.000000000000

        KS-SCF  
   -191.82083864
 **********************************************************************************************************************************
 Molpro calculation terminated
