
 Primary working directories    : /tmp/sb13343
 Secondary working directories  : /tmp/sb13343
 Wavefunction directory         : /panfs/panasas01/chem/sb13343/wfu/
 Main file repository           : /tmp/sb13343/

 SHA1      : b4a5b34a9e711420743f49e6833241d17c61fb3c
 NAME      : 2099.9.b4a5b34
 ARCHNAME  : linux/x86_64_openmp
 FC        : /cm/shared/languages/GCC-6.1/bin/gfortran
 BLASLIB   : -lblas
 id        : simonbennie

 Nodes     nprocs
 node32-002    1

 Using customized tuning parameters: mindgm=1; mindgv=20; mindgc=4; mindgr=1; noblas=0; minvec=7
 default implementation of scratch files=df  

 memory,500,m
 geomtyp=xyz
 nosym
 noorient
 geometry={
 C          0.00000        0.00000        0.00000
 O          0.00000        0.00000        1.40962
 C          1.30608        0.00000        1.95787
 C          1.19221        0.00000        3.47353
 H          2.18666        0.00000        3.93332
 H         -1.04410        0.00000       -0.32474
 H          0.50079       -0.89267       -0.41051
 H          0.50079        0.89267       -0.41051
 H          1.86435       -0.88728        1.61056
 H          1.86435        0.88728        1.61056
 H          0.64981       -0.88690        3.81673
 H          0.64981        0.88690        3.81673
 }
 basis={ default,sto-3g }
 {ks,LDA,direct;wf,34,1,0}
 {ibba,bonds=1}

 Variables initialized (895), CPU time= 0.00 sec
 Commands  initialized (725), CPU time= 0.02 sec, 591 directives.
 Default parameters read. Elapsed time= 0.12 sec

 Checking input...
 Passed
1


                                         ***  PROGRAM SYSTEM MOLPRO  ***
                                       Copyright, TTI GmbH Stuttgart, 2015
                                    Version 2099.9 linked May 26 2017 16:03:21


 **********************************************************************************************************************************
 LABEL *                                                                                 
  64 bit serial version                                                                  DATE: 08-Jun-17          TIME: 09:54:55  
 **********************************************************************************************************************************

 SHA1:             b4a5b34a9e711420743f49e6833241d17c61fb3c
 **********************************************************************************************************************************
 SETTING GEOMTYP        =    XYZ

 Variable memory set to  500000000 words,  buffer space 

 ZSYMEL=NOSYM

 SETTING BASIS          =    STO-3G


 Recomputing integrals since basis changed


 Using spherical harmonics

 Library entry C      S STO-3G               selected for orbital group  1
 Library entry C      P STO-3G               selected for orbital group  1
 Library entry O      S STO-3G               selected for orbital group  2
 Library entry O      P STO-3G               selected for orbital group  2
 Library entry H      S STO-3G               selected for orbital group  4


 PROGRAM * SEWARD (Integral evaluation for generally contracted gaussian basis sets)     Author: Roland Lindh, 1990

 Geometry written to block  1 of record 700


 Point group  C1  



 ATOMIC COORDINATES

 NR  ATOM    CHARGE       X              Y              Z

   1  C       6.00    0.000000000    0.000000000    0.000000000
   2  O       8.00    0.000000000    0.000000000    2.663795740
   3  C       6.00    2.468133497    0.000000000    3.699838088
   4  C       6.00    2.252950383    0.000000000    6.564020385
   5  H       1.00    4.132188528    0.000000000    7.432897560
   6  H       1.00   -1.973063047    0.000000000   -0.613669662
   7  H       1.00    0.946355946   -1.686901820   -0.775751471
   8  H       1.00    0.946355946    1.686901820   -0.775751471
   9  H       1.00    3.523110900   -1.676716196    3.043517307
  10  H       1.00    3.523110900    1.676716196    3.043517307
  11  H       1.00    1.227962933   -1.675998100    7.212574391
  12  H       1.00    1.227962933    1.675998100    7.212574391

 Bond lengths in Bohr (Angstrom)

 1-2  2.663795740  1-6  2.066293358  1-7  2.083990804  1-8  2.083990804  2-3  2.676764223
     ( 1.409620000)     ( 1.093435356)     ( 1.102800441)     ( 1.102800441)     ( 1.416482626)

  3- 4  2.872254168   3- 9  2.086890388   3-10  2.086890388   4- 5  2.070382464   4-11  2.068862297
       ( 1.519931450)       ( 1.104334835)       ( 1.104334835)       ( 1.095599218)       ( 1.094794780)

  4-12  2.068862297
       ( 1.094794780)

 Bond angles

  1-2-3  112.77108340   2-1-6  107.27693969   2-1-7  111.85402987   2-1-8  111.85402987

  2- 3- 4  108.47458109   2- 3- 9  110.14508041   2- 3-10  110.14508041   3- 4- 5  110.51724552

  3- 4-11  110.47015208   3- 4-12  110.47015208   4- 3- 9  110.57823876   4- 3-10  110.57823876

  5- 4-11  108.55021133   5- 4-12  108.55021133   6- 1- 7  108.84842497   6- 1- 8  108.84842497

  7- 1- 8  108.08590744   9- 3-10  106.92203462  11- 4-12  108.21261054

 NUCLEAR CHARGE:                   34
 NUMBER OF PRIMITIVE AOS:          84
 NUMBER OF SYMMETRY AOS:           84
 NUMBER OF CONTRACTIONS:           28   (  28A   )
 NUMBER OF CORE ORBITALS:           4   (   4A   )
 NUMBER OF VALENCE ORBITALS:       24   (  24A   )


 NUCLEAR REPULSION ENERGY  133.31979421


 Eigenvalues of metric

         1 0.212E+00 0.234E+00 0.263E+00 0.352E+00 0.360E+00 0.368E+00 0.374E+00 0.394E+00


 Contracted 2-electron integrals neglected if value below      1.0D-11
 AO integral compression algorithm  1   Integral accuracy      1.0D-11

     0.786 MB (compressed) written to integral file ( 77.9%)


 NUMBER OF SORTED TWO-ELECTRON INTEGRALS:      82621.     BUFFER LENGTH:  32768
 NUMBER OF SEGMENTS:   1  SEGMENT LENGTH:      82621      RECORD LENGTH: 524288

 Memory used in sort:       0.64 MW

 SORT1 READ       95283. AND WROTE       67599. INTEGRALS IN      1 RECORDS. CPU TIME:     0.00 SEC, REAL TIME:     0.01 SEC
 SORT2 READ       67599. AND WROTE       82621. INTEGRALS IN      3 RECORDS. CPU TIME:     0.01 SEC, REAL TIME:     0.02 SEC

 FILE SIZES:   FILE 1:    31.0 MBYTE,  FILE 4:     4.2 MBYTE,   TOTAL:     35.2 MBYTE

 OPERATOR DM      FOR CENTER  0  COORDINATES:    0.000000    0.000000    0.000000


 **********************************************************************************************************************************
 DATASETS  * FILE   NREC   LENGTH (MB)   RECORD NAMES
              1      19       30.48       500      610      700      900      950      970     1000      129      960     1100   
                                          VAR    BASINP    GEOM    SYMINP    ZMAT    AOBASIS   BASIS     P2S    ABASIS      S 
                                         1400     1410     1200     1210     1080     1600     1650     1300     1700   
                                           T        V       H0       H01     AOSYM     SMH    MOLCAS    ERIS     OPER   

 PROGRAMS   *        TOTAL       INT
 CPU TIMES  *         0.48      0.33
 REAL TIME  *         1.03 SEC
 DISK USED  *        35.64 MB      
 **********************************************************************************************************************************

 Density functional group LDA=DIRAC+VWN5
 Functional: DIRAC(Automatically generated (new) DIRAC)                        Gradient terms: 0
 Functional: VWN5(Automatically generated (new) VWN5)                          Gradient terms: 0
 Use grid at  1800.2

 Functional: DIRAC                     Factor:  1.0000
 Functional: VWN5                      Factor:  1.0000

 Generated new metagrid on record  1800.2 with target accuracy 1.0D-06 and 44796 points in CPU time    1.2
 Computed new grid on record 1800.1 in CPU time    1.3
   15964 words reserved for DFT integration

 PROGRAM * RKS-SCF (Restricted closed shell Kohn-Sham)     Authors: W. Meyer, H.-J. Werner, P.J. Knowles, 1993

 NUMBER OF ELECTRONS:      17+   17-    SPACE SYMMETRY=1    SPIN SYMMETRY: Singlet 
 CONVERGENCE THRESHOLDS:    1.00E-05 (Density)    1.00E-06 (Energy)
 MAX. NUMBER OF ITERATIONS:       60
 INTERPOLATION TYPE:            DIIS
 INTERPOLATION STEPS:              2 (START)      1 (STEP)
 LEVEL SHIFTS:                  0.00 (CLOSED)  0.00 (OPEN) 



 Use fine grid record 1800.2 for energy threshold  1.0D-06
 Orbital guess generated from atomic densities. Full valence occupancy:   17

 Molecular orbital dump at record        2100.2

 Initial occupancy:  17

 ITERATION    DDIFF          GRAD             ENERGY        2-EL.EN.            DIPOLE MOMENTS         DIIS   ORB.
    1      0.000D+00      0.000D+00      -189.95448967    466.459285    1.01824   -0.00000   -0.62888    0    start
    2      0.000D+00      0.294D-01      -189.90052437    443.214446   -0.62581   -0.00000    0.69279    1    diag
    3      0.113D+00      0.336D-01      -190.17613111    454.763887    0.49783   -0.00000   -0.26601    2    diag
    4      0.619D-01      0.514D-02      -190.18151989    454.923825    0.34376   -0.00000   -0.16109    3    diag
    5      0.935D-02      0.118D-02      -190.18181375    454.896804    0.36056   -0.00000   -0.16181    4    diag
    6      0.179D-02      0.126D-03      -190.18181751    454.896644    0.36218   -0.00000   -0.16544    5    diag
    7      0.280D-03      0.424D-04      -190.18181794    454.897716    0.36358   -0.00000   -0.16591    6    diag
    8      0.727D-04      0.235D-05      -190.18181794    454.898043    0.36346   -0.00000   -0.16601    7    diag
    9      0.565D-05      0.793D-06      -190.18181794    454.898120    0.36348   -0.00000   -0.16600    0    orth

 Final occupancy:  17

 !RKS STATE 1.1 Energy               -190.181817941083
 Nuclear energy                       133.31979421
 One-electron energy                 -524.74201864
 Two-electron energy                  227.44905986
 Density functional                   -26.20865338     DIRAC=-24.04319447 VWN5= -2.16545891
 Virial quotient                       -1.00817480
 !RKS STATE 1.1 Dipole moment           0.36348100    -0.00000000    -0.16600269
 Dipole moment /Debye                   0.92381605    -0.00000000    -0.42190912

 Orbital energies:

         1.1          2.1          3.1          4.1          5.1          6.1          7.1          8.1          9.1         10.1
    -18.332829    -9.631257    -9.622284    -9.583542    -0.868926    -0.637517    -0.554395    -0.490752    -0.377614    -0.375121

        11.1         12.1         13.1         14.1         15.1         16.1         17.1         18.1         19.1
     -0.345611    -0.324024    -0.289575    -0.266050    -0.260041    -0.142711    -0.064116     0.256483     0.347082

 HOMO     17.1    -0.064116 =      -1.7447eV
 LUMO     18.1     0.256483 =       6.9792eV
 LUMO-HOMO         0.320598 =       8.7239eV


 **********************************************************************************************************************************
 DATASETS  * FILE   NREC   LENGTH (MB)   RECORD NAMES
              1      20       31.92       500      610      700      900      950      970     1000      129      960     1100   
                                          VAR    BASINP    GEOM    SYMINP    ZMAT    AOBASIS   BASIS     P2S    ABASIS      S 
                                         1400     1410     1200     1210     1080     1600     1650     1300     1700     1800   
                                           T        V       H0       H01     AOSYM     SMH    MOLCAS    ERIS     OPER     GRID   

              2       5        2.96       700     1000      520     1800     2100   
                                         GEOM     BASIS   MCVARS    GRID      RKS  

 PROGRAMS   *        TOTAL        KS       INT
 CPU TIMES  *         3.24      2.76      0.33
 REAL TIME  *         5.46 SEC
 DISK USED  *        35.64 MB      
 **********************************************************************************************************************************


 PROGRAM * Intrinsic Basis Bonding Analysis (IBBA)          Author: G. Knizia

 Molecular orbitals read from record     2100.2  Type=RKS/CANONICAL (state 1.1)
 Fock matrix read from record            2100.2  Type=RKS/TOTAL (state 1.1)
 Orbital energies read from record       2100.2  Type=RKS/CANONICAL (state 1.1)
 Density matrix read from record         2100.2  Type=RKS/CHARGE (state 1.1)

 Number of core orbitals:           4 (   4 )
 Number of closed-shell orbitals:  13 (  13 )

 Basis set MINAO-AUTO-PP generated.      Number of basis functions:   28 

 Polarized AO type:                A = (O Ot + (1-O)(1-Ot)) P12
 Orthogonalization method:         Symmetric (Loewdin)
 Localization functional:          L = sum[A,i] <i|n_A|i>^4 -> max

 Localization group 1:  17 orbitals, occupancy  2.000
 Iterative localization: IB/PM,    7 iter; Final gradient 0.63E-09

 Bond order analysis:       [THRPRINT= 0.020]

   CEN ATOM   CEN ATOM     WIBERG.BO      RENORM.BO
     1   C  -   2   O       1.023957       1.019036
     1   C  -   6   H       0.949479       0.972594
     1   C  -   7   H       0.945121       0.939202
     1   C  -   8   H       0.945121       0.939202

     2   O  -   1   C       1.023957       1.019036
     2   O  -   3   C       1.006695       0.995932
     2   O  -   8   H       0.034003       0.020642
     2   O  -   7   H       0.034003       0.020642
     2   O  -  10   H       0.031218       0.018985
     2   O  -   9   H       0.031218       0.018985

     3   C  -   4   C       1.015599       1.006856
     3   C  -   2   O       1.006695       0.995932
     3   C  -   9   H       0.934810       0.929094
     3   C  -  10   H       0.934810       0.929094

     4   C  -   3   C       1.015599       1.006856
     4   C  -   5   H       0.958015       0.991447
     4   C  -  12   H       0.956610       0.986225
     4   C  -  11   H       0.956610       0.986225

     5   H  -   4   C       0.958015       0.991447

     6   H  -   1   C       0.949479       0.972594

     7   H  -   1   C       0.945121       0.939202
     7   H  -   2   O       0.034003       0.020642

     8   H  -   1   C       0.945121       0.939202
     8   H  -   2   O       0.034003       0.020642

     9   H  -   3   C       0.934810       0.929094
     9   H  -   2   O       0.031218       0.018985

    10   H  -   3   C       0.934810       0.929094
    10   H  -   2   O       0.031218       0.018985

    11   H  -   4   C       0.956610       0.986225

    12   H  -   4   C       0.956610       0.986225


 Valency analysis:

   CEN ATOM   TOT.VALENCE
     1   C       3.885126
     2   O       2.192916
     3   C       3.917038
     4   C       3.915288
     5   H       0.977071
     6   H       0.976226
     7   H       0.984177
     8   H       0.984177
     9   H       0.984620
    10   H       0.984620
    11   H       0.976748
    12   H       0.976748

 Total charge composition:

   CEN ATOM         s          p       ELECTRONS ->P.CHARGE
     1   C       3.00717    3.30139      6.30856   -0.30856
     2   O       3.64640    4.55564      8.20204   -0.20204
     3   C       2.98235    3.17956      6.16190   -0.16190
     4   C       2.99293    3.44475      6.43769   -0.43769
     5   H       0.84858                 0.84858    0.15142
     6   H       0.84581                 0.84581    0.15419
     7   H       0.87421                 0.87421    0.12579
     8   H       0.87421                 0.87421    0.12579
     9   H       0.87598                 0.87598    0.12402
    10   H       0.87598                 0.87598    0.12402
    11   H       0.84751                 0.84751    0.15249
    12   H       0.84751                 0.84751    0.15249

 Total charge composition, AO contributions:

   CEN ATOM SHL      SPHERICAL COMPONENTS
     1   C  1s       1.99333
     1   C  2s       1.01384
     1   C  2p       1.20757    1.19808    0.89574

     2   O  1s       1.99749
     2   O  2s       1.64891
     2   O  2p       1.39918    1.90123    1.25523

     3   C  1s       1.99354
     3   C  2s       0.98881
     3   C  2p       0.93501    1.19394    1.05062

     4   C  1s       1.99273
     4   C  2s       1.00021
     4   C  2p       1.18882    1.19524    1.06070

     5   H  1s       0.84858

     6   H  1s       0.84581

     7   H  1s       0.87421

     8   H  1s       0.87421

     9   H  1s       0.87598

    10   H  1s       0.87598

    11   H  1s       0.84751

    12   H  1s       0.84751

 Summary of localized orbital composition:   [THRPRINT= 0.020]

   ORB  GRP  ORB.ENERGY      CENTERS/CHARGES
     1   1   -18.184697      O  2   2.000
     2   1    -9.531857      C  3   2.000
     3   1    -9.519086      C  1   2.000
     4   1    -9.475088      C  4   2.000
     5   1    -0.597973      O  2   1.161   C  1   0.828
     6   1    -0.587545      O  2   1.164   C  3   0.822
     7   1    -0.478270      C  3   1.007   C  4   0.981
     8   1    -0.422446      C  1   1.156   H  6   0.835
     9   1    -0.419813      C  1   1.145   H  7   0.853
    10   1    -0.419813      C  1   1.145   H  8   0.853
    11   1    -0.416254      C  3   1.140   H 10   0.852
    12   1    -0.416254      C  3   1.140   H  9   0.852
    13   1    -0.405484      C  4   1.145   H  5   0.841
    14   1    -0.398559      C  4   1.149   H 12   0.841
    15   1    -0.398559      C  4   1.149   H 11   0.841
    16   1    -0.397408      O  2   1.969   (other: 0.031)
    17   1    -0.097258      O  2   1.901   (other: 0.099)

 Localized orbitals saved to record      2100.2  (orbital set 2)


 **********************************************************************************************************************************
 DATASETS  * FILE   NREC   LENGTH (MB)   RECORD NAMES
              1      20       31.92       500      610      700      900      950      970     1000      129      960     1100   
                                          VAR    BASINP    GEOM    SYMINP    ZMAT    AOBASIS   BASIS     P2S    ABASIS      S 
                                         1400     1410     1200     1210     1080     1600     1650     1300     1700     1800   
                                           T        V       H0       H01     AOSYM     SMH    MOLCAS    ERIS     OPER     GRID   

              2       5        2.97       700     1000      520     1800     2100   
                                         GEOM     BASIS   MCVARS    GRID      RKS  

 PROGRAMS   *        TOTAL      IBBA        KS       INT
 CPU TIMES  *         3.28      0.03      2.76      0.33
 REAL TIME  *         5.62 SEC
 DISK USED  *        35.64 MB      
 **********************************************************************************************************************************
 Molecular orbitals read from record     2100.2  Type=RKS/LOCAL(IBO)  
 Occupation numbers read from record     2100.2  Type=RKS/LOCAL(IBO)  
 Orbital energies read from record       2100.2  Type=RKS/LOCAL(IBO)  
 Redundancy group numbers read from rec  2100.2  Type=RKS/LOCAL(IBO)  

 IBBA/STO-3G energy=      0.000000000000

        KS-SCF  
   -190.18181794
 **********************************************************************************************************************************
 Molpro calculation terminated
