
 Primary working directories    : /tmp/sb13343
 Secondary working directories  : /tmp/sb13343
 Wavefunction directory         : /panfs/panasas01/chem/sb13343/wfu/
 Main file repository           : /tmp/sb13343/

 SHA1      : b4a5b34a9e711420743f49e6833241d17c61fb3c
 NAME      : 2099.9.b4a5b34
 ARCHNAME  : linux/x86_64_openmp
 FC        : /cm/shared/languages/GCC-6.1/bin/gfortran
 BLASLIB   : -lblas
 id        : simonbennie

 Nodes     nprocs
 node34-036    1

 Using customized tuning parameters: mindgm=1; mindgv=20; mindgc=4; mindgr=1; noblas=0; minvec=7
 default implementation of scratch files=df  

 memory,500,m
 geomtyp=xyz
 nosym
 noorient
 geometry={
 C          0.00000        0.00000        0.00000
 O          0.00000        0.00000        1.40962
 C          1.30608        0.00000        1.95787
 C          1.19221        0.00000        3.47353
 H          2.18666        0.00000        3.93332
 H         -1.04410        0.00000       -0.32474
 H          0.50079       -0.89267       -0.41051
 H          0.50079        0.89267       -0.41051
 H          1.86435       -0.88728        1.61056
 H          1.86435        0.88728        1.61056
 H          0.64981       -0.88690        3.81673
 H          0.64981        0.88690        3.81673
 }
 basis={ default,svp }
 {uks,M11-L,direct;wf,34,1,0}
 {ibba,bonds=1}

 Variables initialized (895), CPU time= 0.00 sec
 Commands  initialized (725), CPU time= 0.02 sec, 591 directives.
 Default parameters read. Elapsed time= 0.08 sec

 Checking input...
 Passed
1


                                         ***  PROGRAM SYSTEM MOLPRO  ***
                                       Copyright, TTI GmbH Stuttgart, 2015
                                    Version 2099.9 linked May 26 2017 16:03:21


 **********************************************************************************************************************************
 LABEL *                                                                                 
  64 bit serial version                                                                  DATE: 08-Jun-17          TIME: 10:23:11  
 **********************************************************************************************************************************

 SHA1:             b4a5b34a9e711420743f49e6833241d17c61fb3c
 **********************************************************************************************************************************
 SETTING GEOMTYP        =    XYZ

 Variable memory set to  500000000 words,  buffer space 

 ZSYMEL=NOSYM

 SETTING BASIS          =    SVP


 Recomputing integrals since basis changed


 Using spherical harmonics

 Library entry C      S def2-SVP             selected for orbital group  1
 Library entry C      P def2-SVP             selected for orbital group  1
 Library entry C      D def2-SVP             selected for orbital group  1
 Library entry O      S def2-SVP             selected for orbital group  2
 Library entry O      P def2-SVP             selected for orbital group  2
 Library entry O      D def2-SVP             selected for orbital group  2
 Library entry H      S def2-SVP             selected for orbital group  4
 Library entry H      P def2-SVP             selected for orbital group  4


 PROGRAM * SEWARD (Integral evaluation for generally contracted gaussian basis sets)     Author: Roland Lindh, 1990

 Geometry written to block  1 of record 700


 Point group  C1  



 ATOMIC COORDINATES

 NR  ATOM    CHARGE       X              Y              Z

   1  C       6.00    0.000000000    0.000000000    0.000000000
   2  O       8.00    0.000000000    0.000000000    2.663795740
   3  C       6.00    2.468133497    0.000000000    3.699838088
   4  C       6.00    2.252950383    0.000000000    6.564020385
   5  H       1.00    4.132188528    0.000000000    7.432897560
   6  H       1.00   -1.973063047    0.000000000   -0.613669662
   7  H       1.00    0.946355946   -1.686901820   -0.775751471
   8  H       1.00    0.946355946    1.686901820   -0.775751471
   9  H       1.00    3.523110900   -1.676716196    3.043517307
  10  H       1.00    3.523110900    1.676716196    3.043517307
  11  H       1.00    1.227962933   -1.675998100    7.212574391
  12  H       1.00    1.227962933    1.675998100    7.212574391

 Bond lengths in Bohr (Angstrom)

 1-2  2.663795740  1-6  2.066293358  1-7  2.083990804  1-8  2.083990804  2-3  2.676764223
     ( 1.409620000)     ( 1.093435356)     ( 1.102800441)     ( 1.102800441)     ( 1.416482626)

  3- 4  2.872254168   3- 9  2.086890388   3-10  2.086890388   4- 5  2.070382464   4-11  2.068862297
       ( 1.519931450)       ( 1.104334835)       ( 1.104334835)       ( 1.095599218)       ( 1.094794780)

  4-12  2.068862297
       ( 1.094794780)

 Bond angles

  1-2-3  112.77108340   2-1-6  107.27693969   2-1-7  111.85402987   2-1-8  111.85402987

  2- 3- 4  108.47458109   2- 3- 9  110.14508041   2- 3-10  110.14508041   3- 4- 5  110.51724552

  3- 4-11  110.47015208   3- 4-12  110.47015208   4- 3- 9  110.57823876   4- 3-10  110.57823876

  5- 4-11  108.55021133   5- 4-12  108.55021133   6- 1- 7  108.84842497   6- 1- 8  108.84842497

  7- 1- 8  108.08590744   9- 3-10  106.92203462  11- 4-12  108.21261054

 NUCLEAR CHARGE:                   34
 NUMBER OF PRIMITIVE AOS:         156
 NUMBER OF SYMMETRY AOS:          152
 NUMBER OF CONTRACTIONS:           96   (  96A   )
 NUMBER OF CORE ORBITALS:           4   (   4A   )
 NUMBER OF VALENCE ORBITALS:       24   (  24A   )


 NUCLEAR REPULSION ENERGY  133.31979421


 Eigenvalues of metric

         1 0.364E-02 0.952E-02 0.147E-01 0.282E-01 0.312E-01 0.319E-01 0.432E-01 0.449E-01


 Contracted 2-electron integrals neglected if value below      1.0D-11
 AO integral compression algorithm  1   Integral accuracy      1.0D-11

     37.487 MB (compressed) written to integral file ( 40.8%)


 NUMBER OF SORTED TWO-ELECTRON INTEGRALS:   10841496.     BUFFER LENGTH:  32768
 NUMBER OF SEGMENTS:   1  SEGMENT LENGTH:   10841496      RECORD LENGTH: 524288

 Memory used in sort:      11.40 MW

 SORT1 READ    11483613. AND WROTE     8333550. INTEGRALS IN     24 RECORDS. CPU TIME:     0.12 SEC, REAL TIME:     0.24 SEC
 SORT2 READ     8333550. AND WROTE    10841496. INTEGRALS IN    143 RECORDS. CPU TIME:     0.26 SEC, REAL TIME:     0.32 SEC

 FILE SIZES:   FILE 1:    68.0 MBYTE,  FILE 4:   100.7 MBYTE,   TOTAL:    168.7 MBYTE

 OPERATOR DM      FOR CENTER  0  COORDINATES:    0.000000    0.000000    0.000000


 **********************************************************************************************************************************
 DATASETS  * FILE   NREC   LENGTH (MB)   RECORD NAMES
              1      19       62.89       500      610      700      900      950      970     1000      129      960     1100   
                                          VAR    BASINP    GEOM    SYMINP    ZMAT    AOBASIS   BASIS     P2S    ABASIS      S 
                                         1400     1410     1200     1210     1080     1600     1650     1300     1700   
                                           T        V       H0       H01     AOSYM     SMH    MOLCAS    ERIS     OPER   

 PROGRAMS   *        TOTAL       INT
 CPU TIMES  *         1.80      1.66
 REAL TIME  *         2.40 SEC
 DISK USED  *       169.15 MB      
 **********************************************************************************************************************************

 Density functional group M11-L=XC-M11-L
 Functional: XC-M11-L(via MFM 1.6)                                             Gradient terms: 1
 Use grid at  1800.2

 Functional: XC-M11-L                  Factor:  1.0000

 Generated new metagrid on record  1800.2 with target accuracy 1.0D-06 and 44796 points in CPU time    1.1
 Computed new grid on record 1800.1 in CPU time    1.2
   80368 words reserved for DFT integration

 PROGRAM * UKS-SCF (Unrestricted Kohn-Sham)     Authors: W. Meyer, H.-J. Werner, P.J. Knowles, 1993

 NUMBER OF ELECTRONS:      17+   17-    SPACE SYMMETRY=1    SPIN SYMMETRY: Singlet 
 CONVERGENCE THRESHOLDS:    1.00E-05 (Density)    1.00E-06 (Energy)
 MAX. NUMBER OF ITERATIONS:       60
 INTERPOLATION TYPE:            DIIS
 INTERPOLATION STEPS:              2 (START)      1 (STEP)
 LEVEL SHIFTS:                 -0.20 (ALPHA)  -0.20 (BETA) 



 Use fine grid record 1800.2 for energy threshold  1.0D-06
 Orbital guess generated from atomic densities. Full valence occupancy:   17

 Molecular orbital dump at record        2200.2

 Initial alpha occupation  17
 Initial beta  occupation  17

 ITERATION    DDIFF          GRAD             ENERGY        2-EL.EN.            DIPOLE MOMENTS         DIIS
    1      0.000D+00      0.000D+00      -193.93760689    463.895226    0.82913   -0.00000   -0.51739    0
    2      0.103D-01      0.529D-02      -194.07785427    449.802246    0.31968    0.00000   -0.18312    1
    3      0.319D-02      0.197D-02      -194.09247484    453.080458    0.44210    0.00000   -0.25980    2
    4      0.938D-03      0.345D-03      -194.09314473    452.716222    0.39729    0.00000   -0.23268    3
    5      0.504D-03      0.154D-03      -194.09332856    452.700809    0.39604    0.00000   -0.23249    4
    6      0.444D-03      0.538D-04      -194.09337538    452.651440    0.38540    0.00000   -0.22782    5
    7      0.688D-04      0.130D-04      -194.09337690    452.651735    0.38506    0.00000   -0.22681    6
    8      0.240D-04      0.571D-05      -194.09337714    452.651502    0.38432    0.00000   -0.22671    7
    9      0.864D-05      0.106D-05      -194.09337716    452.651105    0.38420    0.00000   -0.22658    7
   10      0.139D-05      0.249D-06      -194.09337716    452.651252    0.38417    0.00000   -0.22656    7

 Final alpha occupancy:  17
 Final beta  occupancy:  17

 !UKS STATE 1.1 Energy               -194.093377161547
 Nuclear energy                       133.31979421
 One-electron energy                 -525.96368918
 Two-electron energy                  226.32562585
 Density functional                   -27.77510804     XC-M11-L=-27.77510804
 Virial quotient                       -1.00616507
 !UKS STATE 1.1 Dipole moment           0.38417109     0.00000000    -0.22655779
 Dipole moment /Debye                   0.97640155     0.00000000    -0.57581474

 Orbital energies for positive spin:

         1.1          2.1          3.1          4.1          5.1          6.1          7.1          8.1          9.1         10.1
    -19.384295   -10.410931   -10.405342   -10.355585    -1.040830    -0.734258    -0.644814    -0.574191    -0.463951    -0.445332

        11.1         12.1         13.1         14.1         15.1         16.1         17.1         18.1         19.1
     -0.423637    -0.387304    -0.356673    -0.342555    -0.324776    -0.299685    -0.238401     0.026388     0.048464

 Orbital energies for negative spin:

         1.1          2.1          3.1          4.1          5.1          6.1          7.1          8.1          9.1         10.1
    -19.384295   -10.410931   -10.405342   -10.355585    -1.040830    -0.734258    -0.644814    -0.574191    -0.463951    -0.445332

        11.1         12.1         13.1         14.1         15.1         16.1         17.1         18.1         19.1
     -0.423637    -0.387304    -0.356673    -0.342555    -0.324776    -0.299685    -0.238401     0.026388     0.048464

 HOMO     17.1    -0.238401 =      -6.4872eV
 LUMO     18.1     0.026388 =       0.7180eV
 LUMO-HOMO         0.264789 =       7.2053eV

 EXPECTATION VALUE OF S**2:            -0.00000000

 Natural orbitals saved to record    2200.2 (Orbital set 3)

 Orbital spaces for UNO-CAS (Min. occupation: 0.020  Max. occupation: 1.980):

 Closed:       17
 Active:        0


 **********************************************************************************************************************************
 DATASETS  * FILE   NREC   LENGTH (MB)   RECORD NAMES
              1      20       64.33       500      610      700      900      950      970     1000      129      960     1100   
                                          VAR    BASINP    GEOM    SYMINP    ZMAT    AOBASIS   BASIS     P2S    ABASIS      S 
                                         1400     1410     1200     1210     1080     1600     1650     1300     1700     1800   
                                           T        V       H0       H01     AOSYM     SMH    MOLCAS    ERIS     OPER     GRID   

              2       5        3.33       700     1000      520     1800     2200   
                                         GEOM     BASIS   MCVARS    GRID      UKS  

 PROGRAMS   *        TOTAL       UKS       INT
 CPU TIMES  *        33.41     31.60      1.66
 REAL TIME  *        34.78 SEC
 DISK USED  *       169.15 MB      
 **********************************************************************************************************************************


 PROGRAM * Intrinsic Basis Bonding Analysis (IBBA)          Author: G. Knizia

 Molecular orbitals read from record     2200.2  Type=UKS/ALPHA (state 1.1)
 Fock matrix read from record            2200.2  Type=UKS/TOTAL (state 1.1)
 Orbital energies read from record       2200.2  Type=UKS/ALPHA (state 1.1)
 Density matrix read from record         2200.2  Type=UKS/CHARGE (state 1.1)

 Number of core orbitals:           4 (   4 )
 Number of closed-shell orbitals:  13 (  13 )

 Basis set MINAO-AUTO-PP generated.      Number of basis functions:   28 

 Polarized AO type:                A = (O Ot + (1-O)(1-Ot)) P12
 Orthogonalization method:         Symmetric (Loewdin)
 Localization functional:          L = sum[A,i] <i|n_A|i>^4 -> max

 Localization group 1:  17 orbitals, occupancy  2.000
 Iterative localization: IB/PM,    7 iter; Final gradient 0.34E-09

 Bond order analysis:       [THRPRINT= 0.020]

   CEN ATOM   CEN ATOM     WIBERG.BO      RENORM.BO
     1   C  -   2   O       0.982457       1.021509
     1   C  -   6   H       0.958660       0.976152
     1   C  -   7   H       0.949195       0.934442
     1   C  -   8   H       0.949195       0.934442

     2   O  -   1   C       0.982457       1.021509
     2   O  -   3   C       0.959712       0.989498
     2   O  -   8   H       0.034518       0.020587
     2   O  -   7   H       0.034518       0.020587
     2   O  -  10   H       0.031467       0.018677
     2   O  -   9   H       0.031467       0.018677

     3   C  -   4   C       1.037539       1.027637
     3   C  -   2   O       0.959712       0.989498
     3   C  -   9   H       0.934971       0.919337
     3   C  -  10   H       0.934971       0.919337

     4   C  -   3   C       1.037539       1.027637
     4   C  -   5   H       0.961682       0.989652
     4   C  -  12   H       0.956894       0.979103
     4   C  -  11   H       0.956894       0.979103

     5   H  -   4   C       0.961682       0.989652

     6   H  -   1   C       0.958660       0.976152

     7   H  -   1   C       0.949195       0.934442
     7   H  -   2   O       0.034518       0.020587

     8   H  -   1   C       0.949195       0.934442
     8   H  -   2   O       0.034518       0.020587

     9   H  -   3   C       0.934971       0.919337
     9   H  -   2   O       0.031467       0.018677

    10   H  -   3   C       0.934971       0.919337
    10   H  -   2   O       0.031467       0.018677

    11   H  -   4   C       0.956894       0.979103

    12   H  -   4   C       0.956894       0.979103


 Valency analysis:

   CEN ATOM   TOT.VALENCE
     1   C       3.860612
     2   O       2.107338
     3   C       3.891116
     4   C       3.939681
     5   H       0.980682
     6   H       0.978305
     7   H       0.988037
     8   H       0.988037
     9   H       0.990168
    10   H       0.990168
    11   H       0.979367
    12   H       0.979367

 Total charge composition:

   CEN ATOM         s          p       ELECTRONS ->P.CHARGE
     1   C       3.04716    3.11939      6.16655   -0.16655
     2   O       3.63778    4.77412      8.41189   -0.41189
     3   C       3.00950    2.98969      5.99919    0.00081
     4   C       3.05598    3.35702      6.41300   -0.41300
     5   H       0.86101                 0.86101    0.13899
     6   H       0.85271                 0.85271    0.14729
     7   H       0.89062                 0.89062    0.10938
     8   H       0.89062                 0.89062    0.10938
     9   H       0.90084                 0.90084    0.09916
    10   H       0.90084                 0.90084    0.09916
    11   H       0.85636                 0.85636    0.14364
    12   H       0.85636                 0.85636    0.14364

 Total charge composition, AO contributions:

   CEN ATOM SHL      SPHERICAL COMPONENTS
     1   C  1s       1.98962
     1   C  2s       1.05754
     1   C  2p       1.17186    1.15241    0.79513

     2   O  1s       1.99662
     2   O  2s       1.64116
     2   O  2p       1.51023    1.90286    1.36102

     3   C  1s       1.98989
     3   C  2s       1.01961
     3   C  2p       0.83959    1.13954    1.01056

     4   C  1s       1.98868
     4   C  2s       1.06730
     4   C  2p       1.15217    1.16210    1.04275

     5   H  1s       0.86101

     6   H  1s       0.85271

     7   H  1s       0.89062

     8   H  1s       0.89062

     9   H  1s       0.90084

    10   H  1s       0.90084

    11   H  1s       0.85636

    12   H  1s       0.85636

 Summary of localized orbital composition:   [THRPRINT= 0.020]

   ORB  GRP  ORB.ENERGY      CENTERS/CHARGES
     1   1   -19.218355      O  2   2.000
     2   1   -10.301451      C  3   2.000
     3   1   -10.289296      C  1   2.000
     4   1   -10.232467      C  4   2.000
     5   1    -0.748453      O  2   1.266   C  1   0.723
     6   1    -0.741771      O  2   1.277   C  3   0.708
     7   1    -0.591317      O  2   1.962   (other: 0.038)
     8   1    -0.570541      C  3   1.000   C  4   0.993
     9   1    -0.489644      C  1   1.148   H  6   0.846
    10   1    -0.489069      C  1   1.129   H  7   0.870
    11   1    -0.489069      C  1   1.129   H  8   0.870
    12   1    -0.486234      C  3   1.113   H  9   0.877
    13   1    -0.486234      C  3   1.113   H 10   0.877
    14   1    -0.473298      C  4   1.129   H  5   0.855
    15   1    -0.467707      C  4   1.138   H 11   0.850
    16   1    -0.467707      C  4   1.138   H 12   0.850
    17   1    -0.289943      O  2   1.903   C  1   0.020   (other: 0.077)

 Localized orbitals saved to record      2200.2  (orbital set 4)


 **********************************************************************************************************************************
 DATASETS  * FILE   NREC   LENGTH (MB)   RECORD NAMES
              1      20       64.33       500      610      700      900      950      970     1000      129      960     1100   
                                          VAR    BASINP    GEOM    SYMINP    ZMAT    AOBASIS   BASIS     P2S    ABASIS      S 
                                         1400     1410     1200     1210     1080     1600     1650     1300     1700     1800   
                                           T        V       H0       H01     AOSYM     SMH    MOLCAS    ERIS     OPER     GRID   

              2       5        3.40       700     1000      520     1800     2200   
                                         GEOM     BASIS   MCVARS    GRID      UKS  

 PROGRAMS   *        TOTAL      IBBA       UKS       INT
 CPU TIMES  *        33.44      0.04     31.60      1.66
 REAL TIME  *        34.89 SEC
 DISK USED  *       169.15 MB      
 **********************************************************************************************************************************
 Molecular orbitals read from record     2200.2  Type=UKS/LOCAL(IBO)  
 Occupation numbers read from record     2200.2  Type=UKS/LOCAL(IBO)  
 Orbital energies read from record       2200.2  Type=UKS/LOCAL(IBO)  
 Redundancy group numbers read from rec  2200.2  Type=UKS/BETA (state 1.1)

 IBBA/SVP energy=      0.000000000000

        UKS-SCF 
   -194.09337716
 **********************************************************************************************************************************
 Molpro calculation terminated
