
 Primary working directories    : /tmp/sb13343
 Secondary working directories  : /tmp/sb13343
 Wavefunction directory         : /panfs/panasas01/chem/sb13343/wfu/
 Main file repository           : /tmp/sb13343/

 SHA1      : b4a5b34a9e711420743f49e6833241d17c61fb3c
 NAME      : 2099.9.b4a5b34
 ARCHNAME  : linux/x86_64_openmp
 FC        : /cm/shared/languages/GCC-6.1/bin/gfortran
 BLASLIB   : -lblas
 id        : simonbennie

 Nodes     nprocs
 node32-027    1

 Using customized tuning parameters: mindgm=1; mindgv=20; mindgc=4; mindgr=1; noblas=0; minvec=7
 default implementation of scratch files=df  

 memory,500,m
 geomtyp=xyz
 nosym
 noorient
 geometry={
 C          0.00000        0.00000        0.00000
 O          0.00000        0.00000        1.40962
 C          1.30608        0.00000        1.95787
 C          1.19221        0.00000        3.47353
 H          2.18666        0.00000        3.93332
 H         -1.04410        0.00000       -0.32474
 H          0.50079       -0.89267       -0.41051
 H          0.50079        0.89267       -0.41051
 H          1.86435       -0.88728        1.61056
 H          1.86435        0.88728        1.61056
 H          0.64981       -0.88690        3.81673
 H          0.64981        0.88690        3.81673
 }
 basis={ default,sto-3g }
 {ks,HFB,direct;wf,34,1,0}
 {ibba,bonds=1}

 Variables initialized (895), CPU time= 0.01 sec
 Commands  initialized (725), CPU time= 0.01 sec, 591 directives.
 Default parameters read. Elapsed time= 0.08 sec

 Checking input...
 Passed
1


                                         ***  PROGRAM SYSTEM MOLPRO  ***
                                       Copyright, TTI GmbH Stuttgart, 2015
                                    Version 2099.9 linked May 26 2017 16:03:21


 **********************************************************************************************************************************
 LABEL *                                                                                 
  64 bit serial version                                                                  DATE: 08-Jun-17          TIME: 09:39:59  
 **********************************************************************************************************************************

 SHA1:             b4a5b34a9e711420743f49e6833241d17c61fb3c
 **********************************************************************************************************************************
 SETTING GEOMTYP        =    XYZ

 Variable memory set to  500000000 words,  buffer space 

 ZSYMEL=NOSYM

 SETTING BASIS          =    STO-3G


 Recomputing integrals since basis changed


 Using spherical harmonics

 Library entry C      S STO-3G               selected for orbital group  1
 Library entry C      P STO-3G               selected for orbital group  1
 Library entry O      S STO-3G               selected for orbital group  2
 Library entry O      P STO-3G               selected for orbital group  2
 Library entry H      S STO-3G               selected for orbital group  4


 PROGRAM * SEWARD (Integral evaluation for generally contracted gaussian basis sets)     Author: Roland Lindh, 1990

 Geometry written to block  1 of record 700


 Point group  C1  



 ATOMIC COORDINATES

 NR  ATOM    CHARGE       X              Y              Z

   1  C       6.00    0.000000000    0.000000000    0.000000000
   2  O       8.00    0.000000000    0.000000000    2.663795740
   3  C       6.00    2.468133497    0.000000000    3.699838088
   4  C       6.00    2.252950383    0.000000000    6.564020385
   5  H       1.00    4.132188528    0.000000000    7.432897560
   6  H       1.00   -1.973063047    0.000000000   -0.613669662
   7  H       1.00    0.946355946   -1.686901820   -0.775751471
   8  H       1.00    0.946355946    1.686901820   -0.775751471
   9  H       1.00    3.523110900   -1.676716196    3.043517307
  10  H       1.00    3.523110900    1.676716196    3.043517307
  11  H       1.00    1.227962933   -1.675998100    7.212574391
  12  H       1.00    1.227962933    1.675998100    7.212574391

 Bond lengths in Bohr (Angstrom)

 1-2  2.663795740  1-6  2.066293358  1-7  2.083990804  1-8  2.083990804  2-3  2.676764223
     ( 1.409620000)     ( 1.093435356)     ( 1.102800441)     ( 1.102800441)     ( 1.416482626)

  3- 4  2.872254168   3- 9  2.086890388   3-10  2.086890388   4- 5  2.070382464   4-11  2.068862297
       ( 1.519931450)       ( 1.104334835)       ( 1.104334835)       ( 1.095599218)       ( 1.094794780)

  4-12  2.068862297
       ( 1.094794780)

 Bond angles

  1-2-3  112.77108340   2-1-6  107.27693969   2-1-7  111.85402987   2-1-8  111.85402987

  2- 3- 4  108.47458109   2- 3- 9  110.14508041   2- 3-10  110.14508041   3- 4- 5  110.51724552

  3- 4-11  110.47015208   3- 4-12  110.47015208   4- 3- 9  110.57823876   4- 3-10  110.57823876

  5- 4-11  108.55021133   5- 4-12  108.55021133   6- 1- 7  108.84842497   6- 1- 8  108.84842497

  7- 1- 8  108.08590744   9- 3-10  106.92203462  11- 4-12  108.21261054

 NUCLEAR CHARGE:                   34
 NUMBER OF PRIMITIVE AOS:          84
 NUMBER OF SYMMETRY AOS:           84
 NUMBER OF CONTRACTIONS:           28   (  28A   )
 NUMBER OF CORE ORBITALS:           4   (   4A   )
 NUMBER OF VALENCE ORBITALS:       24   (  24A   )


 NUCLEAR REPULSION ENERGY  133.31979421


 Eigenvalues of metric

         1 0.212E+00 0.234E+00 0.263E+00 0.352E+00 0.360E+00 0.368E+00 0.374E+00 0.394E+00


 Contracted 2-electron integrals neglected if value below      1.0D-11
 AO integral compression algorithm  1   Integral accuracy      1.0D-11

     0.786 MB (compressed) written to integral file ( 77.9%)


 NUMBER OF SORTED TWO-ELECTRON INTEGRALS:      82621.     BUFFER LENGTH:  32768
 NUMBER OF SEGMENTS:   1  SEGMENT LENGTH:      82621      RECORD LENGTH: 524288

 Memory used in sort:       0.64 MW

 SORT1 READ       95283. AND WROTE       67599. INTEGRALS IN      1 RECORDS. CPU TIME:     0.01 SEC, REAL TIME:     0.01 SEC
 SORT2 READ       67599. AND WROTE       82621. INTEGRALS IN      3 RECORDS. CPU TIME:     0.01 SEC, REAL TIME:     0.01 SEC

 FILE SIZES:   FILE 1:    31.0 MBYTE,  FILE 4:     4.2 MBYTE,   TOTAL:     35.2 MBYTE

 OPERATOR DM      FOR CENTER  0  COORDINATES:    0.000000    0.000000    0.000000


 **********************************************************************************************************************************
 DATASETS  * FILE   NREC   LENGTH (MB)   RECORD NAMES
              1      19       30.48       500      610      700      900      950      970     1000      129      960     1100   
                                          VAR    BASINP    GEOM    SYMINP    ZMAT    AOBASIS   BASIS     P2S    ABASIS      S 
                                         1400     1410     1200     1210     1080     1600     1650     1300     1700   
                                           T        V       H0       H01     AOSYM     SMH    MOLCAS    ERIS     OPER   

 PROGRAMS   *        TOTAL       INT
 CPU TIMES  *         0.49      0.35
 REAL TIME  *         0.90 SEC
 DISK USED  *        35.64 MB      
 **********************************************************************************************************************************

 Density functional group HFB=B88
 Functional: B88(Automatically generated (new) B88)                            Gradient terms: 1
 Use grid at  1800.2

 Functional: B88                       Factor:  1.0000

 Generated new metagrid on record  1800.2 with target accuracy 1.0D-06 and 44796 points in CPU time    1.2
 Computed new grid on record 1800.1 in CPU time    1.4
   26632 words reserved for DFT integration

 PROGRAM * RKS-SCF (Restricted closed shell Kohn-Sham)     Authors: W. Meyer, H.-J. Werner, P.J. Knowles, 1993

 NUMBER OF ELECTRONS:      17+   17-    SPACE SYMMETRY=1    SPIN SYMMETRY: Singlet 
 CONVERGENCE THRESHOLDS:    1.00E-05 (Density)    1.00E-06 (Energy)
 MAX. NUMBER OF ITERATIONS:       60
 INTERPOLATION TYPE:            DIIS
 INTERPOLATION STEPS:              2 (START)      1 (STEP)
 LEVEL SHIFTS:                  0.00 (CLOSED)  0.00 (OPEN) 



 Use fine grid record 1800.2 for energy threshold  1.0D-06
 Orbital guess generated from atomic densities. Full valence occupancy:   17

 Molecular orbital dump at record        2100.2

 Initial occupancy:  17

 ITERATION    DDIFF          GRAD             ENERGY        2-EL.EN.            DIPOLE MOMENTS         DIIS   ORB.
    1      0.000D+00      0.000D+00      -190.45746411    464.192550    0.95299   -0.00000   -0.58543    0    start
    2      0.000D+00      0.266D-01      -190.39484154    443.079720   -0.69719   -0.00000    0.73900    1    diag
    3      0.105D+00      0.319D-01      -190.64048729    453.404346    0.44288   -0.00000   -0.22934    2    diag
    4      0.589D-01      0.520D-02      -190.64614609    453.771113    0.29603   -0.00000   -0.13314    3    diag
    5      0.971D-02      0.118D-02      -190.64644496    453.721771    0.31217   -0.00000   -0.13275    4    diag
    6      0.181D-02      0.118D-03      -190.64644831    453.723019    0.31407   -0.00000   -0.13623    5    diag
    7      0.269D-03      0.406D-04      -190.64644870    453.724154    0.31537   -0.00000   -0.13664    6    diag
    8      0.708D-04      0.208D-05      -190.64644870    453.724403    0.31525   -0.00000   -0.13675    7    diag
    9      0.518D-05      0.561D-06      -190.64644870    453.724466    0.31526   -0.00000   -0.13674    0    orth

 Final occupancy:  17

 !RKS STATE 1.1 Energy               -190.646448704774
 Nuclear energy                       133.31979421
 One-electron energy                 -524.16868068
 Two-electron energy                  226.86223314
 Density functional                   -26.65979538     B88=-26.65979538
 Virial quotient                       -1.01043252
 !RKS STATE 1.1 Dipole moment           0.31526485    -0.00000000    -0.13674094
 Dipole moment /Debye                   0.80127083    -0.00000000    -0.34753805

 Orbital energies:

         1.1          2.1          3.1          4.1          5.1          6.1          7.1          8.1          9.1         10.1
    -18.492412    -9.754604    -9.748895    -9.711102    -0.835703    -0.607515    -0.525876    -0.462784    -0.343492    -0.340758

        11.1         12.1         13.1         14.1         15.1         16.1         17.1         18.1         19.1
     -0.314108    -0.295325    -0.262386    -0.235580    -0.234481    -0.112515    -0.036834     0.292885     0.383721

 HOMO     17.1    -0.036834 =      -1.0023eV
 LUMO     18.1     0.292885 =       7.9698eV
 LUMO-HOMO         0.329718 =       8.9721eV


 **********************************************************************************************************************************
 DATASETS  * FILE   NREC   LENGTH (MB)   RECORD NAMES
              1      20       31.92       500      610      700      900      950      970     1000      129      960     1100   
                                          VAR    BASINP    GEOM    SYMINP    ZMAT    AOBASIS   BASIS     P2S    ABASIS      S 
                                         1400     1410     1200     1210     1080     1600     1650     1300     1700     1800   
                                           T        V       H0       H01     AOSYM     SMH    MOLCAS    ERIS     OPER     GRID   

              2       5        2.96       700     1000      520     1800     2100   
                                         GEOM     BASIS   MCVARS    GRID      RKS  

 PROGRAMS   *        TOTAL        KS       INT
 CPU TIMES  *         3.47      2.98      0.35
 REAL TIME  *         4.03 SEC
 DISK USED  *        35.64 MB      
 **********************************************************************************************************************************


 PROGRAM * Intrinsic Basis Bonding Analysis (IBBA)          Author: G. Knizia

 Molecular orbitals read from record     2100.2  Type=RKS/CANONICAL (state 1.1)
 Fock matrix read from record            2100.2  Type=RKS/TOTAL (state 1.1)
 Orbital energies read from record       2100.2  Type=RKS/CANONICAL (state 1.1)
 Density matrix read from record         2100.2  Type=RKS/CHARGE (state 1.1)

 Number of core orbitals:           4 (   4 )
 Number of closed-shell orbitals:  13 (  13 )

 Basis set MINAO-AUTO-PP generated.      Number of basis functions:   28 

 Polarized AO type:                A = (O Ot + (1-O)(1-Ot)) P12
 Orthogonalization method:         Symmetric (Loewdin)
 Localization functional:          L = sum[A,i] <i|n_A|i>^4 -> max

 Localization group 1:  17 orbitals, occupancy  2.000
 Iterative localization: IB/PM,    7 iter; Final gradient 0.62E-09

 Bond order analysis:       [THRPRINT= 0.020]

   CEN ATOM   CEN ATOM     WIBERG.BO      RENORM.BO
     1   C  -   2   O       1.026230       1.021783
     1   C  -   6   H       0.957798       0.972160
     1   C  -   7   H       0.951411       0.937948
     1   C  -   8   H       0.951411       0.937948

     2   O  -   1   C       1.026230       1.021783
     2   O  -   3   C       1.008519       1.000351
     2   O  -   8   H       0.033957       0.020082
     2   O  -   7   H       0.033957       0.020082
     2   O  -  10   H       0.031264       0.018522
     2   O  -   9   H       0.031264       0.018522

     3   C  -   4   C       1.017026       1.008371
     3   C  -   2   O       1.008519       1.000351
     3   C  -   9   H       0.940981       0.928071
     3   C  -  10   H       0.940981       0.928071

     4   C  -   3   C       1.017026       1.008371
     4   C  -   5   H       0.966372       0.991163
     4   C  -  12   H       0.964811       0.986267
     4   C  -  11   H       0.964811       0.986267

     5   H  -   4   C       0.966372       0.991163

     6   H  -   1   C       0.957798       0.972160

     7   H  -   1   C       0.951411       0.937948
     7   H  -   2   O       0.033957       0.020082

     8   H  -   1   C       0.951411       0.937948
     8   H  -   2   O       0.033957       0.020082

     9   H  -   3   C       0.940981       0.928071
     9   H  -   2   O       0.031264       0.018522

    10   H  -   3   C       0.940981       0.928071
    10   H  -   2   O       0.031264       0.018522

    11   H  -   4   C       0.964811       0.986267

    12   H  -   4   C       0.964811       0.986267


 Valency analysis:

   CEN ATOM   TOT.VALENCE
     1   C       3.908187
     2   O       2.194913
     3   C       3.931528
     4   C       3.939200
     5   H       0.983727
     6   H       0.983267
     7   H       0.989658
     8   H       0.989658
     9   H       0.990066
    10   H       0.990066
    11   H       0.983447
    12   H       0.983447

 Total charge composition:

   CEN ATOM         s          p       ELECTRONS ->P.CHARGE
     1   C       3.00347    3.23123      6.23470   -0.23470
     2   O       3.65525    4.54955      8.20480   -0.20480
     3   C       2.98222    3.12596      6.10818   -0.10818
     4   C       2.99208    3.37720      6.36928   -0.36928
     5   H       0.87244                 0.87244    0.12756
     6   H       0.87064                 0.87064    0.12936
     7   H       0.89831                 0.89831    0.10169
     8   H       0.89831                 0.89831    0.10169
     9   H       0.90033                 0.90033    0.09967
    10   H       0.90033                 0.90033    0.09967
    11   H       0.87134                 0.87134    0.12866
    12   H       0.87134                 0.87134    0.12866

 Total charge composition, AO contributions:

   CEN ATOM SHL      SPHERICAL COMPONENTS
     1   C  1s       1.99266
     1   C  2s       1.01081
     1   C  2p       1.17736    1.16884    0.88502

     2   O  1s       1.99732
     2   O  2s       1.65793
     2   O  2p       1.39671    1.89950    1.25334

     3   C  1s       1.99286
     3   C  2s       0.98936
     3   C  2p       0.92098    1.16489    1.04009

     4   C  1s       1.99199
     4   C  2s       1.00009
     4   C  2p       1.16054    1.16597    1.05069

     5   H  1s       0.87244

     6   H  1s       0.87064

     7   H  1s       0.89831

     8   H  1s       0.89831

     9   H  1s       0.90033

    10   H  1s       0.90033

    11   H  1s       0.87134

    12   H  1s       0.87134

 Summary of localized orbital composition:   [THRPRINT= 0.020]

   ORB  GRP  ORB.ENERGY      CENTERS/CHARGES
     1   1   -18.336751      O  2   2.000
     2   1    -9.654028      C  3   2.000
     3   1    -9.644741      C  1   2.000
     4   1    -9.601216      C  4   2.000
     5   1    -0.555176      O  2   1.164   C  1   0.825
     6   1    -0.545661      O  2   1.167   C  3   0.818
     7   1    -0.443359      C  3   1.006   C  4   0.984
     8   1    -0.395433      C  1   1.131   H  6   0.861
     9   1    -0.391587      C  1   1.121   H  7   0.878
    10   1    -0.391587      C  1   1.121   H  8   0.878
    11   1    -0.388707      C  3   1.115   H  9   0.877
    12   1    -0.388707      C  3   1.115   H 10   0.877
    13   1    -0.383006      O  2   1.968   (other: 0.032)
    14   1    -0.379270      C  4   1.122   H  5   0.866
    15   1    -0.373642      C  4   1.125   H 11   0.866
    16   1    -0.373642      C  4   1.125   H 12   0.866
    17   1    -0.067855      O  2   1.899   C  1   0.021   (other: 0.080)

 Localized orbitals saved to record      2100.2  (orbital set 2)


 **********************************************************************************************************************************
 DATASETS  * FILE   NREC   LENGTH (MB)   RECORD NAMES
              1      20       31.92       500      610      700      900      950      970     1000      129      960     1100   
                                          VAR    BASINP    GEOM    SYMINP    ZMAT    AOBASIS   BASIS     P2S    ABASIS      S 
                                         1400     1410     1200     1210     1080     1600     1650     1300     1700     1800   
                                           T        V       H0       H01     AOSYM     SMH    MOLCAS    ERIS     OPER     GRID   

              2       5        2.97       700     1000      520     1800     2100   
                                         GEOM     BASIS   MCVARS    GRID      RKS  

 PROGRAMS   *        TOTAL      IBBA        KS       INT
 CPU TIMES  *         3.51      0.03      2.98      0.35
 REAL TIME  *         4.17 SEC
 DISK USED  *        35.64 MB      
 **********************************************************************************************************************************
 Molecular orbitals read from record     2100.2  Type=RKS/LOCAL(IBO)  
 Occupation numbers read from record     2100.2  Type=RKS/LOCAL(IBO)  
 Orbital energies read from record       2100.2  Type=RKS/LOCAL(IBO)  
 Redundancy group numbers read from rec  2100.2  Type=RKS/LOCAL(IBO)  

 IBBA/STO-3G energy=      0.000000000000

        KS-SCF  
   -190.64644870
 **********************************************************************************************************************************
 Molpro calculation terminated
