
 Primary working directories    : /tmp/sb13343
 Secondary working directories  : /tmp/sb13343
 Wavefunction directory         : /panfs/panasas01/chem/sb13343/wfu/
 Main file repository           : /tmp/sb13343/

 SHA1      : b4a5b34a9e711420743f49e6833241d17c61fb3c
 NAME      : 2099.9.b4a5b34
 ARCHNAME  : linux/x86_64_openmp
 FC        : /cm/shared/languages/GCC-6.1/bin/gfortran
 BLASLIB   : -lblas
 id        : simonbennie

 Nodes     nprocs
 node32-027    1

 Using customized tuning parameters: mindgm=1; mindgv=20; mindgc=4; mindgr=1; noblas=0; minvec=7
 default implementation of scratch files=df  

 memory,500,m
 geomtyp=xyz
 nosym
 noorient
 geometry={
 C          0.00000        0.00000        0.00000
 O          0.00000        0.00000        1.40962
 C          1.30608        0.00000        1.95787
 C          1.19221        0.00000        3.47353
 H          2.18666        0.00000        3.93332
 H         -1.04410        0.00000       -0.32474
 H          0.50079       -0.89267       -0.41051
 H          0.50079        0.89267       -0.41051
 H          1.86435       -0.88728        1.61056
 H          1.86435        0.88728        1.61056
 H          0.64981       -0.88690        3.81673
 H          0.64981        0.88690        3.81673
 }
 basis={ default,sto-3g }
 {ks,PBE,direct;wf,34,1,0}
 {ibba,bonds=1}

 Variables initialized (895), CPU time= 0.01 sec
 Commands  initialized (725), CPU time= 0.01 sec, 591 directives.
 Default parameters read. Elapsed time= 0.08 sec

 Checking input...
 Passed
1


                                         ***  PROGRAM SYSTEM MOLPRO  ***
                                       Copyright, TTI GmbH Stuttgart, 2015
                                    Version 2099.9 linked May 26 2017 16:03:21


 **********************************************************************************************************************************
 LABEL *                                                                                 
  64 bit serial version                                                                  DATE: 08-Jun-17          TIME: 09:42:07  
 **********************************************************************************************************************************

 SHA1:             b4a5b34a9e711420743f49e6833241d17c61fb3c
 **********************************************************************************************************************************
 SETTING GEOMTYP        =    XYZ

 Variable memory set to  500000000 words,  buffer space 

 ZSYMEL=NOSYM

 SETTING BASIS          =    STO-3G


 Recomputing integrals since basis changed


 Using spherical harmonics

 Library entry C      S STO-3G               selected for orbital group  1
 Library entry C      P STO-3G               selected for orbital group  1
 Library entry O      S STO-3G               selected for orbital group  2
 Library entry O      P STO-3G               selected for orbital group  2
 Library entry H      S STO-3G               selected for orbital group  4


 PROGRAM * SEWARD (Integral evaluation for generally contracted gaussian basis sets)     Author: Roland Lindh, 1990

 Geometry written to block  1 of record 700


 Point group  C1  



 ATOMIC COORDINATES

 NR  ATOM    CHARGE       X              Y              Z

   1  C       6.00    0.000000000    0.000000000    0.000000000
   2  O       8.00    0.000000000    0.000000000    2.663795740
   3  C       6.00    2.468133497    0.000000000    3.699838088
   4  C       6.00    2.252950383    0.000000000    6.564020385
   5  H       1.00    4.132188528    0.000000000    7.432897560
   6  H       1.00   -1.973063047    0.000000000   -0.613669662
   7  H       1.00    0.946355946   -1.686901820   -0.775751471
   8  H       1.00    0.946355946    1.686901820   -0.775751471
   9  H       1.00    3.523110900   -1.676716196    3.043517307
  10  H       1.00    3.523110900    1.676716196    3.043517307
  11  H       1.00    1.227962933   -1.675998100    7.212574391
  12  H       1.00    1.227962933    1.675998100    7.212574391

 Bond lengths in Bohr (Angstrom)

 1-2  2.663795740  1-6  2.066293358  1-7  2.083990804  1-8  2.083990804  2-3  2.676764223
     ( 1.409620000)     ( 1.093435356)     ( 1.102800441)     ( 1.102800441)     ( 1.416482626)

  3- 4  2.872254168   3- 9  2.086890388   3-10  2.086890388   4- 5  2.070382464   4-11  2.068862297
       ( 1.519931450)       ( 1.104334835)       ( 1.104334835)       ( 1.095599218)       ( 1.094794780)

  4-12  2.068862297
       ( 1.094794780)

 Bond angles

  1-2-3  112.77108340   2-1-6  107.27693969   2-1-7  111.85402987   2-1-8  111.85402987

  2- 3- 4  108.47458109   2- 3- 9  110.14508041   2- 3-10  110.14508041   3- 4- 5  110.51724552

  3- 4-11  110.47015208   3- 4-12  110.47015208   4- 3- 9  110.57823876   4- 3-10  110.57823876

  5- 4-11  108.55021133   5- 4-12  108.55021133   6- 1- 7  108.84842497   6- 1- 8  108.84842497

  7- 1- 8  108.08590744   9- 3-10  106.92203462  11- 4-12  108.21261054

 NUCLEAR CHARGE:                   34
 NUMBER OF PRIMITIVE AOS:          84
 NUMBER OF SYMMETRY AOS:           84
 NUMBER OF CONTRACTIONS:           28   (  28A   )
 NUMBER OF CORE ORBITALS:           4   (   4A   )
 NUMBER OF VALENCE ORBITALS:       24   (  24A   )


 NUCLEAR REPULSION ENERGY  133.31979421


 Eigenvalues of metric

         1 0.212E+00 0.234E+00 0.263E+00 0.352E+00 0.360E+00 0.368E+00 0.374E+00 0.394E+00


 Contracted 2-electron integrals neglected if value below      1.0D-11
 AO integral compression algorithm  1   Integral accuracy      1.0D-11

     0.786 MB (compressed) written to integral file ( 77.9%)


 NUMBER OF SORTED TWO-ELECTRON INTEGRALS:      82621.     BUFFER LENGTH:  32768
 NUMBER OF SEGMENTS:   1  SEGMENT LENGTH:      82621      RECORD LENGTH: 524288

 Memory used in sort:       0.64 MW

 SORT1 READ       95283. AND WROTE       67599. INTEGRALS IN      1 RECORDS. CPU TIME:     0.00 SEC, REAL TIME:     0.01 SEC
 SORT2 READ       67599. AND WROTE       82621. INTEGRALS IN      3 RECORDS. CPU TIME:     0.01 SEC, REAL TIME:     0.02 SEC

 FILE SIZES:   FILE 1:    31.0 MBYTE,  FILE 4:     4.2 MBYTE,   TOTAL:     35.2 MBYTE

 OPERATOR DM      FOR CENTER  0  COORDINATES:    0.000000    0.000000    0.000000


 **********************************************************************************************************************************
 DATASETS  * FILE   NREC   LENGTH (MB)   RECORD NAMES
              1      19       30.48       500      610      700      900      950      970     1000      129      960     1100   
                                          VAR    BASINP    GEOM    SYMINP    ZMAT    AOBASIS   BASIS     P2S    ABASIS      S 
                                         1400     1410     1200     1210     1080     1600     1650     1300     1700   
                                           T        V       H0       H01     AOSYM     SMH    MOLCAS    ERIS     OPER   

 PROGRAMS   *        TOTAL       INT
 CPU TIMES  *         0.46      0.32
 REAL TIME  *         0.83 SEC
 DISK USED  *        35.64 MB      
 **********************************************************************************************************************************

 Density functional group PBE=PBEX+PBEC
 Functional: PBEX(Automatically generated (new) PBEX)                          Gradient terms: 1
 Functional: PBEC(Automatically generated (new) PBEC)                          Gradient terms: 1
 Use grid at  1800.2

 Functional: PBEX                      Factor:  1.0000
 Functional: PBEC                      Factor:  1.0000

 Generated new metagrid on record  1800.2 with target accuracy 1.0D-06 and 44796 points in CPU time    1.2
 Computed new grid on record 1800.1 in CPU time    1.4
   26632 words reserved for DFT integration

 PROGRAM * RKS-SCF (Restricted closed shell Kohn-Sham)     Authors: W. Meyer, H.-J. Werner, P.J. Knowles, 1993

 NUMBER OF ELECTRONS:      17+   17-    SPACE SYMMETRY=1    SPIN SYMMETRY: Singlet 
 CONVERGENCE THRESHOLDS:    1.00E-05 (Density)    1.00E-06 (Energy)
 MAX. NUMBER OF ITERATIONS:       60
 INTERPOLATION TYPE:            DIIS
 INTERPOLATION STEPS:              2 (START)      1 (STEP)
 LEVEL SHIFTS:                  0.00 (CLOSED)  0.00 (OPEN) 



 Use fine grid record 1800.2 for energy threshold  1.0D-06
 Orbital guess generated from atomic densities. Full valence occupancy:   17

 Molecular orbital dump at record        2100.2

 Initial occupancy:  17

 ITERATION    DDIFF          GRAD             ENERGY        2-EL.EN.            DIPOLE MOMENTS         DIIS   ORB.
    1      0.000D+00      0.000D+00      -191.41863510    465.446684    0.98946   -0.00000   -0.60876    0    start
    2      0.000D+00      0.280D-01      -191.36440274    443.329088   -0.65718   -0.00000    0.70701    1    diag
    3      0.108D+00      0.325D-01      -191.62082335    454.201096    0.47193   -0.00000   -0.24841    2    diag
    4      0.599D-01      0.513D-02      -191.62626941    454.457869    0.32168   -0.00000   -0.14767    3    diag
    5      0.944D-02      0.116D-02      -191.62655350    454.418339    0.33758   -0.00000   -0.14773    4    diag
    6      0.177D-02      0.122D-03      -191.62655704    454.418865    0.33933   -0.00000   -0.15127    5    diag
    7      0.273D-03      0.408D-04      -191.62655744    454.419930    0.34067   -0.00000   -0.15171    6    diag
    8      0.707D-04      0.217D-05      -191.62655744    454.420215    0.34055   -0.00000   -0.15181    7    diag
    9      0.532D-05      0.667D-06      -191.62655744    454.420285    0.34056   -0.00000   -0.15180    0    orth

 Final occupancy:  17

 !RKS STATE 1.1 Energy               -191.626557441588
 Nuclear energy                       133.31979421
 One-electron energy                 -524.50268668
 Two-electron energy                  227.21014230
 Density functional                   -27.65380728     PBEX=-26.51568292 PBEC= -1.13812436
 Virial quotient                       -1.01510432
 !RKS STATE 1.1 Dipole moment           0.34056488    -0.00000000    -0.15180326
 Dipole moment /Debye                   0.86557289    -0.00000000    -0.38582013

 Orbital energies:

         1.1          2.1          3.1          4.1          5.1          6.1          7.1          8.1          9.1         10.1
    -18.501041    -9.757455    -9.749953    -9.711618    -0.879923    -0.647755    -0.564834    -0.500747    -0.381479    -0.380532

        11.1         12.1         13.1         14.1         15.1         16.1         17.1         18.1         19.1
     -0.351400    -0.331011    -0.297663    -0.272200    -0.269215    -0.151904    -0.072611     0.254553     0.346472

 HOMO     17.1    -0.072611 =      -1.9758eV
 LUMO     18.1     0.254553 =       6.9267eV
 LUMO-HOMO         0.327164 =       8.9026eV


 **********************************************************************************************************************************
 DATASETS  * FILE   NREC   LENGTH (MB)   RECORD NAMES
              1      20       31.92       500      610      700      900      950      970     1000      129      960     1100   
                                          VAR    BASINP    GEOM    SYMINP    ZMAT    AOBASIS   BASIS     P2S    ABASIS      S 
                                         1400     1410     1200     1210     1080     1600     1650     1300     1700     1800   
                                           T        V       H0       H01     AOSYM     SMH    MOLCAS    ERIS     OPER     GRID   

              2       5        2.96       700     1000      520     1800     2100   
                                         GEOM     BASIS   MCVARS    GRID      RKS  

 PROGRAMS   *        TOTAL        KS       INT
 CPU TIMES  *         3.68      3.22      0.32
 REAL TIME  *         4.17 SEC
 DISK USED  *        35.64 MB      
 **********************************************************************************************************************************


 PROGRAM * Intrinsic Basis Bonding Analysis (IBBA)          Author: G. Knizia

 Molecular orbitals read from record     2100.2  Type=RKS/CANONICAL (state 1.1)
 Fock matrix read from record            2100.2  Type=RKS/TOTAL (state 1.1)
 Orbital energies read from record       2100.2  Type=RKS/CANONICAL (state 1.1)
 Density matrix read from record         2100.2  Type=RKS/CHARGE (state 1.1)

 Number of core orbitals:           4 (   4 )
 Number of closed-shell orbitals:  13 (  13 )

 Basis set MINAO-AUTO-PP generated.      Number of basis functions:   28 

 Polarized AO type:                A = (O Ot + (1-O)(1-Ot)) P12
 Orthogonalization method:         Symmetric (Loewdin)
 Localization functional:          L = sum[A,i] <i|n_A|i>^4 -> max

 Localization group 1:  17 orbitals, occupancy  2.000
 Iterative localization: IB/PM,    7 iter; Final gradient 0.58E-09

 Bond order analysis:       [THRPRINT= 0.020]

   CEN ATOM   CEN ATOM     WIBERG.BO      RENORM.BO
     1   C  -   2   O       1.024663       1.020180
     1   C  -   6   H       0.953954       0.972697
     1   C  -   7   H       0.948688       0.938954
     1   C  -   8   H       0.948688       0.938954

     2   O  -   1   C       1.024663       1.020180
     2   O  -   3   C       1.006965       0.997664
     2   O  -   8   H       0.033715       0.020213
     2   O  -   7   H       0.033715       0.020213
     2   O  -  10   H       0.031000       0.018621
     2   O  -   9   H       0.031000       0.018621

     3   C  -   4   C       1.017456       1.008393
     3   C  -   2   O       1.006965       0.997664
     3   C  -   9   H       0.938106       0.928762
     3   C  -  10   H       0.938106       0.928762

     4   C  -   3   C       1.017456       1.008393
     4   C  -   5   H       0.962305       0.991268
     4   C  -  12   H       0.960809       0.986081
     4   C  -  11   H       0.960809       0.986081

     5   H  -   4   C       0.962305       0.991268

     6   H  -   1   C       0.953954       0.972697

     7   H  -   1   C       0.948688       0.938954
     7   H  -   2   O       0.033715       0.020213

     8   H  -   1   C       0.948688       0.938954
     8   H  -   2   O       0.033715       0.020213

     9   H  -   3   C       0.938106       0.928762
     9   H  -   2   O       0.031000       0.018621

    10   H  -   3   C       0.938106       0.928762
    10   H  -   2   O       0.031000       0.018621

    11   H  -   4   C       0.960809       0.986081

    12   H  -   4   C       0.960809       0.986081


 Valency analysis:

   CEN ATOM   TOT.VALENCE
     1   C       3.897396
     2   O       2.191172
     3   C       3.924958
     4   C       3.928257
     5   H       0.980218
     6   H       0.979570
     7   H       0.986808
     8   H       0.986808
     9   H       0.987235
    10   H       0.987235
    11   H       0.979936
    12   H       0.979936

 Total charge composition:

   CEN ATOM         s          p       ELECTRONS ->P.CHARGE
     1   C       3.01112    3.26304      6.27416   -0.27416
     2   O       3.65521    4.54984      8.20504   -0.20504
     3   C       2.98766    3.14908      6.13674   -0.13674
     4   C       2.99830    3.40830      6.40660   -0.40660
     5   H       0.85935                 0.85935    0.14065
     6   H       0.85707                 0.85707    0.14293
     7   H       0.88514                 0.88514    0.11486
     8   H       0.88514                 0.88514    0.11486
     9   H       0.88702                 0.88702    0.11298
    10   H       0.88702                 0.88702    0.11298
    11   H       0.85835                 0.85835    0.14165
    12   H       0.85835                 0.85835    0.14165

 Total charge composition, AO contributions:

   CEN ATOM SHL      SPHERICAL COMPONENTS
     1   C  1s       1.99267
     1   C  2s       1.01845
     1   C  2p       1.19144    1.18235    0.88925

     2   O  1s       1.99733
     2   O  2s       1.65787
     2   O  2p       1.39533    1.90120    1.25331

     3   C  1s       1.99288
     3   C  2s       0.99477
     3   C  2p       0.92727    1.17838    1.04344

     4   C  1s       1.99200
     4   C  2s       1.00630
     4   C  2p       1.17405    1.17994    1.05431

     5   H  1s       0.85935

     6   H  1s       0.85707

     7   H  1s       0.88514

     8   H  1s       0.88514

     9   H  1s       0.88702

    10   H  1s       0.88702

    11   H  1s       0.85835

    12   H  1s       0.85835

 Summary of localized orbital composition:   [THRPRINT= 0.020]

   ORB  GRP  ORB.ENERGY      CENTERS/CHARGES
     1   1   -18.346348      O  2   2.000
     2   1    -9.656514      C  3   2.000
     3   1    -9.645180      C  1   2.000
     4   1    -9.601306      C  4   2.000
     5   1    -0.599832      O  2   1.163   C  1   0.826
     6   1    -0.589844      O  2   1.166   C  3   0.820
     7   1    -0.484138      C  3   1.006   C  4   0.983
     8   1    -0.431578      C  1   1.144   H  6   0.847
     9   1    -0.428177      C  1   1.134   H  8   0.865
    10   1    -0.428177      C  1   1.134   H  7   0.865
    11   1    -0.425152      C  3   1.129   H  9   0.863
    12   1    -0.425152      C  3   1.129   H 10   0.863
    13   1    -0.422866      O  2   1.969   (other: 0.031)
    14   1    -0.415004      C  4   1.135   H  5   0.853
    15   1    -0.408627      C  4   1.138   H 11   0.852
    16   1    -0.408627      C  4   1.138   H 12   0.852
    17   1    -0.104819      O  2   1.901   (other: 0.099)

 Localized orbitals saved to record      2100.2  (orbital set 2)


 **********************************************************************************************************************************
 DATASETS  * FILE   NREC   LENGTH (MB)   RECORD NAMES
              1      20       31.92       500      610      700      900      950      970     1000      129      960     1100   
                                          VAR    BASINP    GEOM    SYMINP    ZMAT    AOBASIS   BASIS     P2S    ABASIS      S 
                                         1400     1410     1200     1210     1080     1600     1650     1300     1700     1800   
                                           T        V       H0       H01     AOSYM     SMH    MOLCAS    ERIS     OPER     GRID   

              2       5        2.97       700     1000      520     1800     2100   
                                         GEOM     BASIS   MCVARS    GRID      RKS  

 PROGRAMS   *        TOTAL      IBBA        KS       INT
 CPU TIMES  *         3.71      0.02      3.22      0.32
 REAL TIME  *         4.29 SEC
 DISK USED  *        35.64 MB      
 **********************************************************************************************************************************
 Molecular orbitals read from record     2100.2  Type=RKS/LOCAL(IBO)  
 Occupation numbers read from record     2100.2  Type=RKS/LOCAL(IBO)  
 Orbital energies read from record       2100.2  Type=RKS/LOCAL(IBO)  
 Redundancy group numbers read from rec  2100.2  Type=RKS/LOCAL(IBO)  

 IBBA/STO-3G energy=      0.000000000000

        KS-SCF  
   -191.62655744
 **********************************************************************************************************************************
 Molpro calculation terminated
