
 Primary working directories    : /tmp/sb13343
 Secondary working directories  : /tmp/sb13343
 Wavefunction directory         : /panfs/panasas01/chem/sb13343/wfu/
 Main file repository           : /tmp/sb13343/

 SHA1      : b4a5b34a9e711420743f49e6833241d17c61fb3c
 NAME      : 2099.9.b4a5b34
 ARCHNAME  : linux/x86_64_openmp
 FC        : /cm/shared/languages/GCC-6.1/bin/gfortran
 BLASLIB   : -lblas
 id        : simonbennie

 Nodes     nprocs
 node35-015    1

 Using customized tuning parameters: mindgm=1; mindgv=20; mindgc=4; mindgr=1; noblas=0; minvec=7
 default implementation of scratch files=df  

 memory,500,m
 geomtyp=xyz
 nosym
 noorient
 geometry={
 C          0.00000        0.00000        0.00000
 O          0.00000        0.00000        1.40962
 C          1.30608        0.00000        1.95787
 C          1.19221        0.00000        3.47353
 H          2.18666        0.00000        3.93332
 H         -1.04410        0.00000       -0.32474
 H          0.50079       -0.89267       -0.41051
 H          0.50079        0.89267       -0.41051
 H          1.86435       -0.88728        1.61056
 H          1.86435        0.88728        1.61056
 H          0.64981       -0.88690        3.81673
 H          0.64981        0.88690        3.81673
 }
 basis={ default,svp }
 {ks,M06-HF,direct;wf,34,1,0}
 {ibba,bonds=1}

 Variables initialized (895), CPU time= 0.01 sec
 Commands  initialized (725), CPU time= 0.01 sec, 591 directives.
 Default parameters read. Elapsed time= 0.23 sec

 Checking input...
 Passed
1


                                         ***  PROGRAM SYSTEM MOLPRO  ***
                                       Copyright, TTI GmbH Stuttgart, 2015
                                    Version 2099.9 linked May 26 2017 16:03:21


 **********************************************************************************************************************************
 LABEL *                                                                                 
  64 bit serial version                                                                  DATE: 08-Jun-17          TIME: 10:15:11  
 **********************************************************************************************************************************

 SHA1:             b4a5b34a9e711420743f49e6833241d17c61fb3c
 **********************************************************************************************************************************
 SETTING GEOMTYP        =    XYZ

 Variable memory set to  500000000 words,  buffer space 

 ZSYMEL=NOSYM

 SETTING BASIS          =    SVP


 Recomputing integrals since basis changed


 Using spherical harmonics

 Library entry C      S def2-SVP             selected for orbital group  1
 Library entry C      P def2-SVP             selected for orbital group  1
 Library entry C      D def2-SVP             selected for orbital group  1
 Library entry O      S def2-SVP             selected for orbital group  2
 Library entry O      P def2-SVP             selected for orbital group  2
 Library entry O      D def2-SVP             selected for orbital group  2
 Library entry H      S def2-SVP             selected for orbital group  4
 Library entry H      P def2-SVP             selected for orbital group  4


 PROGRAM * SEWARD (Integral evaluation for generally contracted gaussian basis sets)     Author: Roland Lindh, 1990

 Geometry written to block  1 of record 700


 Point group  C1  



 ATOMIC COORDINATES

 NR  ATOM    CHARGE       X              Y              Z

   1  C       6.00    0.000000000    0.000000000    0.000000000
   2  O       8.00    0.000000000    0.000000000    2.663795740
   3  C       6.00    2.468133497    0.000000000    3.699838088
   4  C       6.00    2.252950383    0.000000000    6.564020385
   5  H       1.00    4.132188528    0.000000000    7.432897560
   6  H       1.00   -1.973063047    0.000000000   -0.613669662
   7  H       1.00    0.946355946   -1.686901820   -0.775751471
   8  H       1.00    0.946355946    1.686901820   -0.775751471
   9  H       1.00    3.523110900   -1.676716196    3.043517307
  10  H       1.00    3.523110900    1.676716196    3.043517307
  11  H       1.00    1.227962933   -1.675998100    7.212574391
  12  H       1.00    1.227962933    1.675998100    7.212574391

 Bond lengths in Bohr (Angstrom)

 1-2  2.663795740  1-6  2.066293358  1-7  2.083990804  1-8  2.083990804  2-3  2.676764223
     ( 1.409620000)     ( 1.093435356)     ( 1.102800441)     ( 1.102800441)     ( 1.416482626)

  3- 4  2.872254168   3- 9  2.086890388   3-10  2.086890388   4- 5  2.070382464   4-11  2.068862297
       ( 1.519931450)       ( 1.104334835)       ( 1.104334835)       ( 1.095599218)       ( 1.094794780)

  4-12  2.068862297
       ( 1.094794780)

 Bond angles

  1-2-3  112.77108340   2-1-6  107.27693969   2-1-7  111.85402987   2-1-8  111.85402987

  2- 3- 4  108.47458109   2- 3- 9  110.14508041   2- 3-10  110.14508041   3- 4- 5  110.51724552

  3- 4-11  110.47015208   3- 4-12  110.47015208   4- 3- 9  110.57823876   4- 3-10  110.57823876

  5- 4-11  108.55021133   5- 4-12  108.55021133   6- 1- 7  108.84842497   6- 1- 8  108.84842497

  7- 1- 8  108.08590744   9- 3-10  106.92203462  11- 4-12  108.21261054

 NUCLEAR CHARGE:                   34
 NUMBER OF PRIMITIVE AOS:         156
 NUMBER OF SYMMETRY AOS:          152
 NUMBER OF CONTRACTIONS:           96   (  96A   )
 NUMBER OF CORE ORBITALS:           4   (   4A   )
 NUMBER OF VALENCE ORBITALS:       24   (  24A   )


 NUCLEAR REPULSION ENERGY  133.31979421


 Eigenvalues of metric

         1 0.364E-02 0.952E-02 0.147E-01 0.282E-01 0.312E-01 0.319E-01 0.432E-01 0.449E-01


 Contracted 2-electron integrals neglected if value below      1.0D-11
 AO integral compression algorithm  1   Integral accuracy      1.0D-11

     37.487 MB (compressed) written to integral file ( 40.8%)


 NUMBER OF SORTED TWO-ELECTRON INTEGRALS:   10841496.     BUFFER LENGTH:  32768
 NUMBER OF SEGMENTS:   1  SEGMENT LENGTH:   10841496      RECORD LENGTH: 524288

 Memory used in sort:      11.40 MW

 SORT1 READ    11483613. AND WROTE     8333550. INTEGRALS IN     24 RECORDS. CPU TIME:     0.13 SEC, REAL TIME:     0.28 SEC
 SORT2 READ     8333550. AND WROTE    10841496. INTEGRALS IN    143 RECORDS. CPU TIME:     0.27 SEC, REAL TIME:     0.36 SEC

 FILE SIZES:   FILE 1:    68.0 MBYTE,  FILE 4:   100.7 MBYTE,   TOTAL:    168.7 MBYTE

 OPERATOR DM      FOR CENTER  0  COORDINATES:    0.000000    0.000000    0.000000


 **********************************************************************************************************************************
 DATASETS  * FILE   NREC   LENGTH (MB)   RECORD NAMES
              1      19       62.89       500      610      700      900      950      970     1000      129      960     1100   
                                          VAR    BASINP    GEOM    SYMINP    ZMAT    AOBASIS   BASIS     P2S    ABASIS      S 
                                         1400     1410     1200     1210     1080     1600     1650     1300     1700   
                                           T        V       H0       H01     AOSYM     SMH    MOLCAS    ERIS     OPER   

 PROGRAMS   *        TOTAL       INT
 CPU TIMES  *         1.91      1.76
 REAL TIME  *         4.34 SEC
 DISK USED  *       169.15 MB      
 **********************************************************************************************************************************

 Density functional group M06-HF=XC-M06-HF
 Functional: XC-M06-HF(via MFM 1.6)                                            Gradient terms: 1
 Use grid at  1800.2


 Exact exchange will be calculated, factor:  1.0000

 Functional: XC-M06-HF                 Factor:  1.0000

 Generated new metagrid on record  1800.2 with target accuracy 1.0D-06 and 44796 points in CPU time    1.2
 Computed new grid on record 1800.1 in CPU time    1.3
   80368 words reserved for DFT integration

 PROGRAM * RKS-SCF (Restricted closed shell Kohn-Sham)     Authors: W. Meyer, H.-J. Werner, P.J. Knowles, 1993

 NUMBER OF ELECTRONS:      17+   17-    SPACE SYMMETRY=1    SPIN SYMMETRY: Singlet 
 CONVERGENCE THRESHOLDS:    1.00E-05 (Density)    1.00E-06 (Energy)
 MAX. NUMBER OF ITERATIONS:       60
 INTERPOLATION TYPE:            DIIS
 INTERPOLATION STEPS:              2 (START)      1 (STEP)
 LEVEL SHIFTS:                  0.00 (CLOSED)  0.00 (OPEN) 



 Use fine grid record 1800.2 for energy threshold  1.0D-06
 Orbital guess generated from atomic densities. Full valence occupancy:   17

 Molecular orbital dump at record        2100.2

 Initial occupancy:  17

 ITERATION    DDIFF          GRAD             ENERGY        2-EL.EN.            DIPOLE MOMENTS         DIIS   ORB.
    1      0.000D+00      0.000D+00      -194.06372481    401.936513    0.74512    0.00000   -0.44809    0    start
    2      0.000D+00      0.576D-02      -194.10449947    398.195872    0.33887    0.00000   -0.21071    1    diag
    3      0.651D-02      0.322D-02      -194.11522237    400.152165    0.51095    0.00000   -0.33183    2    diag
    4      0.267D-02      0.101D-02      -194.11647134    399.791936    0.47595    0.00000   -0.31601    3    diag
    5      0.907D-03      0.280D-03      -194.11658229    399.796593    0.48001    0.00000   -0.31526    4    diag
    6      0.295D-03      0.673D-04      -194.11658888    399.796639    0.47791    0.00000   -0.31583    5    diag
    7      0.687D-04      0.103D-04      -194.11658915    399.798012    0.47812    0.00000   -0.31576    6    diag
    8      0.192D-04      0.259D-05      -194.11658916    399.797187    0.47796    0.00000   -0.31576    7    diag
    9      0.418D-05      0.882D-06      -194.11658917    399.797553    0.47796    0.00000   -0.31574    0    orth

 Final occupancy:  17

 !RKS STATE 1.1 Energy               -194.116589165181
 Nuclear energy                       133.31979421
 One-electron energy                 -526.16719915
 Two-electron energy                  199.89877660
 SCF exchange energy                  -26.57841780     Factor= 1.0000
 Density functional                    -1.16796082     XC-M06-HF=-1.16796082
 Virial quotient                       -1.01138035
 !RKS STATE 1.1 Dipole moment           0.47795765     0.00000000    -0.31574106
 Dipole moment /Debye                   1.21476762     0.00000000    -0.80248115

 Orbital energies:

         1.1          2.1          3.1          4.1          5.1          6.1          7.1          8.1          9.1         10.1
    -20.200579   -11.021635   -11.021402   -10.966975    -1.248675    -0.960071    -0.860867    -0.787190    -0.658084    -0.647009

        11.1         12.1         13.1         14.1         15.1         16.1         17.1         18.1         19.1
     -0.616410    -0.577970    -0.531162    -0.501550    -0.501200    -0.467829    -0.415169     0.126537     0.150052

 HOMO     17.1    -0.415169 =     -11.2973eV
 LUMO     18.1     0.126537 =       3.4432eV
 LUMO-HOMO         0.541706 =      14.7406eV


 **********************************************************************************************************************************
 DATASETS  * FILE   NREC   LENGTH (MB)   RECORD NAMES
              1      20       64.33       500      610      700      900      950      970     1000      129      960     1100   
                                          VAR    BASINP    GEOM    SYMINP    ZMAT    AOBASIS   BASIS     P2S    ABASIS      S 
                                         1400     1410     1200     1210     1080     1600     1650     1300     1700     1800   
                                           T        V       H0       H01     AOSYM     SMH    MOLCAS    ERIS     OPER     GRID   

              2       5        3.14       700     1000      520     1800     2100   
                                         GEOM     BASIS   MCVARS    GRID      RKS  

 PROGRAMS   *        TOTAL        KS       INT
 CPU TIMES  *        20.17     18.26      1.76
 REAL TIME  *        26.68 SEC
 DISK USED  *       169.15 MB      
 **********************************************************************************************************************************


 PROGRAM * Intrinsic Basis Bonding Analysis (IBBA)          Author: G. Knizia

 Molecular orbitals read from record     2100.2  Type=RKS/CANONICAL (state 1.1)
 Fock matrix read from record            2100.2  Type=RKS/TOTAL (state 1.1)
 Orbital energies read from record       2100.2  Type=RKS/CANONICAL (state 1.1)
 Density matrix read from record         2100.2  Type=RKS/CHARGE (state 1.1)

 Number of core orbitals:           4 (   4 )
 Number of closed-shell orbitals:  13 (  13 )

 Basis set MINAO-AUTO-PP generated.      Number of basis functions:   28 

 Polarized AO type:                A = (O Ot + (1-O)(1-Ot)) P12
 Orthogonalization method:         Symmetric (Loewdin)
 Localization functional:          L = sum[A,i] <i|n_A|i>^4 -> max

 Localization group 1:  17 orbitals, occupancy  2.000
 Iterative localization: IB/PM,    7 iter; Final gradient 0.24E-09

 Bond order analysis:       [THRPRINT= 0.020]

   CEN ATOM   CEN ATOM     WIBERG.BO      RENORM.BO
     1   C  -   2   O       0.978156       1.014795
     1   C  -   6   H       0.961998       0.981645
     1   C  -   7   H       0.957853       0.952123
     1   C  -   8   H       0.957853       0.952123

     2   O  -   1   C       0.978156       1.014795
     2   O  -   3   C       0.962775       0.991310
     2   O  -   7   H       0.026165       0.015343
     2   O  -   8   H       0.026165       0.015343
     2   O  -  10   H       0.023764       0.013978
     2   O  -   9   H       0.023764       0.013978

     3   C  -   4   C       1.019875       1.014731
     3   C  -   2   O       0.962775       0.991310
     3   C  -   9   H       0.947412       0.942751
     3   C  -  10   H       0.947412       0.942751

     4   C  -   3   C       1.019875       1.014731
     4   C  -   5   H       0.965296       0.990645
     4   C  -  11   H       0.962307       0.985822
     4   C  -  12   H       0.962307       0.985822

     5   H  -   4   C       0.965296       0.990645

     6   H  -   1   C       0.961998       0.981645

     7   H  -   1   C       0.957853       0.952123
     7   H  -   2   O       0.026165       0.015343

     8   H  -   1   C       0.957853       0.952123
     8   H  -   2   O       0.026165       0.015343

     9   H  -   3   C       0.947412       0.942751
     9   H  -   2   O       0.023764       0.013978

    10   H  -   3   C       0.947412       0.942751
    10   H  -   2   O       0.023764       0.013978

    11   H  -   4   C       0.962307       0.985822

    12   H  -   4   C       0.962307       0.985822


 Valency analysis:

   CEN ATOM   TOT.VALENCE
     1   C       3.871759
     2   O       2.069688
     3   C       3.896986
     4   C       3.933809
     5   H       0.983676
     6   H       0.979753
     7   H       0.988263
     8   H       0.988263
     9   H       0.988558
    10   H       0.988558
    11   H       0.981504
    12   H       0.981504

 Total charge composition:

   CEN ATOM         s          p       ELECTRONS ->P.CHARGE
     1   C       2.99191    3.16895      6.16085   -0.16085
     2   O       3.55269    4.85015      8.40284   -0.40284
     3   C       2.96252    3.06705      6.02957   -0.02957
     4   C       2.99045    3.38896      6.37940   -0.37940
     5   H       0.87223                 0.87223    0.12777
     6   H       0.85771                 0.85771    0.14229
     7   H       0.89166                 0.89166    0.10834
     8   H       0.89166                 0.89166    0.10834
     9   H       0.89303                 0.89303    0.10697
    10   H       0.89303                 0.89303    0.10697
    11   H       0.86400                 0.86400    0.13600
    12   H       0.86400                 0.86400    0.13600

 Total charge composition, AO contributions:

   CEN ATOM SHL      SPHERICAL COMPONENTS
     1   C  1s       1.99107
     1   C  2s       1.00083
     1   C  2p       1.18660    1.16494    0.81740

     2   O  1s       1.99690
     2   O  2s       1.55579
     2   O  2p       1.54217    1.93072    1.37726

     3   C  1s       1.99134
     3   C  2s       0.97118
     3   C  2p       0.86727    1.16573    1.03406

     4   C  1s       1.99031
     4   C  2s       1.00014
     4   C  2p       1.16569    1.17759    1.04567

     5   H  1s       0.87223

     6   H  1s       0.85771

     7   H  1s       0.89166

     8   H  1s       0.89166

     9   H  1s       0.89303

    10   H  1s       0.89303

    11   H  1s       0.86400

    12   H  1s       0.86400

 Summary of localized orbital composition:   [THRPRINT= 0.020]

   ORB  GRP  ORB.ENERGY      CENTERS/CHARGES
     1   1   -20.053430      O  2   2.000
     2   1   -10.912230      C  3   2.000
     3   1   -10.906846      C  1   2.000
     4   1   -10.846196      C  4   2.000
     5   1    -0.958844      O  2   1.248   C  1   0.745
     6   1    -0.949001      O  2   1.254   C  3   0.736
     7   1    -0.742809      C  3   1.011   C  4   0.981
     8   1    -0.715462      O  2   1.968   (other: 0.032)
     9   1    -0.689327      C  1   1.122   H  7   0.876
    10   1    -0.689327      C  1   1.122   H  8   0.876
    11   1    -0.687308      C  1   1.144   H  6   0.851
    12   1    -0.684697      C  3   1.118   H  9   0.874
    13   1    -0.684697      C  3   1.118   H 10   0.874
    14   1    -0.663214      C  4   1.121   H  5   0.866
    15   1    -0.657016      C  4   1.133   H 12   0.858
    16   1    -0.657016      C  4   1.133   H 11   0.858
    17   1    -0.486360      O  2   1.931   (other: 0.069)

 Localized orbitals saved to record      2100.2  (orbital set 2)


 **********************************************************************************************************************************
 DATASETS  * FILE   NREC   LENGTH (MB)   RECORD NAMES
              1      20       64.33       500      610      700      900      950      970     1000      129      960     1100   
                                          VAR    BASINP    GEOM    SYMINP    ZMAT    AOBASIS   BASIS     P2S    ABASIS      S 
                                         1400     1410     1200     1210     1080     1600     1650     1300     1700     1800   
                                           T        V       H0       H01     AOSYM     SMH    MOLCAS    ERIS     OPER     GRID   

              2       5        3.21       700     1000      520     1800     2100   
                                         GEOM     BASIS   MCVARS    GRID      RKS  

 PROGRAMS   *        TOTAL      IBBA        KS       INT
 CPU TIMES  *        20.20      0.03     18.26      1.76
 REAL TIME  *        26.86 SEC
 DISK USED  *       169.15 MB      
 **********************************************************************************************************************************
 Molecular orbitals read from record     2100.2  Type=RKS/LOCAL(IBO)  
 Occupation numbers read from record     2100.2  Type=RKS/LOCAL(IBO)  
 Orbital energies read from record       2100.2  Type=RKS/LOCAL(IBO)  
 Redundancy group numbers read from rec  2100.2  Type=RKS/LOCAL(IBO)  

 IBBA/SVP energy=      0.000000000000

        KS-SCF  
   -194.11658917
 **********************************************************************************************************************************
 Molpro calculation terminated
