
 Primary working directories    : /tmp/sb13343
 Secondary working directories  : /tmp/sb13343
 Wavefunction directory         : /panfs/panasas01/chem/sb13343/wfu/
 Main file repository           : /tmp/sb13343/

 SHA1      : b4a5b34a9e711420743f49e6833241d17c61fb3c
 NAME      : 2099.9.b4a5b34
 ARCHNAME  : linux/x86_64_openmp
 FC        : /cm/shared/languages/GCC-6.1/bin/gfortran
 BLASLIB   : -lblas
 id        : simonbennie

 Nodes     nprocs
 node32-020    1

 Using customized tuning parameters: mindgm=1; mindgv=20; mindgc=4; mindgr=1; noblas=0; minvec=7
 default implementation of scratch files=df  

 memory,500,m
 geomtyp=xyz
 nosym
 noorient
 geometry={
 C          0.00000        0.00000        0.00000
 O          0.00000        0.00000        1.40962
 C          1.30608        0.00000        1.95787
 C          1.19221        0.00000        3.47353
 H          2.18666        0.00000        3.93332
 H         -1.04410        0.00000       -0.32474
 H          0.50079       -0.89267       -0.41051
 H          0.50079        0.89267       -0.41051
 H          1.86435       -0.88728        1.61056
 H          1.86435        0.88728        1.61056
 H          0.64981       -0.88690        3.81673
 H          0.64981        0.88690        3.81673
 }
 basis={ default,sto-3g }
 {uks,B3LYP3,direct;wf,34,1,0}
 {ibba,bonds=1}

 Variables initialized (895), CPU time= 0.01 sec
 Commands  initialized (725), CPU time= 0.01 sec, 591 directives.
 Default parameters read. Elapsed time= 0.08 sec

 Checking input...
 Passed
1


                                         ***  PROGRAM SYSTEM MOLPRO  ***
                                       Copyright, TTI GmbH Stuttgart, 2015
                                    Version 2099.9 linked May 26 2017 16:03:21


 **********************************************************************************************************************************
 LABEL *                                                                                 
  64 bit serial version                                                                  DATE: 08-Jun-17          TIME: 09:52:47  
 **********************************************************************************************************************************

 SHA1:             b4a5b34a9e711420743f49e6833241d17c61fb3c
 **********************************************************************************************************************************
 SETTING GEOMTYP        =    XYZ

 Variable memory set to  500000000 words,  buffer space 

 ZSYMEL=NOSYM

 SETTING BASIS          =    STO-3G


 Recomputing integrals since basis changed


 Using spherical harmonics

 Library entry C      S STO-3G               selected for orbital group  1
 Library entry C      P STO-3G               selected for orbital group  1
 Library entry O      S STO-3G               selected for orbital group  2
 Library entry O      P STO-3G               selected for orbital group  2
 Library entry H      S STO-3G               selected for orbital group  4


 PROGRAM * SEWARD (Integral evaluation for generally contracted gaussian basis sets)     Author: Roland Lindh, 1990

 Geometry written to block  1 of record 700


 Point group  C1  



 ATOMIC COORDINATES

 NR  ATOM    CHARGE       X              Y              Z

   1  C       6.00    0.000000000    0.000000000    0.000000000
   2  O       8.00    0.000000000    0.000000000    2.663795740
   3  C       6.00    2.468133497    0.000000000    3.699838088
   4  C       6.00    2.252950383    0.000000000    6.564020385
   5  H       1.00    4.132188528    0.000000000    7.432897560
   6  H       1.00   -1.973063047    0.000000000   -0.613669662
   7  H       1.00    0.946355946   -1.686901820   -0.775751471
   8  H       1.00    0.946355946    1.686901820   -0.775751471
   9  H       1.00    3.523110900   -1.676716196    3.043517307
  10  H       1.00    3.523110900    1.676716196    3.043517307
  11  H       1.00    1.227962933   -1.675998100    7.212574391
  12  H       1.00    1.227962933    1.675998100    7.212574391

 Bond lengths in Bohr (Angstrom)

 1-2  2.663795740  1-6  2.066293358  1-7  2.083990804  1-8  2.083990804  2-3  2.676764223
     ( 1.409620000)     ( 1.093435356)     ( 1.102800441)     ( 1.102800441)     ( 1.416482626)

  3- 4  2.872254168   3- 9  2.086890388   3-10  2.086890388   4- 5  2.070382464   4-11  2.068862297
       ( 1.519931450)       ( 1.104334835)       ( 1.104334835)       ( 1.095599218)       ( 1.094794780)

  4-12  2.068862297
       ( 1.094794780)

 Bond angles

  1-2-3  112.77108340   2-1-6  107.27693969   2-1-7  111.85402987   2-1-8  111.85402987

  2- 3- 4  108.47458109   2- 3- 9  110.14508041   2- 3-10  110.14508041   3- 4- 5  110.51724552

  3- 4-11  110.47015208   3- 4-12  110.47015208   4- 3- 9  110.57823876   4- 3-10  110.57823876

  5- 4-11  108.55021133   5- 4-12  108.55021133   6- 1- 7  108.84842497   6- 1- 8  108.84842497

  7- 1- 8  108.08590744   9- 3-10  106.92203462  11- 4-12  108.21261054

 NUCLEAR CHARGE:                   34
 NUMBER OF PRIMITIVE AOS:          84
 NUMBER OF SYMMETRY AOS:           84
 NUMBER OF CONTRACTIONS:           28   (  28A   )
 NUMBER OF CORE ORBITALS:           4   (   4A   )
 NUMBER OF VALENCE ORBITALS:       24   (  24A   )


 NUCLEAR REPULSION ENERGY  133.31979421


 Eigenvalues of metric

         1 0.212E+00 0.234E+00 0.263E+00 0.352E+00 0.360E+00 0.368E+00 0.374E+00 0.394E+00


 Contracted 2-electron integrals neglected if value below      1.0D-11
 AO integral compression algorithm  1   Integral accuracy      1.0D-11

     0.786 MB (compressed) written to integral file ( 77.9%)


 NUMBER OF SORTED TWO-ELECTRON INTEGRALS:      82621.     BUFFER LENGTH:  32768
 NUMBER OF SEGMENTS:   1  SEGMENT LENGTH:      82621      RECORD LENGTH: 524288

 Memory used in sort:       0.64 MW

 SORT1 READ       95283. AND WROTE       67599. INTEGRALS IN      1 RECORDS. CPU TIME:     0.00 SEC, REAL TIME:     0.01 SEC
 SORT2 READ       67599. AND WROTE       82621. INTEGRALS IN      3 RECORDS. CPU TIME:     0.01 SEC, REAL TIME:     0.02 SEC

 FILE SIZES:   FILE 1:    31.0 MBYTE,  FILE 4:     4.2 MBYTE,   TOTAL:     35.2 MBYTE

 OPERATOR DM      FOR CENTER  0  COORDINATES:    0.000000    0.000000    0.000000


 **********************************************************************************************************************************
 DATASETS  * FILE   NREC   LENGTH (MB)   RECORD NAMES
              1      19       30.48       500      610      700      900      950      970     1000      129      960     1100   
                                          VAR    BASINP    GEOM    SYMINP    ZMAT    AOBASIS   BASIS     P2S    ABASIS      S 
                                         1400     1410     1200     1210     1080     1600     1650     1300     1700   
                                           T        V       H0       H01     AOSYM     SMH    MOLCAS    ERIS     OPER   

 PROGRAMS   *        TOTAL       INT
 CPU TIMES  *         0.47      0.33
 REAL TIME  *         0.81 SEC
 DISK USED  *        35.64 MB      
 **********************************************************************************************************************************

 Density functional group B3LYP3=B88+DIRAC+LYP+VWN3
 Functional: B88(Automatically generated (new) B88)                            Gradient terms: 1
 Functional: DIRAC(Automatically generated (new) DIRAC)                        Gradient terms: 0
 Functional: LYP(Automatically generated (new) LYP)                            Gradient terms: 1
 Functional: VWN3(Automatically generated (new) VWN3)                          Gradient terms: 0
 Use grid at  1800.2


 Exact exchange will be calculated, factor:  0.2000

 Functional: B88                       Factor:  0.7200
 Functional: DIRAC                     Factor:  0.0800
 Functional: LYP                       Factor:  0.8100
 Functional: VWN3                      Factor:  0.1900

 Generated new metagrid on record  1800.2 with target accuracy 1.0D-06 and 44796 points in CPU time    1.2
 Computed new grid on record 1800.1 in CPU time    1.4
   26632 words reserved for DFT integration

 PROGRAM * UKS-SCF (Unrestricted Kohn-Sham)     Authors: W. Meyer, H.-J. Werner, P.J. Knowles, 1993

 NUMBER OF ELECTRONS:      17+   17-    SPACE SYMMETRY=1    SPIN SYMMETRY: Singlet 
 CONVERGENCE THRESHOLDS:    1.00E-05 (Density)    1.00E-06 (Energy)
 MAX. NUMBER OF ITERATIONS:       60
 INTERPOLATION TYPE:            DIIS
 INTERPOLATION STEPS:              2 (START)      1 (STEP)
 LEVEL SHIFTS:                 -0.20 (ALPHA)  -0.20 (BETA) 



 Use fine grid record 1800.2 for energy threshold  1.0D-06
 Orbital guess generated from atomic densities. Full valence occupancy:   17

 Molecular orbital dump at record        2200.2

 Initial alpha occupation  17
 Initial beta  occupation  17

 ITERATION    DDIFF          GRAD             ENERGY        2-EL.EN.            DIPOLE MOMENTS         DIIS
    1      0.000D+00      0.000D+00      -191.69965182    453.722362    1.01739   -0.00000   -0.61346    0
    2      0.513D-01      0.176D-01      -191.87751924    442.965355    0.25368   -0.00000   -0.09427    1
    3      0.529D-02      0.243D-02      -191.88026563    443.686723    0.35909   -0.00000   -0.16804    2
    4      0.146D-02      0.470D-03      -191.88043150    443.662625    0.35948   -0.00000   -0.16823    3
    5      0.601D-03      0.168D-03      -191.88045582    443.652473    0.36420   -0.00000   -0.17229    4
    6      0.185D-03      0.345D-04      -191.88045750    443.652216    0.36345   -0.00000   -0.17262    5
    7      0.481D-04      0.104D-04      -191.88045761    443.652745    0.36376   -0.00000   -0.17278    5
    8      0.118D-04      0.350D-05      -191.88045762    443.652254    0.36361   -0.00000   -0.17272    6
    9      0.207D-05      0.424D-06      -191.88045762    443.652383    0.36362   -0.00000   -0.17272    6
   10      0.386D-06      0.108D-06      -191.88045762    443.652326    0.36362   -0.00000   -0.17272    6

 Final alpha occupancy:  17
 Final beta  occupancy:  17

 !UKS STATE 1.1 Energy               -191.880457616719
 Nuclear energy                       133.31979421
 One-electron energy                 -524.46197197
 Two-electron energy                  221.82616289
 Density functional                   -22.56444274     B88=-26.67728639 DIRAC=-24.04539915 LYP= -1.10727332 VWN3= -2.82249062
 Virial quotient                       -1.01628626
 !UKS STATE 1.1 Dipole moment           0.36361917    -0.00000000    -0.17271610
 Dipole moment /Debye                   0.92416721    -0.00000000    -0.43897178

 Orbital energies for positive spin:

         1.1          2.1          3.1          4.1          5.1          6.1          7.1          8.1          9.1         10.1
    -18.878922   -10.056204   -10.049444   -10.008691    -0.969412    -0.721269    -0.633635    -0.566808    -0.437592    -0.431777

        11.1         12.1         13.1         14.1         15.1         16.1         17.1         18.1         19.1
     -0.405087    -0.384470    -0.347645    -0.319524    -0.318632    -0.206880    -0.134156     0.302316     0.396046

 Orbital energies for negative spin:

         1.1          2.1          3.1          4.1          5.1          6.1          7.1          8.1          9.1         10.1
    -18.878922   -10.056204   -10.049444   -10.008691    -0.969412    -0.721269    -0.633635    -0.566808    -0.437592    -0.431777

        11.1         12.1         13.1         14.1         15.1         16.1         17.1         18.1         19.1
     -0.405087    -0.384470    -0.347645    -0.319524    -0.318632    -0.206880    -0.134156     0.302316     0.396046

 HOMO     17.1    -0.134156 =      -3.6506eV
 LUMO     18.1     0.302316 =       8.2264eV
 LUMO-HOMO         0.436472 =      11.8770eV

 EXPECTATION VALUE OF S**2:             0.00000000

 Natural orbitals saved to record    2200.2 (Orbital set 3)

 Orbital spaces for UNO-CAS (Min. occupation: 0.020  Max. occupation: 1.980):

 Closed:       17
 Active:        0


 **********************************************************************************************************************************
 DATASETS  * FILE   NREC   LENGTH (MB)   RECORD NAMES
              1      20       31.92       500      610      700      900      950      970     1000      129      960     1100   
                                          VAR    BASINP    GEOM    SYMINP    ZMAT    AOBASIS   BASIS     P2S    ABASIS      S 
                                         1400     1410     1200     1210     1080     1600     1650     1300     1700     1800   
                                           T        V       H0       H01     AOSYM     SMH    MOLCAS    ERIS     OPER     GRID   

              2       5        2.98       700     1000      520     1800     2200   
                                         GEOM     BASIS   MCVARS    GRID      UKS  

 PROGRAMS   *        TOTAL       UKS       INT
 CPU TIMES  *         4.93      4.46      0.33
 REAL TIME  *         5.65 SEC
 DISK USED  *        35.64 MB      
 **********************************************************************************************************************************


 PROGRAM * Intrinsic Basis Bonding Analysis (IBBA)          Author: G. Knizia

 Molecular orbitals read from record     2200.2  Type=UKS/ALPHA (state 1.1)
 Fock matrix read from record            2200.2  Type=UKS/TOTAL (state 1.1)
 Orbital energies read from record       2200.2  Type=UKS/ALPHA (state 1.1)
 Density matrix read from record         2200.2  Type=UKS/CHARGE (state 1.1)

 Number of core orbitals:           4 (   4 )
 Number of closed-shell orbitals:  13 (  13 )

 Basis set MINAO-AUTO-PP generated.      Number of basis functions:   28 

 Polarized AO type:                A = (O Ot + (1-O)(1-Ot)) P12
 Orthogonalization method:         Symmetric (Loewdin)
 Localization functional:          L = sum[A,i] <i|n_A|i>^4 -> max

 Localization group 1:  17 orbitals, occupancy  2.000
 Iterative localization: IB/PM,    7 iter; Final gradient 0.53E-09

 Bond order analysis:       [THRPRINT= 0.020]

   CEN ATOM   CEN ATOM     WIBERG.BO      RENORM.BO
     1   C  -   2   O       1.017679       1.017660
     1   C  -   6   H       0.956789       0.975012
     1   C  -   7   H       0.953859       0.946622
     1   C  -   8   H       0.953859       0.946622

     2   O  -   1   C       1.017679       1.017660
     2   O  -   3   C       1.001444       0.997625
     2   O  -   8   H       0.029591       0.017597
     2   O  -   7   H       0.029591       0.017597
     2   O  -  10   H       0.027312       0.016268
     2   O  -   9   H       0.027312       0.016268

     3   C  -   4   C       1.016059       1.008524
     3   C  -   2   O       1.001444       0.997625
     3   C  -   9   H       0.943789       0.936536
     3   C  -  10   H       0.943789       0.936536

     4   C  -   3   C       1.016059       1.008524
     4   C  -   5   H       0.964997       0.991756
     4   C  -  12   H       0.962987       0.987064
     4   C  -  11   H       0.962987       0.987064

     5   H  -   4   C       0.964997       0.991756

     6   H  -   1   C       0.956789       0.975012

     7   H  -   1   C       0.953859       0.946622
     7   H  -   2   O       0.029591       0.017597

     8   H  -   1   C       0.953859       0.946622
     8   H  -   2   O       0.029591       0.017597

     9   H  -   3   C       0.943789       0.936536
     9   H  -   2   O       0.027312       0.016268

    10   H  -   3   C       0.943789       0.936536
    10   H  -   2   O       0.027312       0.016268

    11   H  -   4   C       0.962987       0.987064

    12   H  -   4   C       0.962987       0.987064


 Valency analysis:

   CEN ATOM   TOT.VALENCE
     1   C       3.902018
     2   O       2.159818
     3   C       3.927763
     4   C       3.931522
     5   H       0.981629
     6   H       0.980578
     7   H       0.987370
     8   H       0.987370
     9   H       0.987880
    10   H       0.987880
    11   H       0.981114
    12   H       0.981114

 Total charge composition:

   CEN ATOM         s          p       ELECTRONS ->P.CHARGE
     1   C       3.00600    3.24993      6.25593   -0.25593
     2   O       3.64989    4.57434      8.22423   -0.22423
     3   C       2.98317    3.13847      6.12164   -0.12164
     4   C       2.99461    3.39829      6.39289   -0.39289
     5   H       0.86446                 0.86446    0.13554
     6   H       0.86064                 0.86064    0.13936
     7   H       0.88761                 0.88761    0.11239
     8   H       0.88761                 0.88761    0.11239
     9   H       0.88991                 0.88991    0.11009
    10   H       0.88991                 0.88991    0.11009
    11   H       0.86257                 0.86257    0.13743
    12   H       0.86257                 0.86257    0.13743

 Total charge composition, AO contributions:

   CEN ATOM SHL      SPHERICAL COMPONENTS
     1   C  1s       1.99246
     1   C  2s       1.01354
     1   C  2p       1.18697    1.17501    0.88796

     2   O  1s       1.99728
     2   O  2s       1.65261
     2   O  2p       1.40332    1.91477    1.25625

     3   C  1s       1.99267
     3   C  2s       0.99050
     3   C  2p       0.92423    1.17132    1.04292

     4   C  1s       1.99178
     4   C  2s       1.00283
     4   C  2p       1.17009    1.17612    1.05208

     5   H  1s       0.86446

     6   H  1s       0.86064

     7   H  1s       0.88761

     8   H  1s       0.88761

     9   H  1s       0.88991

    10   H  1s       0.88991

    11   H  1s       0.86257

    12   H  1s       0.86257

 Summary of localized orbital composition:   [THRPRINT= 0.020]

   ORB  GRP  ORB.ENERGY      CENTERS/CHARGES
     1   1   -18.715821      O  2   2.000
     2   1    -9.952641      C  3   2.000
     3   1    -9.941989      C  1   2.000
     4   1    -9.895374      C  4   2.000
     5   1    -0.663510      O  2   1.164   C  1   0.826
     6   1    -0.653681      O  2   1.168   C  3   0.819
     7   1    -0.543176      C  3   1.007   C  4   0.982
     8   1    -0.501345      O  2   1.972   (other: 0.028)
     9   1    -0.489016      C  1   1.141   H  6   0.851
    10   1    -0.486711      C  1   1.129   H  7   0.870
    11   1    -0.486711      C  1   1.129   H  8   0.870
    12   1    -0.483404      C  3   1.124   H  9   0.869
    13   1    -0.483404      C  3   1.124   H 10   0.869
    14   1    -0.471488      C  4   1.131   H  5   0.858
    15   1    -0.465339      C  4   1.134   H 11   0.857
    16   1    -0.465339      C  4   1.134   H 12   0.857
    17   1    -0.171209      O  2   1.915   (other: 0.085)

 Localized orbitals saved to record      2200.2  (orbital set 4)


 **********************************************************************************************************************************
 DATASETS  * FILE   NREC   LENGTH (MB)   RECORD NAMES
              1      20       31.92       500      610      700      900      950      970     1000      129      960     1100   
                                          VAR    BASINP    GEOM    SYMINP    ZMAT    AOBASIS   BASIS     P2S    ABASIS      S 
                                         1400     1410     1200     1210     1080     1600     1650     1300     1700     1800   
                                           T        V       H0       H01     AOSYM     SMH    MOLCAS    ERIS     OPER     GRID   

              2       5        2.99       700     1000      520     1800     2200   
                                         GEOM     BASIS   MCVARS    GRID      UKS  

 PROGRAMS   *        TOTAL      IBBA       UKS       INT
 CPU TIMES  *         4.97      0.03      4.46      0.33
 REAL TIME  *         5.77 SEC
 DISK USED  *        35.64 MB      
 **********************************************************************************************************************************
 Molecular orbitals read from record     2200.2  Type=UKS/LOCAL(IBO)  
 Occupation numbers read from record     2200.2  Type=UKS/LOCAL(IBO)  
 Orbital energies read from record       2200.2  Type=UKS/LOCAL(IBO)  
 Redundancy group numbers read from rec  2200.2  Type=UKS/BETA (state 1.1)

 IBBA/STO-3G energy=      0.000000000000

        UKS-SCF 
   -191.88045762
 **********************************************************************************************************************************
 Molpro calculation terminated
