
 Primary working directories    : /tmp/sb13343
 Secondary working directories  : /tmp/sb13343
 Wavefunction directory         : /panfs/panasas01/chem/sb13343/wfu/
 Main file repository           : /tmp/sb13343/

 SHA1      : b4a5b34a9e711420743f49e6833241d17c61fb3c
 NAME      : 2099.9.b4a5b34
 ARCHNAME  : linux/x86_64_openmp
 FC        : /cm/shared/languages/GCC-6.1/bin/gfortran
 BLASLIB   : -lblas
 id        : simonbennie

 Nodes     nprocs
 node32-020    1

 Using customized tuning parameters: mindgm=1; mindgv=20; mindgc=4; mindgr=1; noblas=0; minvec=7
 default implementation of scratch files=df  

 memory,500,m
 geomtyp=xyz
 nosym
 noorient
 geometry={
 C          0.00000        0.00000        0.00000
 O          0.00000        0.00000        1.40962
 C          1.30608        0.00000        1.95787
 C          1.19221        0.00000        3.47353
 H          2.18666        0.00000        3.93332
 H         -1.04410        0.00000       -0.32474
 H          0.50079       -0.89267       -0.41051
 H          0.50079        0.89267       -0.41051
 H          1.86435       -0.88728        1.61056
 H          1.86435        0.88728        1.61056
 H          0.64981       -0.88690        3.81673
 H          0.64981        0.88690        3.81673
 }
 basis={ default,sto-3g }
 {ks,B3LYP,direct;wf,34,1,0}
 {ibba,bonds=1}

 Variables initialized (895), CPU time= 0.00 sec
 Commands  initialized (725), CPU time= 0.01 sec, 591 directives.
 Default parameters read. Elapsed time= 0.08 sec

 Checking input...
 Passed
1


                                         ***  PROGRAM SYSTEM MOLPRO  ***
                                       Copyright, TTI GmbH Stuttgart, 2015
                                    Version 2099.9 linked May 26 2017 16:03:21


 **********************************************************************************************************************************
 LABEL *                                                                                 
  64 bit serial version                                                                  DATE: 08-Jun-17          TIME: 09:51:43  
 **********************************************************************************************************************************

 SHA1:             b4a5b34a9e711420743f49e6833241d17c61fb3c
 **********************************************************************************************************************************
 SETTING GEOMTYP        =    XYZ

 Variable memory set to  500000000 words,  buffer space 

 ZSYMEL=NOSYM

 SETTING BASIS          =    STO-3G


 Recomputing integrals since basis changed


 Using spherical harmonics

 Library entry C      S STO-3G               selected for orbital group  1
 Library entry C      P STO-3G               selected for orbital group  1
 Library entry O      S STO-3G               selected for orbital group  2
 Library entry O      P STO-3G               selected for orbital group  2
 Library entry H      S STO-3G               selected for orbital group  4


 PROGRAM * SEWARD (Integral evaluation for generally contracted gaussian basis sets)     Author: Roland Lindh, 1990

 Geometry written to block  1 of record 700


 Point group  C1  



 ATOMIC COORDINATES

 NR  ATOM    CHARGE       X              Y              Z

   1  C       6.00    0.000000000    0.000000000    0.000000000
   2  O       8.00    0.000000000    0.000000000    2.663795740
   3  C       6.00    2.468133497    0.000000000    3.699838088
   4  C       6.00    2.252950383    0.000000000    6.564020385
   5  H       1.00    4.132188528    0.000000000    7.432897560
   6  H       1.00   -1.973063047    0.000000000   -0.613669662
   7  H       1.00    0.946355946   -1.686901820   -0.775751471
   8  H       1.00    0.946355946    1.686901820   -0.775751471
   9  H       1.00    3.523110900   -1.676716196    3.043517307
  10  H       1.00    3.523110900    1.676716196    3.043517307
  11  H       1.00    1.227962933   -1.675998100    7.212574391
  12  H       1.00    1.227962933    1.675998100    7.212574391

 Bond lengths in Bohr (Angstrom)

 1-2  2.663795740  1-6  2.066293358  1-7  2.083990804  1-8  2.083990804  2-3  2.676764223
     ( 1.409620000)     ( 1.093435356)     ( 1.102800441)     ( 1.102800441)     ( 1.416482626)

  3- 4  2.872254168   3- 9  2.086890388   3-10  2.086890388   4- 5  2.070382464   4-11  2.068862297
       ( 1.519931450)       ( 1.104334835)       ( 1.104334835)       ( 1.095599218)       ( 1.094794780)

  4-12  2.068862297
       ( 1.094794780)

 Bond angles

  1-2-3  112.77108340   2-1-6  107.27693969   2-1-7  111.85402987   2-1-8  111.85402987

  2- 3- 4  108.47458109   2- 3- 9  110.14508041   2- 3-10  110.14508041   3- 4- 5  110.51724552

  3- 4-11  110.47015208   3- 4-12  110.47015208   4- 3- 9  110.57823876   4- 3-10  110.57823876

  5- 4-11  108.55021133   5- 4-12  108.55021133   6- 1- 7  108.84842497   6- 1- 8  108.84842497

  7- 1- 8  108.08590744   9- 3-10  106.92203462  11- 4-12  108.21261054

 NUCLEAR CHARGE:                   34
 NUMBER OF PRIMITIVE AOS:          84
 NUMBER OF SYMMETRY AOS:           84
 NUMBER OF CONTRACTIONS:           28   (  28A   )
 NUMBER OF CORE ORBITALS:           4   (   4A   )
 NUMBER OF VALENCE ORBITALS:       24   (  24A   )


 NUCLEAR REPULSION ENERGY  133.31979421


 Eigenvalues of metric

         1 0.212E+00 0.234E+00 0.263E+00 0.352E+00 0.360E+00 0.368E+00 0.374E+00 0.394E+00


 Contracted 2-electron integrals neglected if value below      1.0D-11
 AO integral compression algorithm  1   Integral accuracy      1.0D-11

     0.786 MB (compressed) written to integral file ( 77.9%)


 NUMBER OF SORTED TWO-ELECTRON INTEGRALS:      82621.     BUFFER LENGTH:  32768
 NUMBER OF SEGMENTS:   1  SEGMENT LENGTH:      82621      RECORD LENGTH: 524288

 Memory used in sort:       0.64 MW

 SORT1 READ       95283. AND WROTE       67599. INTEGRALS IN      1 RECORDS. CPU TIME:     0.00 SEC, REAL TIME:     0.01 SEC
 SORT2 READ       67599. AND WROTE       82621. INTEGRALS IN      3 RECORDS. CPU TIME:     0.02 SEC, REAL TIME:     0.02 SEC

 FILE SIZES:   FILE 1:    31.0 MBYTE,  FILE 4:     4.2 MBYTE,   TOTAL:     35.2 MBYTE

 OPERATOR DM      FOR CENTER  0  COORDINATES:    0.000000    0.000000    0.000000


 **********************************************************************************************************************************
 DATASETS  * FILE   NREC   LENGTH (MB)   RECORD NAMES
              1      19       30.48       500      610      700      900      950      970     1000      129      960     1100   
                                          VAR    BASINP    GEOM    SYMINP    ZMAT    AOBASIS   BASIS     P2S    ABASIS      S 
                                         1400     1410     1200     1210     1080     1600     1650     1300     1700   
                                           T        V       H0       H01     AOSYM     SMH    MOLCAS    ERIS     OPER   

 PROGRAMS   *        TOTAL       INT
 CPU TIMES  *         0.47      0.32
 REAL TIME  *         0.82 SEC
 DISK USED  *        35.64 MB      
 **********************************************************************************************************************************

 Density functional group B3LYP=B88+DIRAC+LYP+VWN5
 Functional: B88(Automatically generated (new) B88)                            Gradient terms: 1
 Functional: DIRAC(Automatically generated (new) DIRAC)                        Gradient terms: 0
 Functional: LYP(Automatically generated (new) LYP)                            Gradient terms: 1
 Functional: VWN5(Automatically generated (new) VWN5)                          Gradient terms: 0
 Use grid at  1800.2


 Exact exchange will be calculated, factor:  0.2000

 Functional: B88                       Factor:  0.7200
 Functional: DIRAC                     Factor:  0.0800
 Functional: LYP                       Factor:  0.8100
 Functional: VWN5                      Factor:  0.1900

 Generated new metagrid on record  1800.2 with target accuracy 1.0D-06 and 44796 points in CPU time    1.2
 Computed new grid on record 1800.1 in CPU time    1.3
   26632 words reserved for DFT integration

 PROGRAM * RKS-SCF (Restricted closed shell Kohn-Sham)     Authors: W. Meyer, H.-J. Werner, P.J. Knowles, 1993

 NUMBER OF ELECTRONS:      17+   17-    SPACE SYMMETRY=1    SPIN SYMMETRY: Singlet 
 CONVERGENCE THRESHOLDS:    1.00E-05 (Density)    1.00E-06 (Energy)
 MAX. NUMBER OF ITERATIONS:       60
 INTERPOLATION TYPE:            DIIS
 INTERPOLATION STEPS:              2 (START)      1 (STEP)
 LEVEL SHIFTS:                  0.00 (CLOSED)  0.00 (OPEN) 



 Use fine grid record 1800.2 for energy threshold  1.0D-06
 Orbital guess generated from atomic densities. Full valence occupancy:   17

 Molecular orbital dump at record        2100.2

 Initial occupancy:  17

 ITERATION    DDIFF          GRAD             ENERGY        2-EL.EN.            DIPOLE MOMENTS         DIIS   ORB.
    1      0.000D+00      0.000D+00      -191.57488335    453.710110    1.01672   -0.00000   -0.61305    0    start
    2      0.000D+00      0.259D-01      -191.63317983    436.252582   -0.36102   -0.00000    0.39570    1    diag
    3      0.861D-01      0.221D-01      -191.75378797    443.480940    0.42877   -0.00000   -0.21641    2    diag
    4      0.401D-01      0.282D-02      -191.75545007    443.692605    0.35603   -0.00000   -0.16984    3    diag
    5      0.519D-02      0.619D-03      -191.75553322    443.646400    0.36244   -0.00000   -0.17184    4    diag
    6      0.936D-03      0.474D-04      -191.75553372    443.645586    0.36285   -0.00000   -0.17246    5    diag
    7      0.110D-03      0.181D-04      -191.75553380    443.645677    0.36334   -0.00000   -0.17248    6    diag
    8      0.324D-04      0.118D-05      -191.75553380    443.645577    0.36327   -0.00000   -0.17249    7    diag
    9      0.276D-05      0.280D-06      -191.75553380    443.645547    0.36327   -0.00000   -0.17248    0    orth

 Final occupancy:  17

 !RKS STATE 1.1 Energy               -191.755533797656
 Nuclear energy                       133.31979421
 One-electron energy                 -524.45874328
 Two-electron energy                  221.82277347
 SCF exchange energy                  -26.73967371     Factor= 0.2000
 Density functional                   -22.43935820     B88=-26.67710156 DIRAC=-24.04519581 LYP= -1.10726164 VWN5= -2.16498677
 Virial quotient                       -1.01563264
 !RKS STATE 1.1 Dipole moment           0.36326939    -0.00000000    -0.17248131
 Dipole moment /Debye                   0.92327821    -0.00000000    -0.43837505

 Orbital energies:

         1.1          2.1          3.1          4.1          5.1          6.1          7.1          8.1          9.1         10.1
    -18.874973   -10.052239   -10.045488   -10.004760    -0.965759    -0.717651    -0.630007    -0.563184    -0.433989    -0.428151

        11.1         12.1         13.1         14.1         15.1         16.1         17.1         18.1         19.1
     -0.401471    -0.380856    -0.344029    -0.315903    -0.314998    -0.203218    -0.130490     0.305962     0.399656

 HOMO     17.1    -0.130490 =      -3.5508eV
 LUMO     18.1     0.305962 =       8.3257eV
 LUMO-HOMO         0.436452 =      11.8765eV


 **********************************************************************************************************************************
 DATASETS  * FILE   NREC   LENGTH (MB)   RECORD NAMES
              1      20       31.92       500      610      700      900      950      970     1000      129      960     1100   
                                          VAR    BASINP    GEOM    SYMINP    ZMAT    AOBASIS   BASIS     P2S    ABASIS      S 
                                         1400     1410     1200     1210     1080     1600     1650     1300     1700     1800   
                                           T        V       H0       H01     AOSYM     SMH    MOLCAS    ERIS     OPER     GRID   

              2       5        2.96       700     1000      520     1800     2100   
                                         GEOM     BASIS   MCVARS    GRID      RKS  

 PROGRAMS   *        TOTAL        KS       INT
 CPU TIMES  *         3.87      3.40      0.32
 REAL TIME  *         4.33 SEC
 DISK USED  *        35.64 MB      
 **********************************************************************************************************************************


 PROGRAM * Intrinsic Basis Bonding Analysis (IBBA)          Author: G. Knizia

 Molecular orbitals read from record     2100.2  Type=RKS/CANONICAL (state 1.1)
 Fock matrix read from record            2100.2  Type=RKS/TOTAL (state 1.1)
 Orbital energies read from record       2100.2  Type=RKS/CANONICAL (state 1.1)
 Density matrix read from record         2100.2  Type=RKS/CHARGE (state 1.1)

 Number of core orbitals:           4 (   4 )
 Number of closed-shell orbitals:  13 (  13 )

 Basis set MINAO-AUTO-PP generated.      Number of basis functions:   28 

 Polarized AO type:                A = (O Ot + (1-O)(1-Ot)) P12
 Orthogonalization method:         Symmetric (Loewdin)
 Localization functional:          L = sum[A,i] <i|n_A|i>^4 -> max

 Localization group 1:  17 orbitals, occupancy  2.000
 Iterative localization: IB/PM,    7 iter; Final gradient 0.53E-09

 Bond order analysis:       [THRPRINT= 0.020]

   CEN ATOM   CEN ATOM     WIBERG.BO      RENORM.BO
     1   C  -   2   O       1.017732       1.017678
     1   C  -   6   H       0.956815       0.975003
     1   C  -   7   H       0.953870       0.946599
     1   C  -   8   H       0.953870       0.946599

     2   O  -   1   C       1.017732       1.017678
     2   O  -   3   C       1.001490       0.997642
     2   O  -   8   H       0.029601       0.017602
     2   O  -   7   H       0.029601       0.017602
     2   O  -  10   H       0.027322       0.016272
     2   O  -   9   H       0.027322       0.016272

     3   C  -   4   C       1.016062       1.008527
     3   C  -   2   O       1.001490       0.997642
     3   C  -   9   H       0.943799       0.936513
     3   C  -  10   H       0.943799       0.936513

     4   C  -   3   C       1.016062       1.008527
     4   C  -   5   H       0.965020       0.991753
     4   C  -  12   H       0.963013       0.987061
     4   C  -  11   H       0.963013       0.987061

     5   H  -   4   C       0.965020       0.991753

     6   H  -   1   C       0.956815       0.975003

     7   H  -   1   C       0.953870       0.946599
     7   H  -   2   O       0.029601       0.017602

     8   H  -   1   C       0.953870       0.946599
     8   H  -   2   O       0.029601       0.017602

     9   H  -   3   C       0.943799       0.936513
     9   H  -   2   O       0.027322       0.016272

    10   H  -   3   C       0.943799       0.936513
    10   H  -   2   O       0.027322       0.016272

    11   H  -   4   C       0.963013       0.987061

    12   H  -   4   C       0.963013       0.987061


 Valency analysis:

   CEN ATOM   TOT.VALENCE
     1   C       3.902124
     2   O       2.159963
     3   C       3.927838
     4   C       3.931601
     5   H       0.981655
     6   H       0.980610
     7   H       0.987394
     8   H       0.987394
     9   H       0.987905
    10   H       0.987905
    11   H       0.981143
    12   H       0.981143

 Total charge composition:

   CEN ATOM         s          p       ELECTRONS ->P.CHARGE
     1   C       3.00593    3.24977      6.25570   -0.25570
     2   O       3.64986    4.57418      8.22404   -0.22404
     3   C       2.98312    3.13837      6.12149   -0.12149
     4   C       2.99453    3.39809      6.39261   -0.39261
     5   H       0.86456                 0.86456    0.13544
     6   H       0.86075                 0.86075    0.13925
     7   H       0.88772                 0.88772    0.11228
     8   H       0.88772                 0.88772    0.11228
     9   H       0.89002                 0.89002    0.10998
    10   H       0.89002                 0.89002    0.10998
    11   H       0.86268                 0.86268    0.13732
    12   H       0.86268                 0.86268    0.13732

 Total charge composition, AO contributions:

   CEN ATOM SHL      SPHERICAL COMPONENTS
     1   C  1s       1.99246
     1   C  2s       1.01347
     1   C  2p       1.18687    1.17492    0.88799

     2   O  1s       1.99728
     2   O  2s       1.65258
     2   O  2p       1.40326    1.91473    1.25619

     3   C  1s       1.99267
     3   C  2s       0.99045
     3   C  2p       0.92423    1.17123    1.04290

     4   C  1s       1.99178
     4   C  2s       1.00275
     4   C  2p       1.17000    1.17602    1.05207

     5   H  1s       0.86456

     6   H  1s       0.86075

     7   H  1s       0.88772

     8   H  1s       0.88772

     9   H  1s       0.89002

    10   H  1s       0.89002

    11   H  1s       0.86268

    12   H  1s       0.86268

 Summary of localized orbital composition:   [THRPRINT= 0.020]

   ORB  GRP  ORB.ENERGY      CENTERS/CHARGES
     1   1   -18.711892      O  2   2.000
     2   1    -9.948686      C  3   2.000
     3   1    -9.938047      C  1   2.000
     4   1    -9.891456      C  4   2.000
     5   1    -0.659851      O  2   1.164   C  1   0.826
     6   1    -0.650025      O  2   1.168   C  3   0.819
     7   1    -0.539541      C  3   1.007   C  4   0.982
     8   1    -0.497658      O  2   1.972   (other: 0.028)
     9   1    -0.485397      C  1   1.141   H  6   0.852
    10   1    -0.483085      C  1   1.129   H  7   0.870
    11   1    -0.483085      C  1   1.129   H  8   0.870
    12   1    -0.479781      C  3   1.124   H  9   0.869
    13   1    -0.479781      C  3   1.124   H 10   0.869
    14   1    -0.467876      C  4   1.130   H  5   0.858
    15   1    -0.461733      C  4   1.134   H 11   0.857
    16   1    -0.461733      C  4   1.134   H 12   0.857
    17   1    -0.167539      O  2   1.915   (other: 0.085)

 Localized orbitals saved to record      2100.2  (orbital set 2)


 **********************************************************************************************************************************
 DATASETS  * FILE   NREC   LENGTH (MB)   RECORD NAMES
              1      20       31.92       500      610      700      900      950      970     1000      129      960     1100   
                                          VAR    BASINP    GEOM    SYMINP    ZMAT    AOBASIS   BASIS     P2S    ABASIS      S 
                                         1400     1410     1200     1210     1080     1600     1650     1300     1700     1800   
                                           T        V       H0       H01     AOSYM     SMH    MOLCAS    ERIS     OPER     GRID   

              2       5        2.97       700     1000      520     1800     2100   
                                         GEOM     BASIS   MCVARS    GRID      RKS  

 PROGRAMS   *        TOTAL      IBBA        KS       INT
 CPU TIMES  *         3.90      0.03      3.40      0.32
 REAL TIME  *         4.43 SEC
 DISK USED  *        35.64 MB      
 **********************************************************************************************************************************
 Molecular orbitals read from record     2100.2  Type=RKS/LOCAL(IBO)  
 Occupation numbers read from record     2100.2  Type=RKS/LOCAL(IBO)  
 Orbital energies read from record       2100.2  Type=RKS/LOCAL(IBO)  
 Redundancy group numbers read from rec  2100.2  Type=RKS/LOCAL(IBO)  

 IBBA/STO-3G energy=      0.000000000000

        KS-SCF  
   -191.75553380
 **********************************************************************************************************************************
 Molpro calculation terminated
