
 Primary working directories    : /tmp/sb13343
 Secondary working directories  : /tmp/sb13343
 Wavefunction directory         : /panfs/panasas01/chem/sb13343/wfu/
 Main file repository           : /tmp/sb13343/

 SHA1      : b4a5b34a9e711420743f49e6833241d17c61fb3c
 NAME      : 2099.9.b4a5b34
 ARCHNAME  : linux/x86_64_openmp
 FC        : /cm/shared/languages/GCC-6.1/bin/gfortran
 BLASLIB   : -lblas
 id        : simonbennie

 Nodes     nprocs
 node33-018    1

 Using customized tuning parameters: mindgm=1; mindgv=20; mindgc=4; mindgr=1; noblas=0; minvec=7
 default implementation of scratch files=df  

 memory,500,m
 geomtyp=xyz
 nosym
 noorient
 geometry={
 C          0.00000        0.00000        0.00000
 O          0.00000        0.00000        1.40962
 C          1.30608        0.00000        1.95787
 C          1.19221        0.00000        3.47353
 H          2.18666        0.00000        3.93332
 H         -1.04410        0.00000       -0.32474
 H          0.50079       -0.89267       -0.41051
 H          0.50079        0.89267       -0.41051
 H          1.86435       -0.88728        1.61056
 H          1.86435        0.88728        1.61056
 H          0.64981       -0.88690        3.81673
 H          0.64981        0.88690        3.81673
 }
 basis={ default,svp }
 {ks,LSDAC,direct;wf,34,1,0}
 {ibba,bonds=1}

 Variables initialized (895), CPU time= 0.01 sec
 Commands  initialized (725), CPU time= 0.01 sec, 591 directives.
 Default parameters read. Elapsed time= 0.09 sec

 Checking input...
 Passed
1


                                         ***  PROGRAM SYSTEM MOLPRO  ***
                                       Copyright, TTI GmbH Stuttgart, 2015
                                    Version 2099.9 linked May 26 2017 16:03:21


 **********************************************************************************************************************************
 LABEL *                                                                                 
  64 bit serial version                                                                  DATE: 08-Jun-17          TIME: 10:13:35  
 **********************************************************************************************************************************

 SHA1:             b4a5b34a9e711420743f49e6833241d17c61fb3c
 **********************************************************************************************************************************
 SETTING GEOMTYP        =    XYZ

 Variable memory set to  500000000 words,  buffer space 

 ZSYMEL=NOSYM

 SETTING BASIS          =    SVP


 Recomputing integrals since basis changed


 Using spherical harmonics

 Library entry C      S def2-SVP             selected for orbital group  1
 Library entry C      P def2-SVP             selected for orbital group  1
 Library entry C      D def2-SVP             selected for orbital group  1
 Library entry O      S def2-SVP             selected for orbital group  2
 Library entry O      P def2-SVP             selected for orbital group  2
 Library entry O      D def2-SVP             selected for orbital group  2
 Library entry H      S def2-SVP             selected for orbital group  4
 Library entry H      P def2-SVP             selected for orbital group  4


 PROGRAM * SEWARD (Integral evaluation for generally contracted gaussian basis sets)     Author: Roland Lindh, 1990

 Geometry written to block  1 of record 700


 Point group  C1  



 ATOMIC COORDINATES

 NR  ATOM    CHARGE       X              Y              Z

   1  C       6.00    0.000000000    0.000000000    0.000000000
   2  O       8.00    0.000000000    0.000000000    2.663795740
   3  C       6.00    2.468133497    0.000000000    3.699838088
   4  C       6.00    2.252950383    0.000000000    6.564020385
   5  H       1.00    4.132188528    0.000000000    7.432897560
   6  H       1.00   -1.973063047    0.000000000   -0.613669662
   7  H       1.00    0.946355946   -1.686901820   -0.775751471
   8  H       1.00    0.946355946    1.686901820   -0.775751471
   9  H       1.00    3.523110900   -1.676716196    3.043517307
  10  H       1.00    3.523110900    1.676716196    3.043517307
  11  H       1.00    1.227962933   -1.675998100    7.212574391
  12  H       1.00    1.227962933    1.675998100    7.212574391

 Bond lengths in Bohr (Angstrom)

 1-2  2.663795740  1-6  2.066293358  1-7  2.083990804  1-8  2.083990804  2-3  2.676764223
     ( 1.409620000)     ( 1.093435356)     ( 1.102800441)     ( 1.102800441)     ( 1.416482626)

  3- 4  2.872254168   3- 9  2.086890388   3-10  2.086890388   4- 5  2.070382464   4-11  2.068862297
       ( 1.519931450)       ( 1.104334835)       ( 1.104334835)       ( 1.095599218)       ( 1.094794780)

  4-12  2.068862297
       ( 1.094794780)

 Bond angles

  1-2-3  112.77108340   2-1-6  107.27693969   2-1-7  111.85402987   2-1-8  111.85402987

  2- 3- 4  108.47458109   2- 3- 9  110.14508041   2- 3-10  110.14508041   3- 4- 5  110.51724552

  3- 4-11  110.47015208   3- 4-12  110.47015208   4- 3- 9  110.57823876   4- 3-10  110.57823876

  5- 4-11  108.55021133   5- 4-12  108.55021133   6- 1- 7  108.84842497   6- 1- 8  108.84842497

  7- 1- 8  108.08590744   9- 3-10  106.92203462  11- 4-12  108.21261054

 NUCLEAR CHARGE:                   34
 NUMBER OF PRIMITIVE AOS:         156
 NUMBER OF SYMMETRY AOS:          152
 NUMBER OF CONTRACTIONS:           96   (  96A   )
 NUMBER OF CORE ORBITALS:           4   (   4A   )
 NUMBER OF VALENCE ORBITALS:       24   (  24A   )


 NUCLEAR REPULSION ENERGY  133.31979421


 Eigenvalues of metric

         1 0.364E-02 0.952E-02 0.147E-01 0.282E-01 0.312E-01 0.319E-01 0.432E-01 0.449E-01


 Contracted 2-electron integrals neglected if value below      1.0D-11
 AO integral compression algorithm  1   Integral accuracy      1.0D-11

     37.487 MB (compressed) written to integral file ( 40.8%)


 NUMBER OF SORTED TWO-ELECTRON INTEGRALS:   10841496.     BUFFER LENGTH:  32768
 NUMBER OF SEGMENTS:   1  SEGMENT LENGTH:   10841496      RECORD LENGTH: 524288

 Memory used in sort:      11.40 MW

 SORT1 READ    11483613. AND WROTE     8333550. INTEGRALS IN     24 RECORDS. CPU TIME:     0.13 SEC, REAL TIME:     0.28 SEC
 SORT2 READ     8333550. AND WROTE    10841496. INTEGRALS IN    143 RECORDS. CPU TIME:     0.30 SEC, REAL TIME:     0.35 SEC

 FILE SIZES:   FILE 1:    68.0 MBYTE,  FILE 4:   100.7 MBYTE,   TOTAL:    168.7 MBYTE

 OPERATOR DM      FOR CENTER  0  COORDINATES:    0.000000    0.000000    0.000000


 **********************************************************************************************************************************
 DATASETS  * FILE   NREC   LENGTH (MB)   RECORD NAMES
              1      19       62.89       500      610      700      900      950      970     1000      129      960     1100   
                                          VAR    BASINP    GEOM    SYMINP    ZMAT    AOBASIS   BASIS     P2S    ABASIS      S 
                                         1400     1410     1200     1210     1080     1600     1650     1300     1700   
                                           T        V       H0       H01     AOSYM     SMH    MOLCAS    ERIS     OPER   

 PROGRAMS   *        TOTAL       INT
 CPU TIMES  *         1.96      1.81
 REAL TIME  *         2.65 SEC
 DISK USED  *       169.15 MB      
 **********************************************************************************************************************************

 Density functional group LSDAC=PW92C
 Functional: PW92C(Automatically generated (new) PW92C)                        Gradient terms: 0
 Use grid at  1800.2

 Functional: PW92C                     Factor:  1.0000

 Generated new metagrid on record  1800.2 with target accuracy 1.0D-06 and 44796 points in CPU time    1.2
 Computed new grid on record 1800.1 in CPU time    1.3
   43792 words reserved for DFT integration

 PROGRAM * RKS-SCF (Restricted closed shell Kohn-Sham)     Authors: W. Meyer, H.-J. Werner, P.J. Knowles, 1993

 NUMBER OF ELECTRONS:      17+   17-    SPACE SYMMETRY=1    SPIN SYMMETRY: Singlet 
 CONVERGENCE THRESHOLDS:    1.00E-05 (Density)    1.00E-06 (Energy)
 MAX. NUMBER OF ITERATIONS:       60
 INTERPOLATION TYPE:            DIIS
 INTERPOLATION STEPS:              2 (START)      1 (STEP)
 LEVEL SHIFTS:                  0.00 (CLOSED)  0.00 (OPEN) 



 Use fine grid record 1800.2 for energy threshold  1.0D-06
 Orbital guess generated from atomic densities. Full valence occupancy:   17

 Molecular orbital dump at record        2100.2

 Initial occupancy:  17

 ITERATION    DDIFF          GRAD             ENERGY        2-EL.EN.            DIPOLE MOMENTS         DIIS   ORB.
    1      0.000D+00      0.000D+00      -168.00261337    403.054328   -3.97313    0.00000    0.94124    0    start
    2      0.000D+00      0.320D-01      -164.35247079    490.290498    4.37674    0.00000   -0.43685    1    diag
    3      0.141D+00      0.657D-01      -169.04220418    440.721347    1.11322    0.00000   -0.53582    2    diag
    4      0.404D-01      0.114D-01      -169.17055602    431.260703   -0.30374    0.00000    0.10375    3    diag
    5      0.232D-01      0.492D-02      -169.19681454    431.401480   -0.19873    0.00000    0.04939    4    diag
    6      0.628D-02      0.190D-02      -169.20073893    431.191730   -0.12509    0.00000   -0.03206    5    diag
    7      0.252D-02      0.667D-03      -169.20120015    431.047484   -0.19309    0.00000    0.00370    6    diag
    8      0.104D-02      0.223D-03      -169.20125871    430.833065   -0.20331   -0.00000    0.01178    7    diag
    9      0.431D-03      0.108D-03      -169.20127123    430.813245   -0.21037    0.00000    0.01210    8    diag
   10      0.145D-03      0.221D-04      -169.20127177    430.798473   -0.21278    0.00000    0.01315    9    orth
   11      0.449D-04      0.418D-05      -169.20127178    430.796080   -0.21273   -0.00000    0.01306    9    diag
   12      0.597D-05      0.214D-05      -169.20127177    430.798592   -0.21272   -0.00000    0.01313    0    orth

 Final occupancy:  17

 !RKS STATE 1.1 Energy               -169.201271766605
 Nuclear energy                       133.31979421
 One-electron energy                 -515.83704628
 Two-electron energy                  215.39929611
 Density functional                    -2.08331581     PW92C=-2.08331581
 Virial quotient                       -0.93413260
 !RKS STATE 1.1 Dipole moment          -0.21271945    -0.00000000     0.01312726
 Dipole moment /Debye                  -0.54064349    -0.00000000     0.03336397

 Orbital energies:

         1.1          2.1          3.1          4.1          5.1          6.1          7.1          8.1          9.1         10.1
    -16.650600    -8.285938    -8.277515    -8.247968    -0.616289    -0.389022    -0.297958    -0.242594    -0.176970    -0.173823

        11.1         12.1         13.1         14.1         15.1         16.1         17.1         18.1         19.1
     -0.141552    -0.108136    -0.067244    -0.051303    -0.032946     0.007105     0.062723     0.185256     0.201084

 HOMO     17.1     0.062723 =       1.7068eV
 LUMO     18.1     0.185256 =       5.0411eV
 LUMO-HOMO         0.122534 =       3.3343eV


 **********************************************************************************************************************************
 DATASETS  * FILE   NREC   LENGTH (MB)   RECORD NAMES
              1      20       64.33       500      610      700      900      950      970     1000      129      960     1100   
                                          VAR    BASINP    GEOM    SYMINP    ZMAT    AOBASIS   BASIS     P2S    ABASIS      S 
                                         1400     1410     1200     1210     1080     1600     1650     1300     1700     1800   
                                           T        V       H0       H01     AOSYM     SMH    MOLCAS    ERIS     OPER     GRID   

              2       5        3.14       700     1000      520     1800     2100   
                                         GEOM     BASIS   MCVARS    GRID      RKS  

 PROGRAMS   *        TOTAL        KS       INT
 CPU TIMES  *         8.24      6.28      1.81
 REAL TIME  *         9.70 SEC
 DISK USED  *       169.15 MB      
 **********************************************************************************************************************************


 PROGRAM * Intrinsic Basis Bonding Analysis (IBBA)          Author: G. Knizia

 Molecular orbitals read from record     2100.2  Type=RKS/CANONICAL (state 1.1)
 Fock matrix read from record            2100.2  Type=RKS/TOTAL (state 1.1)
 Orbital energies read from record       2100.2  Type=RKS/CANONICAL (state 1.1)
 Density matrix read from record         2100.2  Type=RKS/CHARGE (state 1.1)

 Number of core orbitals:           4 (   4 )
 Number of closed-shell orbitals:  13 (  13 )

 Basis set MINAO-AUTO-PP generated.      Number of basis functions:   28 

 Polarized AO type:                A = (O Ot + (1-O)(1-Ot)) P12
 Orthogonalization method:         Symmetric (Loewdin)
 Localization functional:          L = sum[A,i] <i|n_A|i>^4 -> max

 Localization group 1:  17 orbitals, occupancy  2.000
 Iterative localization: IB/PM,    7 iter; Final gradient 0.15E-08

 Bond order analysis:       [THRPRINT= 0.020]

   CEN ATOM   CEN ATOM     WIBERG.BO      RENORM.BO
     1   C  -   2   O       1.095622       1.058528
     1   C  -   6   H       0.963385       0.962377
     1   C  -   8   H       0.916445       0.866839
     1   C  -   7   H       0.916445       0.866839

     2   O  -   1   C       1.095622       1.058528
     2   O  -   3   C       1.065728       1.018895
     2   O  -   7   H       0.061249       0.034185
     2   O  -   8   H       0.061249       0.034185
     2   O  -  10   H       0.055171       0.030487
     2   O  -   9   H       0.055171       0.030487
     2   O  -   4   C       0.038065       0.023193
     2   O  -   5   H       0.023453       0.017669

     3   C  -   2   O       1.065728       1.018895
     3   C  -   4   C       1.042959       1.039655
     3   C  -   9   H       0.893310       0.848866
     3   C  -  10   H       0.893310       0.848866

     4   C  -   3   C       1.042959       1.039655
     4   C  -   5   H       0.953949       0.970608
     4   C  -  11   H       0.953280       0.959855
     4   C  -  12   H       0.953280       0.959855
     4   C  -   2   O       0.038065       0.023193

     5   H  -   4   C       0.953949       0.970608
     5   H  -   2   O       0.023453       0.017669

     6   H  -   1   C       0.963385       0.962377

     7   H  -   1   C       0.916445       0.866839
     7   H  -   2   O       0.061249       0.034185

     8   H  -   1   C       0.916445       0.866839
     8   H  -   2   O       0.061249       0.034185

     9   H  -   3   C       0.893310       0.848866
     9   H  -   2   O       0.055171       0.030487
     9   H  -  12   H       0.027810       0.028658

    10   H  -   3   C       0.893310       0.848866
    10   H  -   2   O       0.055171       0.030487
    10   H  -  11   H       0.027810       0.028658

    11   H  -   4   C       0.953280       0.959855
    11   H  -  10   H       0.027810       0.028658

    12   H  -   4   C       0.953280       0.959855
    12   H  -   9   H       0.027810       0.028658


 Valency analysis:

   CEN ATOM   TOT.VALENCE
     1   C       3.930960
     2   O       2.474596
     3   C       3.941940
     4   C       3.963579
     5   H       0.997452
     6   H       0.998109
     7   H       0.999997
     8   H       0.999997
     9   H       0.999825
    10   H       0.999825
    11   H       0.998211
    12   H       0.998211

 Total charge composition:

   CEN ATOM         s          p       ELECTRONS ->P.CHARGE
     1   C       2.89445    3.12152      6.01597   -0.01597
     2   O       3.47212    4.60585      8.07797   -0.07797
     3   C       2.87855    3.03332      5.91187    0.08813
     4   C       2.89022    3.25925      6.14947   -0.14947
     5   H       0.94953                 0.94953    0.05047
     6   H       0.95652                 0.95652    0.04348
     7   H       0.99840                 0.99840    0.00160
     8   H       0.99840                 0.99840    0.00160
     9   H       1.01323                 1.01323   -0.01323
    10   H       1.01323                 1.01323   -0.01323
    11   H       0.95771                 0.95771    0.04229
    12   H       0.95771                 0.95771    0.04229

 Total charge composition, AO contributions:

   CEN ATOM SHL      SPHERICAL COMPONENTS
     1   C  1s       1.99794
     1   C  2s       0.89651
     1   C  2p       1.12466    1.12861    0.86824

     2   O  1s       1.99892
     2   O  2s       1.47320
     2   O  2p       1.48738    1.79502    1.32345

     3   C  1s       1.99804
     3   C  2s       0.88051
     3   C  2p       0.88962    1.10724    1.03646

     4   C  1s       1.99775
     4   C  2s       0.89246
     4   C  2p       1.10034    1.10551    1.05339

     5   H  1s       0.94953

     6   H  1s       0.95652

     7   H  1s       0.99840

     8   H  1s       0.99840

     9   H  1s       1.01323

    10   H  1s       1.01323

    11   H  1s       0.95771

    12   H  1s       0.95771

 Summary of localized orbital composition:   [THRPRINT= 0.020]

   ORB  GRP  ORB.ENERGY      CENTERS/CHARGES
     1   1   -16.562220      O  2   2.000
     2   1    -8.210178      C  1   2.000
     3   1    -8.203350      C  3   2.000
     4   1    -8.167701      C  4   2.000
     5   1    -0.415238      O  2   1.177   C  1   0.811
     6   1    -0.405254      O  2   1.192   C  3   0.790
     7   1    -0.245769      C  4   1.001   C  3   0.988
     8   1    -0.176493      C  1   1.048   H  6   0.943
     9   1    -0.175288      C  1   1.034   H  8   0.959
    10   1    -0.175288      C  1   1.034   H  7   0.959
    11   1    -0.172303      C  3   1.005   H 10   0.972   (other: 0.023)
    12   1    -0.172303      C  3   1.005   H  9   0.972   (other: 0.023)
    13   1    -0.161906      C  4   1.037   H 11   0.944
    14   1    -0.161906      C  4   1.037   H 12   0.944
    15   1    -0.161544      C  4   1.041   H  5   0.936   (other: 0.024)
    16   1    -0.130009      O  2   1.907   C  3   0.021   (other: 0.073)
    17   1     0.006721      O  2   1.795   C  3   0.052   C  1   0.051   H  8   0.026   H  7   0.026   H  9   0.022   H 10   0.022

 Localized orbitals saved to record      2100.2  (orbital set 2)


 **********************************************************************************************************************************
 DATASETS  * FILE   NREC   LENGTH (MB)   RECORD NAMES
              1      20       64.33       500      610      700      900      950      970     1000      129      960     1100   
                                          VAR    BASINP    GEOM    SYMINP    ZMAT    AOBASIS   BASIS     P2S    ABASIS      S 
                                         1400     1410     1200     1210     1080     1600     1650     1300     1700     1800   
                                           T        V       H0       H01     AOSYM     SMH    MOLCAS    ERIS     OPER     GRID   

              2       5        3.21       700     1000      520     1800     2100   
                                         GEOM     BASIS   MCVARS    GRID      RKS  

 PROGRAMS   *        TOTAL      IBBA        KS       INT
 CPU TIMES  *         8.28      0.03      6.28      1.81
 REAL TIME  *         9.82 SEC
 DISK USED  *       169.15 MB      
 **********************************************************************************************************************************
 Molecular orbitals read from record     2100.2  Type=RKS/LOCAL(IBO)  
 Occupation numbers read from record     2100.2  Type=RKS/LOCAL(IBO)  
 Orbital energies read from record       2100.2  Type=RKS/LOCAL(IBO)  
 Redundancy group numbers read from rec  2100.2  Type=RKS/LOCAL(IBO)  

 IBBA/SVP energy=      0.000000000000

        KS-SCF  
   -169.20127177
 **********************************************************************************************************************************
 Molpro calculation terminated
