
 Primary working directories    : /tmp/sb13343
 Secondary working directories  : /tmp/sb13343
 Wavefunction directory         : /panfs/panasas01/chem/sb13343/wfu/
 Main file repository           : /tmp/sb13343/

 SHA1      : b4a5b34a9e711420743f49e6833241d17c61fb3c
 NAME      : 2099.9.b4a5b34
 ARCHNAME  : linux/x86_64_openmp
 FC        : /cm/shared/languages/GCC-6.1/bin/gfortran
 BLASLIB   : -lblas
 id        : simonbennie

 Nodes     nprocs
 node36-032    1

 Using customized tuning parameters: mindgm=1; mindgv=20; mindgc=4; mindgr=1; noblas=0; minvec=7
 default implementation of scratch files=df  

 memory,500,m
 geomtyp=xyz
 nosym
 noorient
 geometry={
 C          0.00000        0.00000        0.00000
 O          0.00000        0.00000        1.40962
 C          1.30608        0.00000        1.95787
 C          1.19221        0.00000        3.47353
 H          2.18666        0.00000        3.93332
 H         -1.04410        0.00000       -0.32474
 H          0.50079       -0.89267       -0.41051
 H          0.50079        0.89267       -0.41051
 H          1.86435       -0.88728        1.61056
 H          1.86435        0.88728        1.61056
 H          0.64981       -0.88690        3.81673
 H          0.64981        0.88690        3.81673
 }
 basis={ default,sto-3g }
 {uks,VWN80,direct;wf,34,1,0}
 {ibba,bonds=1}

 Variables initialized (895), CPU time= 0.00 sec
 Commands  initialized (725), CPU time= 0.01 sec, 591 directives.
 Default parameters read. Elapsed time= 0.77 sec

 Checking input...
 Passed
1


                                         ***  PROGRAM SYSTEM MOLPRO  ***
                                       Copyright, TTI GmbH Stuttgart, 2015
                                    Version 2099.9 linked May 26 2017 16:03:21


 **********************************************************************************************************************************
 LABEL *                                                                                 
  64 bit serial version                                                                  DATE: 08-Jun-17          TIME: 10:01:52  
 **********************************************************************************************************************************

 SHA1:             b4a5b34a9e711420743f49e6833241d17c61fb3c
 **********************************************************************************************************************************
 SETTING GEOMTYP        =    XYZ

 Variable memory set to  500000000 words,  buffer space 

 ZSYMEL=NOSYM

 SETTING BASIS          =    STO-3G


 Recomputing integrals since basis changed


 Using spherical harmonics

 Library entry C      S STO-3G               selected for orbital group  1
 Library entry C      P STO-3G               selected for orbital group  1
 Library entry O      S STO-3G               selected for orbital group  2
 Library entry O      P STO-3G               selected for orbital group  2
 Library entry H      S STO-3G               selected for orbital group  4


 PROGRAM * SEWARD (Integral evaluation for generally contracted gaussian basis sets)     Author: Roland Lindh, 1990

 Geometry written to block  1 of record 700


 Point group  C1  



 ATOMIC COORDINATES

 NR  ATOM    CHARGE       X              Y              Z

   1  C       6.00    0.000000000    0.000000000    0.000000000
   2  O       8.00    0.000000000    0.000000000    2.663795740
   3  C       6.00    2.468133497    0.000000000    3.699838088
   4  C       6.00    2.252950383    0.000000000    6.564020385
   5  H       1.00    4.132188528    0.000000000    7.432897560
   6  H       1.00   -1.973063047    0.000000000   -0.613669662
   7  H       1.00    0.946355946   -1.686901820   -0.775751471
   8  H       1.00    0.946355946    1.686901820   -0.775751471
   9  H       1.00    3.523110900   -1.676716196    3.043517307
  10  H       1.00    3.523110900    1.676716196    3.043517307
  11  H       1.00    1.227962933   -1.675998100    7.212574391
  12  H       1.00    1.227962933    1.675998100    7.212574391

 Bond lengths in Bohr (Angstrom)

 1-2  2.663795740  1-6  2.066293358  1-7  2.083990804  1-8  2.083990804  2-3  2.676764223
     ( 1.409620000)     ( 1.093435356)     ( 1.102800441)     ( 1.102800441)     ( 1.416482626)

  3- 4  2.872254168   3- 9  2.086890388   3-10  2.086890388   4- 5  2.070382464   4-11  2.068862297
       ( 1.519931450)       ( 1.104334835)       ( 1.104334835)       ( 1.095599218)       ( 1.094794780)

  4-12  2.068862297
       ( 1.094794780)

 Bond angles

  1-2-3  112.77108340   2-1-6  107.27693969   2-1-7  111.85402987   2-1-8  111.85402987

  2- 3- 4  108.47458109   2- 3- 9  110.14508041   2- 3-10  110.14508041   3- 4- 5  110.51724552

  3- 4-11  110.47015208   3- 4-12  110.47015208   4- 3- 9  110.57823876   4- 3-10  110.57823876

  5- 4-11  108.55021133   5- 4-12  108.55021133   6- 1- 7  108.84842497   6- 1- 8  108.84842497

  7- 1- 8  108.08590744   9- 3-10  106.92203462  11- 4-12  108.21261054

 NUCLEAR CHARGE:                   34
 NUMBER OF PRIMITIVE AOS:          84
 NUMBER OF SYMMETRY AOS:           84
 NUMBER OF CONTRACTIONS:           28   (  28A   )
 NUMBER OF CORE ORBITALS:           4   (   4A   )
 NUMBER OF VALENCE ORBITALS:       24   (  24A   )


 NUCLEAR REPULSION ENERGY  133.31979421


 Eigenvalues of metric

         1 0.212E+00 0.234E+00 0.263E+00 0.352E+00 0.360E+00 0.368E+00 0.374E+00 0.394E+00


 Contracted 2-electron integrals neglected if value below      1.0D-11
 AO integral compression algorithm  1   Integral accuracy      1.0D-11

     0.786 MB (compressed) written to integral file ( 77.9%)


 NUMBER OF SORTED TWO-ELECTRON INTEGRALS:      82621.     BUFFER LENGTH:  32768
 NUMBER OF SEGMENTS:   1  SEGMENT LENGTH:      82621      RECORD LENGTH: 524288

 Memory used in sort:       0.64 MW

 SORT1 READ       95283. AND WROTE       67599. INTEGRALS IN      1 RECORDS. CPU TIME:     0.00 SEC, REAL TIME:     0.01 SEC
 SORT2 READ       67599. AND WROTE       82621. INTEGRALS IN      3 RECORDS. CPU TIME:     0.01 SEC, REAL TIME:     0.01 SEC

 FILE SIZES:   FILE 1:    31.0 MBYTE,  FILE 4:     4.2 MBYTE,   TOTAL:     35.2 MBYTE

 OPERATOR DM      FOR CENTER  0  COORDINATES:    0.000000    0.000000    0.000000


 **********************************************************************************************************************************
 DATASETS  * FILE   NREC   LENGTH (MB)   RECORD NAMES
              1      19       30.48       500      610      700      900      950      970     1000      129      960     1100   
                                          VAR    BASINP    GEOM    SYMINP    ZMAT    AOBASIS   BASIS     P2S    ABASIS      S 
                                         1400     1410     1200     1210     1080     1600     1650     1300     1700   
                                           T        V       H0       H01     AOSYM     SMH    MOLCAS    ERIS     OPER   

 PROGRAMS   *        TOTAL       INT
 CPU TIMES  *         0.44      0.30
 REAL TIME  *         1.53 SEC
 DISK USED  *        35.64 MB      
 **********************************************************************************************************************************

 Density functional group VWN80=VWN5
 Functional: VWN5(Automatically generated (new) VWN5)                          Gradient terms: 0
 Use grid at  1800.2

 Functional: VWN5                      Factor:  1.0000

 Generated new metagrid on record  1800.2 with target accuracy 1.0D-06 and 44796 points in CPU time    1.0
 Computed new grid on record 1800.1 in CPU time    1.1
   15964 words reserved for DFT integration

 PROGRAM * UKS-SCF (Unrestricted Kohn-Sham)     Authors: W. Meyer, H.-J. Werner, P.J. Knowles, 1993

 NUMBER OF ELECTRONS:      17+   17-    SPACE SYMMETRY=1    SPIN SYMMETRY: Singlet 
 CONVERGENCE THRESHOLDS:    1.00E-05 (Density)    1.00E-06 (Energy)
 MAX. NUMBER OF ITERATIONS:       60
 INTERPOLATION TYPE:            DIIS
 INTERPOLATION STEPS:              2 (START)      1 (STEP)
 LEVEL SHIFTS:                 -0.20 (ALPHA)  -0.20 (BETA) 



 Use fine grid record 1800.2 for energy threshold  1.0D-06
 Orbital guess generated from atomic densities. Full valence occupancy:   17

 Molecular orbital dump at record        2200.2

 Initial alpha occupation  17
 Initial beta  occupation  17

 ITERATION    DDIFF          GRAD             ENERGY        2-EL.EN.            DIPOLE MOMENTS         DIIS
    1      0.000D+00      0.000D+00      -166.25630198    450.813548   -0.06130   -0.00000    0.00190    0
    2      0.251D-01      0.831D-02      -166.28558652    446.600680   -0.07013   -0.00000    0.11669    1
    3      0.726D-02      0.345D-02      -166.29065891    447.563823   -0.07837   -0.00000    0.11369    2
    4      0.157D-02      0.581D-03      -166.29089238    447.592047   -0.05838   -0.00000    0.10816    3
    5      0.790D-03      0.220D-03      -166.29093392    447.536563   -0.06713   -0.00000    0.11615    4
    6      0.368D-03      0.724D-04      -166.29093938    447.538567   -0.06646   -0.00000    0.11620    5
    7      0.729D-04      0.274D-04      -166.29093972    447.540817   -0.06604   -0.00000    0.11620    6
    8      0.258D-04      0.776D-05      -166.29093976    447.539688   -0.06633   -0.00000    0.11636    7
    9      0.481D-05      0.807D-06      -166.29093976    447.539641   -0.06632   -0.00000    0.11635    6
   10      0.114D-05      0.388D-06      -166.29093976    447.539679   -0.06632   -0.00000    0.11636    7

 Final alpha occupancy:  17
 Final beta  occupancy:  17

 !UKS STATE 1.1 Energy               -166.290939756233
 Nuclear energy                       133.31979421
 One-electron energy                 -521.22636477
 Two-electron energy                  223.76983962
 Density functional                    -2.15420882     VWN5=-2.15420882
 Virial quotient                       -0.89680396
 !UKS STATE 1.1 Dipole moment          -0.06632230    -0.00000000     0.11635637
 Dipole moment /Debye                  -0.16856342    -0.00000000     0.29572903

 Orbital energies for positive spin:

         1.1          2.1          3.1          4.1          5.1          6.1          7.1          8.1          9.1         10.1
    -15.868576    -7.756253    -7.754118    -7.746458    -0.356956    -0.174830    -0.083076    -0.025373     0.051080     0.069785

        11.1         12.1         13.1         14.1         15.1         16.1         17.1         18.1         19.1
      0.095484     0.114195     0.152932     0.184452     0.195840     0.390600     0.458223     0.758762     0.813714

 Orbital energies for negative spin:

         1.1          2.1          3.1          4.1          5.1          6.1          7.1          8.1          9.1         10.1
    -15.868576    -7.756253    -7.754118    -7.746458    -0.356956    -0.174830    -0.083076    -0.025373     0.051080     0.069785

        11.1         12.1         13.1         14.1         15.1         16.1         17.1         18.1         19.1
      0.095484     0.114195     0.152932     0.184452     0.195840     0.390600     0.458223     0.758762     0.813714

 HOMO     17.1     0.458223 =      12.4689eV
 LUMO     18.1     0.758762 =      20.6470eV
 LUMO-HOMO         0.300539 =       8.1781eV

 EXPECTATION VALUE OF S**2:             0.00000000

 Natural orbitals saved to record    2200.2 (Orbital set 3)

 Orbital spaces for UNO-CAS (Min. occupation: 0.020  Max. occupation: 1.980):

 Closed:       17
 Active:        0


 **********************************************************************************************************************************
 DATASETS  * FILE   NREC   LENGTH (MB)   RECORD NAMES
              1      20       31.92       500      610      700      900      950      970     1000      129      960     1100   
                                          VAR    BASINP    GEOM    SYMINP    ZMAT    AOBASIS   BASIS     P2S    ABASIS      S 
                                         1400     1410     1200     1210     1080     1600     1650     1300     1700     1800   
                                           T        V       H0       H01     AOSYM     SMH    MOLCAS    ERIS     OPER     GRID   

              2       5        2.98       700     1000      520     1800     2200   
                                         GEOM     BASIS   MCVARS    GRID      UKS  

 PROGRAMS   *        TOTAL       UKS       INT
 CPU TIMES  *         3.06      2.61      0.30
 REAL TIME  *         4.29 SEC
 DISK USED  *        35.64 MB      
 **********************************************************************************************************************************


 PROGRAM * Intrinsic Basis Bonding Analysis (IBBA)          Author: G. Knizia

 Molecular orbitals read from record     2200.2  Type=UKS/ALPHA (state 1.1)
 Fock matrix read from record            2200.2  Type=UKS/TOTAL (state 1.1)
 Orbital energies read from record       2200.2  Type=UKS/ALPHA (state 1.1)
 Density matrix read from record         2200.2  Type=UKS/CHARGE (state 1.1)

 Number of core orbitals:           4 (   4 )
 Number of closed-shell orbitals:  13 (  13 )

 Basis set MINAO-AUTO-PP generated.      Number of basis functions:   28 

 Polarized AO type:                A = (O Ot + (1-O)(1-Ot)) P12
 Orthogonalization method:         Symmetric (Loewdin)
 Localization functional:          L = sum[A,i] <i|n_A|i>^4 -> max

 Localization group 1:  17 orbitals, occupancy  2.000
 Iterative localization: IB/PM,    7 iter; Final gradient 0.20E-08

 Bond order analysis:       [THRPRINT= 0.020]

   CEN ATOM   CEN ATOM     WIBERG.BO      RENORM.BO
     1   C  -   2   O       1.098067       1.050403
     1   C  -   6   H       0.955847       0.952649
     1   C  -   7   H       0.934231       0.897760
     1   C  -   8   H       0.934231       0.897760

     2   O  -   1   C       1.098067       1.050403
     2   O  -   3   C       1.073423       1.027264
     2   O  -   8   H       0.053819       0.030641
     2   O  -   7   H       0.053819       0.030641
     2   O  -  10   H       0.049949       0.028454
     2   O  -   9   H       0.049949       0.028454

     3   C  -   2   O       1.073423       1.027264
     3   C  -   4   C       1.006026       0.999971
     3   C  -  10   H       0.922698       0.888676
     3   C  -   9   H       0.922698       0.888676

     4   C  -   3   C       1.006026       0.999971
     4   C  -   5   H       0.968920       0.987479
     4   C  -  12   H       0.968593       0.983548
     4   C  -  11   H       0.968593       0.983548

     5   H  -   4   C       0.968920       0.987479

     6   H  -   1   C       0.955847       0.952649

     7   H  -   1   C       0.934231       0.897760
     7   H  -   2   O       0.053819       0.030641

     8   H  -   1   C       0.934231       0.897760
     8   H  -   2   O       0.053819       0.030641

     9   H  -   3   C       0.922698       0.888676
     9   H  -   2   O       0.049949       0.028454

    10   H  -   3   C       0.922698       0.888676
    10   H  -   2   O       0.049949       0.028454

    11   H  -   4   C       0.968593       0.983548

    12   H  -   4   C       0.968593       0.983548


 Valency analysis:

   CEN ATOM   TOT.VALENCE
     1   C       3.947478
     2   O       2.431760
     3   C       3.958556
     4   C       3.949842
     5   H       0.995216
     6   H       0.997027
     7   H       0.999375
     8   H       0.999375
     9   H       0.999457
    10   H       0.999457
    11   H       0.995782
    12   H       0.995782

 Total charge composition:

   CEN ATOM         s          p       ELECTRONS ->P.CHARGE
     1   C       2.90958    3.25100      6.16058   -0.16058
     2   O       3.55177    4.35012      7.90190    0.09810
     3   C       2.89808    3.18330      6.08137   -0.08137
     4   C       2.88350    3.32283      6.20634   -0.20634
     5   H       0.93083                 0.93083    0.06917
     6   H       0.94547                 0.94547    0.05453
     7   H       0.97500                 0.97500    0.02500
     8   H       0.97500                 0.97500    0.02500
     9   H       0.97670                 0.97670    0.02330
    10   H       0.97670                 0.97670    0.02330
    11   H       0.93506                 0.93506    0.06494
    12   H       0.93506                 0.93506    0.06494

 Total charge composition, AO contributions:

   CEN ATOM SHL      SPHERICAL COMPONENTS
     1   C  1s       1.99824
     1   C  2s       0.91134
     1   C  2p       1.13967    1.14721    0.96412

     2   O  1s       1.99886
     2   O  2s       1.55291
     2   O  2p       1.34556    1.81806    1.18650

     3   C  1s       1.99828
     3   C  2s       0.89980
     3   C  2p       0.98193    1.14149    1.05988

     4   C  1s       1.99809
     4   C  2s       0.88542
     4   C  2p       1.12510    1.12193    1.07579

     5   H  1s       0.93083

     6   H  1s       0.94547

     7   H  1s       0.97500

     8   H  1s       0.97500

     9   H  1s       0.97670

    10   H  1s       0.97670

    11   H  1s       0.93506

    12   H  1s       0.93506

 Summary of localized orbital composition:   [THRPRINT= 0.020]

   ORB  GRP  ORB.ENERGY      CENTERS/CHARGES
     1   1   -15.769355      O  2   2.000
     2   1    -7.675579      C  3   2.000
     3   1    -7.674308      C  1   2.000
     4   1    -7.663561      C  4   2.000
     5   1    -0.108675      O  2   1.066   C  1   0.920
     6   1    -0.101265      O  2   1.066   C  3   0.915
     7   1    -0.006105      C  4   0.997   C  3   0.990
     8   1     0.029875      C  1   1.064   H  6   0.927
     9   1     0.035809      C  4   1.061   H 12   0.927
    10   1     0.035809      C  4   1.061   H 11   0.927
    11   1     0.037279      C  4   1.065   H  5   0.922
    12   1     0.039279      C  1   1.055   H  7   0.942
    13   1     0.039279      C  1   1.055   H  8   0.942
    14   1     0.040309      C  3   1.048   H  9   0.941
    15   1     0.040309      C  3   1.048   H 10   0.941
    16   1     0.223187      O  2   1.943   (other: 0.057)
    17   1     0.424668      O  2   1.818   C  1   0.043   C  3   0.040   H  7   0.026   H  8   0.026   H  9   0.024   H 10   0.024

 Localized orbitals saved to record      2200.2  (orbital set 4)


 **********************************************************************************************************************************
 DATASETS  * FILE   NREC   LENGTH (MB)   RECORD NAMES
              1      20       31.92       500      610      700      900      950      970     1000      129      960     1100   
                                          VAR    BASINP    GEOM    SYMINP    ZMAT    AOBASIS   BASIS     P2S    ABASIS      S 
                                         1400     1410     1200     1210     1080     1600     1650     1300     1700     1800   
                                           T        V       H0       H01     AOSYM     SMH    MOLCAS    ERIS     OPER     GRID   

              2       5        2.99       700     1000      520     1800     2200   
                                         GEOM     BASIS   MCVARS    GRID      UKS  

 PROGRAMS   *        TOTAL      IBBA       UKS       INT
 CPU TIMES  *         3.08      0.02      2.61      0.30
 REAL TIME  *         4.38 SEC
 DISK USED  *        35.64 MB      
 **********************************************************************************************************************************
 Molecular orbitals read from record     2200.2  Type=UKS/LOCAL(IBO)  
 Occupation numbers read from record     2200.2  Type=UKS/LOCAL(IBO)  
 Orbital energies read from record       2200.2  Type=UKS/LOCAL(IBO)  
 Redundancy group numbers read from rec  2200.2  Type=UKS/BETA (state 1.1)

 IBBA/STO-3G energy=      0.000000000000

        UKS-SCF 
   -166.29093976
 **********************************************************************************************************************************
 Molpro calculation terminated
