
 Primary working directories    : /tmp/sb13343
 Secondary working directories  : /tmp/sb13343
 Wavefunction directory         : /panfs/panasas01/chem/sb13343/wfu/
 Main file repository           : /tmp/sb13343/

 SHA1      : b4a5b34a9e711420743f49e6833241d17c61fb3c
 NAME      : 2099.9.b4a5b34
 ARCHNAME  : linux/x86_64_openmp
 FC        : /cm/shared/languages/GCC-6.1/bin/gfortran
 BLASLIB   : -lblas
 id        : simonbennie

 Nodes     nprocs
 node32-027    1

 Using customized tuning parameters: mindgm=1; mindgv=20; mindgc=4; mindgr=1; noblas=0; minvec=7
 default implementation of scratch files=df  

 memory,500,m
 geomtyp=xyz
 nosym
 noorient
 geometry={
 C          0.00000        0.00000        0.00000
 O          0.00000        0.00000        1.40962
 C          1.30608        0.00000        1.95787
 C          1.19221        0.00000        3.47353
 H          2.18666        0.00000        3.93332
 H         -1.04410        0.00000       -0.32474
 H          0.50079       -0.89267       -0.41051
 H          0.50079        0.89267       -0.41051
 H          1.86435       -0.88728        1.61056
 H          1.86435        0.88728        1.61056
 H          0.64981       -0.88690        3.81673
 H          0.64981        0.88690        3.81673
 }
 basis={ default,sto-3g }
 {ks,B-VWN,direct;wf,34,1,0}
 {ibba,bonds=1}

 Variables initialized (895), CPU time= 0.00 sec
 Commands  initialized (725), CPU time= 0.02 sec, 591 directives.
 Default parameters read. Elapsed time= 0.09 sec

 Checking input...
 Passed
1


                                         ***  PROGRAM SYSTEM MOLPRO  ***
                                       Copyright, TTI GmbH Stuttgart, 2015
                                    Version 2099.9 linked May 26 2017 16:03:21


 **********************************************************************************************************************************
 LABEL *                                                                                 
  64 bit serial version                                                                  DATE: 08-Jun-17          TIME: 09:51:11  
 **********************************************************************************************************************************

 SHA1:             b4a5b34a9e711420743f49e6833241d17c61fb3c
 **********************************************************************************************************************************
 SETTING GEOMTYP        =    XYZ

 Variable memory set to  500000000 words,  buffer space 

 ZSYMEL=NOSYM

 SETTING BASIS          =    STO-3G


 Recomputing integrals since basis changed


 Using spherical harmonics

 Library entry C      S STO-3G               selected for orbital group  1
 Library entry C      P STO-3G               selected for orbital group  1
 Library entry O      S STO-3G               selected for orbital group  2
 Library entry O      P STO-3G               selected for orbital group  2
 Library entry H      S STO-3G               selected for orbital group  4


 PROGRAM * SEWARD (Integral evaluation for generally contracted gaussian basis sets)     Author: Roland Lindh, 1990

 Geometry written to block  1 of record 700


 Point group  C1  



 ATOMIC COORDINATES

 NR  ATOM    CHARGE       X              Y              Z

   1  C       6.00    0.000000000    0.000000000    0.000000000
   2  O       8.00    0.000000000    0.000000000    2.663795740
   3  C       6.00    2.468133497    0.000000000    3.699838088
   4  C       6.00    2.252950383    0.000000000    6.564020385
   5  H       1.00    4.132188528    0.000000000    7.432897560
   6  H       1.00   -1.973063047    0.000000000   -0.613669662
   7  H       1.00    0.946355946   -1.686901820   -0.775751471
   8  H       1.00    0.946355946    1.686901820   -0.775751471
   9  H       1.00    3.523110900   -1.676716196    3.043517307
  10  H       1.00    3.523110900    1.676716196    3.043517307
  11  H       1.00    1.227962933   -1.675998100    7.212574391
  12  H       1.00    1.227962933    1.675998100    7.212574391

 Bond lengths in Bohr (Angstrom)

 1-2  2.663795740  1-6  2.066293358  1-7  2.083990804  1-8  2.083990804  2-3  2.676764223
     ( 1.409620000)     ( 1.093435356)     ( 1.102800441)     ( 1.102800441)     ( 1.416482626)

  3- 4  2.872254168   3- 9  2.086890388   3-10  2.086890388   4- 5  2.070382464   4-11  2.068862297
       ( 1.519931450)       ( 1.104334835)       ( 1.104334835)       ( 1.095599218)       ( 1.094794780)

  4-12  2.068862297
       ( 1.094794780)

 Bond angles

  1-2-3  112.77108340   2-1-6  107.27693969   2-1-7  111.85402987   2-1-8  111.85402987

  2- 3- 4  108.47458109   2- 3- 9  110.14508041   2- 3-10  110.14508041   3- 4- 5  110.51724552

  3- 4-11  110.47015208   3- 4-12  110.47015208   4- 3- 9  110.57823876   4- 3-10  110.57823876

  5- 4-11  108.55021133   5- 4-12  108.55021133   6- 1- 7  108.84842497   6- 1- 8  108.84842497

  7- 1- 8  108.08590744   9- 3-10  106.92203462  11- 4-12  108.21261054

 NUCLEAR CHARGE:                   34
 NUMBER OF PRIMITIVE AOS:          84
 NUMBER OF SYMMETRY AOS:           84
 NUMBER OF CONTRACTIONS:           28   (  28A   )
 NUMBER OF CORE ORBITALS:           4   (   4A   )
 NUMBER OF VALENCE ORBITALS:       24   (  24A   )


 NUCLEAR REPULSION ENERGY  133.31979421


 Eigenvalues of metric

         1 0.212E+00 0.234E+00 0.263E+00 0.352E+00 0.360E+00 0.368E+00 0.374E+00 0.394E+00


 Contracted 2-electron integrals neglected if value below      1.0D-11
 AO integral compression algorithm  1   Integral accuracy      1.0D-11

     0.786 MB (compressed) written to integral file ( 77.9%)


 NUMBER OF SORTED TWO-ELECTRON INTEGRALS:      82621.     BUFFER LENGTH:  32768
 NUMBER OF SEGMENTS:   1  SEGMENT LENGTH:      82621      RECORD LENGTH: 524288

 Memory used in sort:       0.64 MW

 SORT1 READ       95283. AND WROTE       67599. INTEGRALS IN      1 RECORDS. CPU TIME:     0.00 SEC, REAL TIME:     0.01 SEC
 SORT2 READ       67599. AND WROTE       82621. INTEGRALS IN      3 RECORDS. CPU TIME:     0.01 SEC, REAL TIME:     0.02 SEC

 FILE SIZES:   FILE 1:    31.0 MBYTE,  FILE 4:     4.2 MBYTE,   TOTAL:     35.2 MBYTE

 OPERATOR DM      FOR CENTER  0  COORDINATES:    0.000000    0.000000    0.000000


 **********************************************************************************************************************************
 DATASETS  * FILE   NREC   LENGTH (MB)   RECORD NAMES
              1      19       30.48       500      610      700      900      950      970     1000      129      960     1100   
                                          VAR    BASINP    GEOM    SYMINP    ZMAT    AOBASIS   BASIS     P2S    ABASIS      S 
                                         1400     1410     1200     1210     1080     1600     1650     1300     1700   
                                           T        V       H0       H01     AOSYM     SMH    MOLCAS    ERIS     OPER   

 PROGRAMS   *        TOTAL       INT
 CPU TIMES  *         0.59      0.45
 REAL TIME  *         0.99 SEC
 DISK USED  *        35.64 MB      
 **********************************************************************************************************************************

 Density functional group B-VWN=B88+VWN5
 Functional: B88(Automatically generated (new) B88)                            Gradient terms: 1
 Functional: VWN5(Automatically generated (new) VWN5)                          Gradient terms: 0
 Use grid at  1800.2

 Functional: B88                       Factor:  1.0000
 Functional: VWN5                      Factor:  1.0000

 Generated new metagrid on record  1800.2 with target accuracy 1.0D-06 and 44796 points in CPU time    1.2
 Computed new grid on record 1800.1 in CPU time    1.3
   26632 words reserved for DFT integration

 PROGRAM * RKS-SCF (Restricted closed shell Kohn-Sham)     Authors: W. Meyer, H.-J. Werner, P.J. Knowles, 1993

 NUMBER OF ELECTRONS:      17+   17-    SPACE SYMMETRY=1    SPIN SYMMETRY: Singlet 
 CONVERGENCE THRESHOLDS:    1.00E-05 (Density)    1.00E-06 (Energy)
 MAX. NUMBER OF ITERATIONS:       60
 INTERPOLATION TYPE:            DIIS
 INTERPOLATION STEPS:              2 (START)      1 (STEP)
 LEVEL SHIFTS:                  0.00 (CLOSED)  0.00 (OPEN) 



 Use fine grid record 1800.2 for energy threshold  1.0D-06
 Orbital guess generated from atomic densities. Full valence occupancy:   17

 Molecular orbital dump at record        2100.2

 Initial occupancy:  17

 ITERATION    DDIFF          GRAD             ENERGY        2-EL.EN.            DIPOLE MOMENTS         DIIS   ORB.
    1      0.000D+00      0.000D+00      -192.61025441    464.955288    0.99924   -0.00000   -0.61290    0    start
    2      0.000D+00      0.273D-01      -192.54978362    443.232132   -0.70215   -0.00000    0.74336    1    diag
    3      0.107D+00      0.324D-01      -192.80453527    453.772713    0.46672   -0.00000   -0.24564    2    diag
    4      0.601D-01      0.533D-02      -192.81050512    454.154721    0.31621   -0.00000   -0.14665    3    diag
    5      0.100D-01      0.123D-02      -192.81082999    454.101195    0.33342   -0.00000   -0.14675    4    diag
    6      0.189D-02      0.121D-03      -192.81083348    454.102629    0.33521   -0.00000   -0.15027    5    diag
    7      0.275D-03      0.410D-04      -192.81083388    454.103709    0.33654   -0.00000   -0.15068    6    diag
    8      0.719D-04      0.203D-05      -192.81083388    454.103963    0.33642   -0.00000   -0.15078    7    diag
    9      0.510D-05      0.576D-06      -192.81083388    454.104020    0.33643   -0.00000   -0.15078    0    orth

 Final occupancy:  17

 !RKS STATE 1.1 Energy               -192.810833883737
 Nuclear energy                       133.31979421
 One-electron energy                 -524.34700941
 Two-electron energy                  227.05201018
 Density functional                   -28.83562887     B88=-26.67097222 VWN5= -2.16465665
 Virial quotient                       -1.02139050
 !RKS STATE 1.1 Dipole moment           0.33643352    -0.00000000    -0.15077798
 Dipole moment /Debye                   0.85507272    -0.00000000    -0.38321431

 Orbital energies:

         1.1          2.1          3.1          4.1          5.1          6.1          7.1          8.1          9.1         10.1
    -18.583838    -9.844229    -9.837896    -9.798466    -0.896003    -0.665633    -0.584573    -0.521314    -0.400755    -0.399250

        11.1         12.1         13.1         14.1         15.1         16.1         17.1         18.1         19.1
     -0.372068    -0.353214    -0.320373    -0.293798    -0.293479    -0.173534    -0.098123     0.232701     0.322991

 HOMO     17.1    -0.098123 =      -2.6701eV
 LUMO     18.1     0.232701 =       6.3321eV
 LUMO-HOMO         0.330825 =       9.0022eV


 **********************************************************************************************************************************
 DATASETS  * FILE   NREC   LENGTH (MB)   RECORD NAMES
              1      20       31.92       500      610      700      900      950      970     1000      129      960     1100   
                                          VAR    BASINP    GEOM    SYMINP    ZMAT    AOBASIS   BASIS     P2S    ABASIS      S 
                                         1400     1410     1200     1210     1080     1600     1650     1300     1700     1800   
                                           T        V       H0       H01     AOSYM     SMH    MOLCAS    ERIS     OPER     GRID   

              2       5        2.96       700     1000      520     1800     2100   
                                         GEOM     BASIS   MCVARS    GRID      RKS  

 PROGRAMS   *        TOTAL        KS       INT
 CPU TIMES  *         3.83      3.24      0.45
 REAL TIME  *         4.39 SEC
 DISK USED  *        35.64 MB      
 **********************************************************************************************************************************


 PROGRAM * Intrinsic Basis Bonding Analysis (IBBA)          Author: G. Knizia

 Molecular orbitals read from record     2100.2  Type=RKS/CANONICAL (state 1.1)
 Fock matrix read from record            2100.2  Type=RKS/TOTAL (state 1.1)
 Orbital energies read from record       2100.2  Type=RKS/CANONICAL (state 1.1)
 Density matrix read from record         2100.2  Type=RKS/CHARGE (state 1.1)

 Number of core orbitals:           4 (   4 )
 Number of closed-shell orbitals:  13 (  13 )

 Basis set MINAO-AUTO-PP generated.      Number of basis functions:   28 

 Polarized AO type:                A = (O Ot + (1-O)(1-Ot)) P12
 Orthogonalization method:         Symmetric (Loewdin)
 Localization functional:          L = sum[A,i] <i|n_A|i>^4 -> max

 Localization group 1:  17 orbitals, occupancy  2.000
 Iterative localization: IB/PM,    7 iter; Final gradient 0.59E-09

 Bond order analysis:       [THRPRINT= 0.020]

   CEN ATOM   CEN ATOM     WIBERG.BO      RENORM.BO
     1   C  -   2   O       1.022747       1.020603
     1   C  -   6   H       0.956593       0.972761
     1   C  -   7   H       0.951080       0.939537
     1   C  -   8   H       0.951080       0.939537

     2   O  -   1   C       1.022747       1.020603
     2   O  -   3   C       1.005386       0.999256
     2   O  -   8   H       0.033240       0.019756
     2   O  -   7   H       0.033240       0.019756
     2   O  -  10   H       0.030595       0.018216
     2   O  -   9   H       0.030595       0.018216

     3   C  -   4   C       1.016919       1.008283
     3   C  -   2   O       1.005386       0.999256
     3   C  -   9   H       0.940734       0.929645
     3   C  -  10   H       0.940734       0.929645

     4   C  -   3   C       1.016919       1.008283
     4   C  -   5   H       0.965274       0.991337
     4   C  -  12   H       0.963587       0.986428
     4   C  -  11   H       0.963587       0.986428

     5   H  -   4   C       0.965274       0.991337

     6   H  -   1   C       0.956593       0.972761

     7   H  -   1   C       0.951080       0.939537
     7   H  -   2   O       0.033240       0.019756

     8   H  -   1   C       0.951080       0.939537
     8   H  -   2   O       0.033240       0.019756

     9   H  -   3   C       0.940734       0.929645
     9   H  -   2   O       0.030595       0.018216

    10   H  -   3   C       0.940734       0.929645
    10   H  -   2   O       0.030595       0.018216

    11   H  -   4   C       0.963587       0.986428

    12   H  -   4   C       0.963587       0.986428


 Valency analysis:

   CEN ATOM   TOT.VALENCE
     1   C       3.902613
     2   O       2.185019
     3   C       3.927519
     4   C       3.935343
     5   H       0.982406
     6   H       0.981689
     7   H       0.988436
     8   H       0.988436
     9   H       0.988858
    10   H       0.988858
    11   H       0.982016
    12   H       0.982016

 Total charge composition:

   CEN ATOM         s          p       ELECTRONS ->P.CHARGE
     1   C       3.00748    3.23827      6.24575   -0.24575
     2   O       3.65746    4.56023      8.21769   -0.21769
     3   C       2.98524    3.12966      6.11490   -0.11490
     4   C       2.99665    3.38736      6.38401   -0.38401
     5   H       0.86736                 0.86736    0.13264
     6   H       0.86468                 0.86468    0.13532
     7   H       0.89247                 0.89247    0.10753
     8   H       0.89247                 0.89247    0.10753
     9   H       0.89445                 0.89445    0.10555
    10   H       0.89445                 0.89445    0.10555
    11   H       0.86589                 0.86589    0.13411
    12   H       0.86589                 0.86589    0.13411

 Total charge composition, AO contributions:

   CEN ATOM SHL      SPHERICAL COMPONENTS
     1   C  1s       1.99255
     1   C  2s       1.01493
     1   C  2p       1.18251    1.17312    0.88263

     2   O  1s       1.99729
     2   O  2s       1.66016
     2   O  2p       1.40045    1.90243    1.25736

     3   C  1s       1.99276
     3   C  2s       0.99248
     3   C  2p       0.91970    1.16921    1.04075

     4   C  1s       1.99187
     4   C  2s       1.00478
     4   C  2p       1.16526    1.17121    1.05088

     5   H  1s       0.86736

     6   H  1s       0.86468

     7   H  1s       0.89247

     8   H  1s       0.89247

     9   H  1s       0.89445

    10   H  1s       0.89445

    11   H  1s       0.86589

    12   H  1s       0.86589

 Summary of localized orbital composition:   [THRPRINT= 0.020]

   ORB  GRP  ORB.ENERGY      CENTERS/CHARGES
     1   1   -18.426544      O  2   2.000
     2   1    -9.742945      C  3   2.000
     3   1    -9.732868      C  1   2.000
     4   1    -9.687703      C  4   2.000
     5   1    -0.615548      O  2   1.168   C  1   0.821
     6   1    -0.605944      O  2   1.172   C  3   0.814
     7   1    -0.502335      C  3   1.007   C  4   0.983
     8   1    -0.453669      C  1   1.137   H  6   0.855
     9   1    -0.450175      C  1   1.126   H  7   0.873
    10   1    -0.450175      C  1   1.126   H  8   0.873
    11   1    -0.447199      C  3   1.121   H  9   0.872
    12   1    -0.447199      C  3   1.121   H 10   0.872
    13   1    -0.445877      O  2   1.969   (other: 0.031)
    14   1    -0.437056      C  4   1.127   H  5   0.861
    15   1    -0.431065      C  4   1.131   H 11   0.860
    16   1    -0.431065      C  4   1.131   H 12   0.860
    17   1    -0.129180      O  2   1.902   (other: 0.098)

 Localized orbitals saved to record      2100.2  (orbital set 2)


 **********************************************************************************************************************************
 DATASETS  * FILE   NREC   LENGTH (MB)   RECORD NAMES
              1      20       31.92       500      610      700      900      950      970     1000      129      960     1100   
                                          VAR    BASINP    GEOM    SYMINP    ZMAT    AOBASIS   BASIS     P2S    ABASIS      S 
                                         1400     1410     1200     1210     1080     1600     1650     1300     1700     1800   
                                           T        V       H0       H01     AOSYM     SMH    MOLCAS    ERIS     OPER     GRID   

              2       5        2.97       700     1000      520     1800     2100   
                                         GEOM     BASIS   MCVARS    GRID      RKS  

 PROGRAMS   *        TOTAL      IBBA        KS       INT
 CPU TIMES  *         3.87      0.03      3.24      0.45
 REAL TIME  *         4.51 SEC
 DISK USED  *        35.64 MB      
 **********************************************************************************************************************************
 Molecular orbitals read from record     2100.2  Type=RKS/LOCAL(IBO)  
 Occupation numbers read from record     2100.2  Type=RKS/LOCAL(IBO)  
 Orbital energies read from record       2100.2  Type=RKS/LOCAL(IBO)  
 Redundancy group numbers read from rec  2100.2  Type=RKS/LOCAL(IBO)  

 IBBA/STO-3G energy=      0.000000000000

        KS-SCF  
   -192.81083388
 **********************************************************************************************************************************
 Molpro calculation terminated
