
 Primary working directories    : /tmp/sb13343
 Secondary working directories  : /tmp/sb13343
 Wavefunction directory         : /panfs/panasas01/chem/sb13343/wfu/
 Main file repository           : /tmp/sb13343/

 SHA1      : b4a5b34a9e711420743f49e6833241d17c61fb3c
 NAME      : 2099.9.b4a5b34
 ARCHNAME  : linux/x86_64_openmp
 FC        : /cm/shared/languages/GCC-6.1/bin/gfortran
 BLASLIB   : -lblas
 id        : simonbennie

 Nodes     nprocs
 node47-023    1

 Using customized tuning parameters: mindgm=1; mindgv=20; mindgc=4; mindgr=1; noblas=0; minvec=7
 default implementation of scratch files=df  

 memory,500,m
 geomtyp=xyz
 nosym
 noorient
 geometry={
 C          0.00000        0.00000        0.00000
 O          0.00000        0.00000        1.40962
 C          1.30608        0.00000        1.95787
 C          1.19221        0.00000        3.47353
 H          2.18666        0.00000        3.93332
 H         -1.04410        0.00000       -0.32474
 H          0.50079       -0.89267       -0.41051
 H          0.50079        0.89267       -0.41051
 H          1.86435       -0.88728        1.61056
 H          1.86435        0.88728        1.61056
 H          0.64981       -0.88690        3.81673
 H          0.64981        0.88690        3.81673
 }
 basis={ default,svp }
 {ks,MM06-2X,direct;wf,34,1,0}
 {ibba,bonds=1}

 Variables initialized (895), CPU time= 0.00 sec
 Commands  initialized (725), CPU time= 0.01 sec, 591 directives.
 Default parameters read. Elapsed time= 0.07 sec

 Checking input...
 Passed
1


                                         ***  PROGRAM SYSTEM MOLPRO  ***
                                       Copyright, TTI GmbH Stuttgart, 2015
                                    Version 2099.9 linked May 26 2017 16:03:21


 **********************************************************************************************************************************
 LABEL *                                                                                 
  64 bit serial version                                                                  DATE: 08-Jun-17          TIME: 10:14:39  
 **********************************************************************************************************************************

 SHA1:             b4a5b34a9e711420743f49e6833241d17c61fb3c
 **********************************************************************************************************************************
 SETTING GEOMTYP        =    XYZ

 Variable memory set to  500000000 words,  buffer space 

 ZSYMEL=NOSYM

 SETTING BASIS          =    SVP


 Recomputing integrals since basis changed


 Using spherical harmonics

 Library entry C      S def2-SVP             selected for orbital group  1
 Library entry C      P def2-SVP             selected for orbital group  1
 Library entry C      D def2-SVP             selected for orbital group  1
 Library entry O      S def2-SVP             selected for orbital group  2
 Library entry O      P def2-SVP             selected for orbital group  2
 Library entry O      D def2-SVP             selected for orbital group  2
 Library entry H      S def2-SVP             selected for orbital group  4
 Library entry H      P def2-SVP             selected for orbital group  4


 PROGRAM * SEWARD (Integral evaluation for generally contracted gaussian basis sets)     Author: Roland Lindh, 1990

 Geometry written to block  1 of record 700


 Point group  C1  



 ATOMIC COORDINATES

 NR  ATOM    CHARGE       X              Y              Z

   1  C       6.00    0.000000000    0.000000000    0.000000000
   2  O       8.00    0.000000000    0.000000000    2.663795740
   3  C       6.00    2.468133497    0.000000000    3.699838088
   4  C       6.00    2.252950383    0.000000000    6.564020385
   5  H       1.00    4.132188528    0.000000000    7.432897560
   6  H       1.00   -1.973063047    0.000000000   -0.613669662
   7  H       1.00    0.946355946   -1.686901820   -0.775751471
   8  H       1.00    0.946355946    1.686901820   -0.775751471
   9  H       1.00    3.523110900   -1.676716196    3.043517307
  10  H       1.00    3.523110900    1.676716196    3.043517307
  11  H       1.00    1.227962933   -1.675998100    7.212574391
  12  H       1.00    1.227962933    1.675998100    7.212574391

 Bond lengths in Bohr (Angstrom)

 1-2  2.663795740  1-6  2.066293358  1-7  2.083990804  1-8  2.083990804  2-3  2.676764223
     ( 1.409620000)     ( 1.093435356)     ( 1.102800441)     ( 1.102800441)     ( 1.416482626)

  3- 4  2.872254168   3- 9  2.086890388   3-10  2.086890388   4- 5  2.070382464   4-11  2.068862297
       ( 1.519931450)       ( 1.104334835)       ( 1.104334835)       ( 1.095599218)       ( 1.094794780)

  4-12  2.068862297
       ( 1.094794780)

 Bond angles

  1-2-3  112.77108340   2-1-6  107.27693969   2-1-7  111.85402987   2-1-8  111.85402987

  2- 3- 4  108.47458109   2- 3- 9  110.14508041   2- 3-10  110.14508041   3- 4- 5  110.51724552

  3- 4-11  110.47015208   3- 4-12  110.47015208   4- 3- 9  110.57823876   4- 3-10  110.57823876

  5- 4-11  108.55021133   5- 4-12  108.55021133   6- 1- 7  108.84842497   6- 1- 8  108.84842497

  7- 1- 8  108.08590744   9- 3-10  106.92203462  11- 4-12  108.21261054

 NUCLEAR CHARGE:                   34
 NUMBER OF PRIMITIVE AOS:         156
 NUMBER OF SYMMETRY AOS:          152
 NUMBER OF CONTRACTIONS:           96   (  96A   )
 NUMBER OF CORE ORBITALS:           4   (   4A   )
 NUMBER OF VALENCE ORBITALS:       24   (  24A   )


 NUCLEAR REPULSION ENERGY  133.31979421


 Eigenvalues of metric

         1 0.364E-02 0.952E-02 0.147E-01 0.282E-01 0.312E-01 0.319E-01 0.432E-01 0.449E-01


 Contracted 2-electron integrals neglected if value below      1.0D-11
 AO integral compression algorithm  1   Integral accuracy      1.0D-11

     37.487 MB (compressed) written to integral file ( 40.8%)


 NUMBER OF SORTED TWO-ELECTRON INTEGRALS:   10841496.     BUFFER LENGTH:  32768
 NUMBER OF SEGMENTS:   1  SEGMENT LENGTH:   10841496      RECORD LENGTH: 524288

 Memory used in sort:      11.40 MW

 SORT1 READ    11483613. AND WROTE     8333550. INTEGRALS IN     24 RECORDS. CPU TIME:     0.13 SEC, REAL TIME:     0.23 SEC
 SORT2 READ     8333550. AND WROTE    10841496. INTEGRALS IN    143 RECORDS. CPU TIME:     0.27 SEC, REAL TIME:     0.32 SEC

 FILE SIZES:   FILE 1:    68.0 MBYTE,  FILE 4:   100.7 MBYTE,   TOTAL:    168.7 MBYTE

 OPERATOR DM      FOR CENTER  0  COORDINATES:    0.000000    0.000000    0.000000


 **********************************************************************************************************************************
 DATASETS  * FILE   NREC   LENGTH (MB)   RECORD NAMES
              1      19       62.89       500      610      700      900      950      970     1000      129      960     1100   
                                          VAR    BASINP    GEOM    SYMINP    ZMAT    AOBASIS   BASIS     P2S    ABASIS      S 
                                         1400     1410     1200     1210     1080     1600     1650     1300     1700   
                                           T        V       H0       H01     AOSYM     SMH    MOLCAS    ERIS     OPER   

 PROGRAMS   *        TOTAL       INT
 CPU TIMES  *         1.78      1.65
 REAL TIME  *         2.34 SEC
 DISK USED  *       169.15 MB      
 **********************************************************************************************************************************

 Density functional group MM06-2X=M062XX+M062XC
 Functional: M062XX(Automatically generated (new) M062XX)                      Gradient terms: 2
 Functional: M062XC(Automatically generated (new) M062XC)                      Gradient terms: 2
 Use grid at  1800.2


 Exact exchange will be calculated, factor:  0.5400

 Functional: M062XX                    Factor:  0.4600
 Functional: M062XC                    Factor:  1.0000

 Generated new metagrid on record  1800.2 with target accuracy 1.0D-06 and 44796 points in CPU time    1.1
 Computed new grid on record 1800.1 in CPU time    1.2
  153520 words reserved for DFT integration

 PROGRAM * RKS-SCF (Restricted closed shell Kohn-Sham)     Authors: W. Meyer, H.-J. Werner, P.J. Knowles, 1993

 NUMBER OF ELECTRONS:      17+   17-    SPACE SYMMETRY=1    SPIN SYMMETRY: Singlet 
 CONVERGENCE THRESHOLDS:    1.00E-05 (Density)    1.00E-06 (Energy)
 MAX. NUMBER OF ITERATIONS:       60
 INTERPOLATION TYPE:            DIIS
 INTERPOLATION STEPS:              2 (START)      1 (STEP)
 LEVEL SHIFTS:                  0.00 (CLOSED)  0.00 (OPEN) 



 Use fine grid record 1800.2 for energy threshold  1.0D-06
 Orbital guess generated from atomic densities. Full valence occupancy:   17

 Molecular orbital dump at record        2100.2

 Initial occupancy:  17

 ITERATION    DDIFF          GRAD             ENERGY        2-EL.EN.            DIPOLE MOMENTS         DIIS   ORB.
    1      0.000D+00      0.000D+00      -187.54208271    421.216959    0.51595    0.00000   -0.33539    0    start
    2      0.000D+00      0.401D-02      -187.55544824    417.877353    0.29508    0.00000   -0.17704    1    diag
    3      0.548D-02      0.290D-02      -187.56624638    419.349662    0.31858    0.00000   -0.22990    2    diag
    4      0.231D-02      0.420D-03      -187.56646084    419.342353    0.34389    0.00000   -0.23183    3    diag
    5      0.442D-03      0.171D-03      -187.56648770    419.229358    0.32801    0.00000   -0.22647    4    diag
    6      0.181D-03      0.697D-04      -187.56649286    419.274250    0.33089    0.00000   -0.22839    5    diag
    7      0.580D-04      0.936D-05      -187.56649296    419.272454    0.33099    0.00000   -0.22815    6    diag
    8      0.979D-05      0.341D-05      -187.56649296    419.272569    0.33092    0.00000   -0.22831    0    orth

 Final occupancy:  17

 !RKS STATE 1.1 Energy               -187.566492961059
 Nuclear energy                       133.31979421
 One-electron energy                 -523.79976690
 Two-electron energy                  209.63628451
 SCF exchange energy                  -26.23433189     Factor= 0.5400
 Density functional                    -6.72280479     M062XX=-12.00854104 M062XC= -1.19887591
 Virial quotient                       -0.99030701
 !RKS STATE 1.1 Dipole moment           0.33092054     0.00000000    -0.22831319
 Dipole moment /Debye                   0.84106102     0.00000000    -0.58027625

 Orbital energies:

         1.1          2.1          3.1          4.1          5.1          6.1          7.1          8.1          9.1         10.1
    -19.142738   -10.197701   -10.197358   -10.149660    -1.061174    -0.777193    -0.677817    -0.606986    -0.489651    -0.487256

        11.1         12.1         13.1         14.1         15.1         16.1         17.1         18.1         19.1
     -0.453866    -0.415032    -0.372451    -0.351352    -0.339192    -0.306478    -0.244842     0.141946     0.166614

 HOMO     17.1    -0.244842 =      -6.6625eV
 LUMO     18.1     0.141946 =       3.8626eV
 LUMO-HOMO         0.386788 =      10.5250eV


 **********************************************************************************************************************************
 DATASETS  * FILE   NREC   LENGTH (MB)   RECORD NAMES
              1      20       64.33       500      610      700      900      950      970     1000      129      960     1100   
                                          VAR    BASINP    GEOM    SYMINP    ZMAT    AOBASIS   BASIS     P2S    ABASIS      S 
                                         1400     1410     1200     1210     1080     1600     1650     1300     1700     1800   
                                           T        V       H0       H01     AOSYM     SMH    MOLCAS    ERIS     OPER     GRID   

              2       5        3.14       700     1000      520     1800     2100   
                                         GEOM     BASIS   MCVARS    GRID      RKS  

 PROGRAMS   *        TOTAL        KS       INT
 CPU TIMES  *        23.57     21.79      1.65
 REAL TIME  *        24.32 SEC
 DISK USED  *       169.15 MB      
 **********************************************************************************************************************************


 PROGRAM * Intrinsic Basis Bonding Analysis (IBBA)          Author: G. Knizia

 Molecular orbitals read from record     2100.2  Type=RKS/CANONICAL (state 1.1)
 Fock matrix read from record            2100.2  Type=RKS/TOTAL (state 1.1)
 Orbital energies read from record       2100.2  Type=RKS/CANONICAL (state 1.1)
 Density matrix read from record         2100.2  Type=RKS/CHARGE (state 1.1)

 Number of core orbitals:           4 (   4 )
 Number of closed-shell orbitals:  13 (  13 )

 Basis set MINAO-AUTO-PP generated.      Number of basis functions:   28 

 Polarized AO type:                A = (O Ot + (1-O)(1-Ot)) P12
 Orthogonalization method:         Symmetric (Loewdin)
 Localization functional:          L = sum[A,i] <i|n_A|i>^4 -> max

 Localization group 1:  17 orbitals, occupancy  2.000
 Iterative localization: IB/PM,    7 iter; Final gradient 0.34E-09

 Bond order analysis:       [THRPRINT= 0.020]

   CEN ATOM   CEN ATOM     WIBERG.BO      RENORM.BO
     1   C  -   2   O       1.001791       1.022639
     1   C  -   6   H       0.963528       0.977276
     1   C  -   8   H       0.952052       0.934290
     1   C  -   7   H       0.952052       0.934290

     2   O  -   1   C       1.001791       1.022639
     2   O  -   3   C       0.980862       0.993444
     2   O  -   7   H       0.034436       0.019929
     2   O  -   8   H       0.034436       0.019929
     2   O  -  10   H       0.031337       0.018051
     2   O  -   9   H       0.031337       0.018051

     3   C  -   4   C       1.028596       1.022300
     3   C  -   2   O       0.980862       0.993444
     3   C  -  10   H       0.939534       0.921879
     3   C  -   9   H       0.939534       0.921879

     4   C  -   3   C       1.028596       1.022300
     4   C  -   5   H       0.964766       0.988010
     4   C  -  12   H       0.962267       0.980773
     4   C  -  11   H       0.962267       0.980773

     5   H  -   4   C       0.964766       0.988010

     6   H  -   1   C       0.963528       0.977276

     7   H  -   1   C       0.952052       0.934290
     7   H  -   2   O       0.034436       0.019929

     8   H  -   1   C       0.952052       0.934290
     8   H  -   2   O       0.034436       0.019929

     9   H  -   3   C       0.939534       0.921879
     9   H  -   2   O       0.031337       0.018051

    10   H  -   3   C       0.939534       0.921879
    10   H  -   2   O       0.031337       0.018051

    11   H  -   4   C       0.962267       0.980773

    12   H  -   4   C       0.962267       0.980773


 Valency analysis:

   CEN ATOM   TOT.VALENCE
     1   C       3.890050
     2   O       2.151264
     3   C       3.913641
     4   C       3.947178
     5   H       0.987281
     6   H       0.984683
     7   H       0.992879
     8   H       0.992879
     9   H       0.994329
    10   H       0.994329
    11   H       0.986323
    12   H       0.986323

 Total charge composition:

   CEN ATOM         s          p       ELECTRONS ->P.CHARGE
     1   C       2.97848    3.14905      6.12752   -0.12752
     2   O       3.56107    4.78069      8.34176   -0.34176
     3   C       2.94988    3.03555      5.98543    0.01457
     4   C       2.97805    3.35706      6.33512   -0.33512
     5   H       0.88722                 0.88722    0.11278
     6   H       0.87624                 0.87624    0.12376
     7   H       0.91561                 0.91561    0.08439
     8   H       0.91561                 0.91561    0.08439
     9   H       0.92469                 0.92469    0.07531
    10   H       0.92469                 0.92469    0.07531
    11   H       0.88305                 0.88305    0.11695
    12   H       0.88305                 0.88305    0.11695

 Total charge composition, AO contributions:

   CEN ATOM SHL      SPHERICAL COMPONENTS
     1   C  1s       1.99300
     1   C  2s       0.98548
     1   C  2p       1.17113    1.15112    0.82679

     2   O  1s       1.99741
     2   O  2s       1.56365
     2   O  2p       1.52113    1.90195    1.35761

     3   C  1s       1.99323
     3   C  2s       0.95665
     3   C  2p       0.86657    1.14008    1.02890

     4   C  1s       1.99233
     4   C  2s       0.98572
     4   C  2p       1.14798    1.15755    1.05153

     5   H  1s       0.88722

     6   H  1s       0.87624

     7   H  1s       0.91561

     8   H  1s       0.91561

     9   H  1s       0.92469

    10   H  1s       0.92469

    11   H  1s       0.88305

    12   H  1s       0.88305

 Summary of localized orbital composition:   [THRPRINT= 0.020]

   ORB  GRP  ORB.ENERGY      CENTERS/CHARGES
     1   1   -19.006829      O  2   2.000
     2   1   -10.098085      C  3   2.000
     3   1   -10.093432      C  1   2.000
     4   1   -10.039689      C  4   2.000
     5   1    -0.781469      O  2   1.234   C  1   0.758
     6   1    -0.772617      O  2   1.244   C  3   0.744
     7   1    -0.590541      C  3   1.002   C  4   0.990
     8   1    -0.539580      O  2   1.959   (other: 0.041)
     9   1    -0.514725      C  1   1.103   H  8   0.895
    10   1    -0.514725      C  1   1.103   H  7   0.895
    11   1    -0.514083      C  1   1.126   H  6   0.868
    12   1    -0.510447      C  3   1.088   H  9   0.901
    13   1    -0.510447      C  3   1.088   H 10   0.901
    14   1    -0.494685      C  4   1.105   H  5   0.880
    15   1    -0.489811      C  4   1.113   H 12   0.876
    16   1    -0.489811      C  4   1.113   H 11   0.876
    17   1    -0.309771      O  2   1.902   C  1   0.021   C  3   0.021   (other: 0.057)

 Localized orbitals saved to record      2100.2  (orbital set 2)


 **********************************************************************************************************************************
 DATASETS  * FILE   NREC   LENGTH (MB)   RECORD NAMES
              1      20       64.33       500      610      700      900      950      970     1000      129      960     1100   
                                          VAR    BASINP    GEOM    SYMINP    ZMAT    AOBASIS   BASIS     P2S    ABASIS      S 
                                         1400     1410     1200     1210     1080     1600     1650     1300     1700     1800   
                                           T        V       H0       H01     AOSYM     SMH    MOLCAS    ERIS     OPER     GRID   

              2       5        3.21       700     1000      520     1800     2100   
                                         GEOM     BASIS   MCVARS    GRID      RKS  

 PROGRAMS   *        TOTAL      IBBA        KS       INT
 CPU TIMES  *        23.60      0.03     21.79      1.65
 REAL TIME  *        24.43 SEC
 DISK USED  *       169.15 MB      
 **********************************************************************************************************************************
 Molecular orbitals read from record     2100.2  Type=RKS/LOCAL(IBO)  
 Occupation numbers read from record     2100.2  Type=RKS/LOCAL(IBO)  
 Orbital energies read from record       2100.2  Type=RKS/LOCAL(IBO)  
 Redundancy group numbers read from rec  2100.2  Type=RKS/LOCAL(IBO)  

 IBBA/SVP energy=      0.000000000000

        KS-SCF  
   -187.56649296
 **********************************************************************************************************************************
 Molpro calculation terminated
