
 Primary working directories    : /tmp/sb13343
 Secondary working directories  : /tmp/sb13343
 Wavefunction directory         : /panfs/panasas01/chem/sb13343/wfu/
 Main file repository           : /tmp/sb13343/

 SHA1      : b4a5b34a9e711420743f49e6833241d17c61fb3c
 NAME      : 2099.9.b4a5b34
 ARCHNAME  : linux/x86_64_openmp
 FC        : /cm/shared/languages/GCC-6.1/bin/gfortran
 BLASLIB   : -lblas
 id        : simonbennie

 Nodes     nprocs
 node32-030    1

 Using customized tuning parameters: mindgm=1; mindgv=20; mindgc=4; mindgr=1; noblas=0; minvec=7
 default implementation of scratch files=df  

 memory,500,m
 geomtyp=xyz
 nosym
 noorient
 geometry={
 C          0.00000        0.00000        0.00000
 O          0.00000        0.00000        1.40962
 C          1.30608        0.00000        1.95787
 C          1.19221        0.00000        3.47353
 H          2.18666        0.00000        3.93332
 H         -1.04410        0.00000       -0.32474
 H          0.50079       -0.89267       -0.41051
 H          0.50079        0.89267       -0.41051
 H          1.86435       -0.88728        1.61056
 H          1.86435        0.88728        1.61056
 H          0.64981       -0.88690        3.81673
 H          0.64981        0.88690        3.81673
 }
 basis={ default,svp }
 {uks,PBE,direct;wf,34,1,0}
 {ibba,bonds=1}

 Variables initialized (895), CPU time= 0.00 sec
 Commands  initialized (725), CPU time= 0.02 sec, 591 directives.
 Default parameters read. Elapsed time= 0.07 sec

 Checking input...
 Passed
1


                                         ***  PROGRAM SYSTEM MOLPRO  ***
                                       Copyright, TTI GmbH Stuttgart, 2015
                                    Version 2099.9 linked May 26 2017 16:03:21


 **********************************************************************************************************************************
 LABEL *                                                                                 
  64 bit serial version                                                                  DATE: 08-Jun-17          TIME: 10:10:23  
 **********************************************************************************************************************************

 SHA1:             b4a5b34a9e711420743f49e6833241d17c61fb3c
 **********************************************************************************************************************************
 SETTING GEOMTYP        =    XYZ

 Variable memory set to  500000000 words,  buffer space 

 ZSYMEL=NOSYM

 SETTING BASIS          =    SVP


 Recomputing integrals since basis changed


 Using spherical harmonics

 Library entry C      S def2-SVP             selected for orbital group  1
 Library entry C      P def2-SVP             selected for orbital group  1
 Library entry C      D def2-SVP             selected for orbital group  1
 Library entry O      S def2-SVP             selected for orbital group  2
 Library entry O      P def2-SVP             selected for orbital group  2
 Library entry O      D def2-SVP             selected for orbital group  2
 Library entry H      S def2-SVP             selected for orbital group  4
 Library entry H      P def2-SVP             selected for orbital group  4


 PROGRAM * SEWARD (Integral evaluation for generally contracted gaussian basis sets)     Author: Roland Lindh, 1990

 Geometry written to block  1 of record 700


 Point group  C1  



 ATOMIC COORDINATES

 NR  ATOM    CHARGE       X              Y              Z

   1  C       6.00    0.000000000    0.000000000    0.000000000
   2  O       8.00    0.000000000    0.000000000    2.663795740
   3  C       6.00    2.468133497    0.000000000    3.699838088
   4  C       6.00    2.252950383    0.000000000    6.564020385
   5  H       1.00    4.132188528    0.000000000    7.432897560
   6  H       1.00   -1.973063047    0.000000000   -0.613669662
   7  H       1.00    0.946355946   -1.686901820   -0.775751471
   8  H       1.00    0.946355946    1.686901820   -0.775751471
   9  H       1.00    3.523110900   -1.676716196    3.043517307
  10  H       1.00    3.523110900    1.676716196    3.043517307
  11  H       1.00    1.227962933   -1.675998100    7.212574391
  12  H       1.00    1.227962933    1.675998100    7.212574391

 Bond lengths in Bohr (Angstrom)

 1-2  2.663795740  1-6  2.066293358  1-7  2.083990804  1-8  2.083990804  2-3  2.676764223
     ( 1.409620000)     ( 1.093435356)     ( 1.102800441)     ( 1.102800441)     ( 1.416482626)

  3- 4  2.872254168   3- 9  2.086890388   3-10  2.086890388   4- 5  2.070382464   4-11  2.068862297
       ( 1.519931450)       ( 1.104334835)       ( 1.104334835)       ( 1.095599218)       ( 1.094794780)

  4-12  2.068862297
       ( 1.094794780)

 Bond angles

  1-2-3  112.77108340   2-1-6  107.27693969   2-1-7  111.85402987   2-1-8  111.85402987

  2- 3- 4  108.47458109   2- 3- 9  110.14508041   2- 3-10  110.14508041   3- 4- 5  110.51724552

  3- 4-11  110.47015208   3- 4-12  110.47015208   4- 3- 9  110.57823876   4- 3-10  110.57823876

  5- 4-11  108.55021133   5- 4-12  108.55021133   6- 1- 7  108.84842497   6- 1- 8  108.84842497

  7- 1- 8  108.08590744   9- 3-10  106.92203462  11- 4-12  108.21261054

 NUCLEAR CHARGE:                   34
 NUMBER OF PRIMITIVE AOS:         156
 NUMBER OF SYMMETRY AOS:          152
 NUMBER OF CONTRACTIONS:           96   (  96A   )
 NUMBER OF CORE ORBITALS:           4   (   4A   )
 NUMBER OF VALENCE ORBITALS:       24   (  24A   )


 NUCLEAR REPULSION ENERGY  133.31979421


 Eigenvalues of metric

         1 0.364E-02 0.952E-02 0.147E-01 0.282E-01 0.312E-01 0.319E-01 0.432E-01 0.449E-01


 Contracted 2-electron integrals neglected if value below      1.0D-11
 AO integral compression algorithm  1   Integral accuracy      1.0D-11

     37.487 MB (compressed) written to integral file ( 40.8%)


 NUMBER OF SORTED TWO-ELECTRON INTEGRALS:   10841496.     BUFFER LENGTH:  32768
 NUMBER OF SEGMENTS:   1  SEGMENT LENGTH:   10841496      RECORD LENGTH: 524288

 Memory used in sort:      11.40 MW

 SORT1 READ    11483613. AND WROTE     8333550. INTEGRALS IN     24 RECORDS. CPU TIME:     0.14 SEC, REAL TIME:     0.26 SEC
 SORT2 READ     8333550. AND WROTE    10841496. INTEGRALS IN    143 RECORDS. CPU TIME:     0.27 SEC, REAL TIME:     0.35 SEC

 FILE SIZES:   FILE 1:    68.0 MBYTE,  FILE 4:   100.7 MBYTE,   TOTAL:    168.7 MBYTE

 OPERATOR DM      FOR CENTER  0  COORDINATES:    0.000000    0.000000    0.000000


 **********************************************************************************************************************************
 DATASETS  * FILE   NREC   LENGTH (MB)   RECORD NAMES
              1      19       62.89       500      610      700      900      950      970     1000      129      960     1100   
                                          VAR    BASINP    GEOM    SYMINP    ZMAT    AOBASIS   BASIS     P2S    ABASIS      S 
                                         1400     1410     1200     1210     1080     1600     1650     1300     1700   
                                           T        V       H0       H01     AOSYM     SMH    MOLCAS    ERIS     OPER   

 PROGRAMS   *        TOTAL       INT
 CPU TIMES  *         2.04      1.90
 REAL TIME  *         2.69 SEC
 DISK USED  *       169.15 MB      
 **********************************************************************************************************************************

 Density functional group PBE=PBEX+PBEC
 Functional: PBEX(Automatically generated (new) PBEX)                          Gradient terms: 1
 Functional: PBEC(Automatically generated (new) PBEC)                          Gradient terms: 1
 Use grid at  1800.2

 Functional: PBEX                      Factor:  1.0000
 Functional: PBEC                      Factor:  1.0000

 Generated new metagrid on record  1800.2 with target accuracy 1.0D-06 and 44796 points in CPU time    1.1
 Computed new grid on record 1800.1 in CPU time    1.3
   80368 words reserved for DFT integration

 PROGRAM * UKS-SCF (Unrestricted Kohn-Sham)     Authors: W. Meyer, H.-J. Werner, P.J. Knowles, 1993

 NUMBER OF ELECTRONS:      17+   17-    SPACE SYMMETRY=1    SPIN SYMMETRY: Singlet 
 CONVERGENCE THRESHOLDS:    1.00E-05 (Density)    1.00E-06 (Energy)
 MAX. NUMBER OF ITERATIONS:       60
 INTERPOLATION TYPE:            DIIS
 INTERPOLATION STEPS:              2 (START)      1 (STEP)
 LEVEL SHIFTS:                 -0.20 (ALPHA)  -0.20 (BETA) 



 Use fine grid record 1800.2 for energy threshold  1.0D-06
 Orbital guess generated from atomic densities. Full valence occupancy:   17

 Molecular orbital dump at record        2200.2

 Initial alpha occupation  17
 Initial beta  occupation  17

 ITERATION    DDIFF          GRAD             ENERGY        2-EL.EN.            DIPOLE MOMENTS         DIIS
    1      0.000D+00      0.000D+00      -193.76397176    465.272540    0.75574   -0.00000   -0.49169    0
    2      0.132D-01      0.580D-02      -193.90685555    448.711036    0.27201   -0.00000   -0.16559    1
    3      0.440D-02      0.292D-02      -193.93937454    453.489687    0.42056   -0.00000   -0.26451    2
    4      0.118D-02      0.464D-03      -193.94037841    453.088549    0.36863   -0.00000   -0.23339    3
    5      0.778D-03      0.225D-03      -193.94072400    453.066166    0.36663   -0.00000   -0.23100    4
    6      0.557D-03      0.608D-04      -193.94078966    453.016834    0.35567   -0.00000   -0.22533    5
    7      0.112D-03      0.196D-04      -193.94079327    453.020960    0.35585   -0.00000   -0.22390    6
    8      0.349D-04      0.101D-04      -193.94079391    453.017212    0.35496   -0.00000   -0.22404    7
    9      0.114D-04      0.170D-05      -193.94079395    453.017172    0.35483   -0.00000   -0.22386    7
   10      0.249D-05      0.448D-06      -193.94079395    453.017685    0.35482   -0.00000   -0.22385    7
   11      0.620D-06      0.224D-06      -193.94079395    453.017376    0.35481   -0.00000   -0.22384    7

 Final alpha occupancy:  17
 Final beta  occupancy:  17

 !UKS STATE 1.1 Energy               -193.940793949880
 Nuclear energy                       133.31979421
 One-electron energy                 -526.21206527
 Two-electron energy                  226.50868809
 Density functional                   -27.55721099     PBEX=-26.44869664 PBEC= -1.10851434
 Virial quotient                       -1.00993138
 !UKS STATE 1.1 Dipole moment           0.35481184    -0.00000000    -0.22384455
 Dipole moment /Debye                   0.90178268    -0.00000000    -0.56891882

 Orbital energies for positive spin:

         1.1          2.1          3.1          4.1          5.1          6.1          7.1          8.1          9.1         10.1
    -18.752059    -9.935530    -9.932271    -9.885608    -0.929847    -0.682154    -0.598764    -0.534258    -0.437873    -0.423920

        11.1         12.1         13.1         14.1         15.1         16.1         17.1         18.1         19.1
     -0.398942    -0.368647    -0.335885    -0.318755    -0.306005    -0.266031    -0.203430     0.039883     0.063551

 Orbital energies for negative spin:

         1.1          2.1          3.1          4.1          5.1          6.1          7.1          8.1          9.1         10.1
    -18.752059    -9.935530    -9.932271    -9.885608    -0.929847    -0.682154    -0.598764    -0.534258    -0.437873    -0.423920

        11.1         12.1         13.1         14.1         15.1         16.1         17.1         18.1         19.1
     -0.398942    -0.368647    -0.335885    -0.318755    -0.306005    -0.266031    -0.203430     0.039883     0.063551

 HOMO     17.1    -0.203430 =      -5.5356eV
 LUMO     18.1     0.039883 =       1.0853eV
 LUMO-HOMO         0.243313 =       6.6209eV

 EXPECTATION VALUE OF S**2:            -0.00000000

 Natural orbitals saved to record    2200.2 (Orbital set 3)

 Orbital spaces for UNO-CAS (Min. occupation: 0.020  Max. occupation: 1.980):

 Closed:       17
 Active:        0


 **********************************************************************************************************************************
 DATASETS  * FILE   NREC   LENGTH (MB)   RECORD NAMES
              1      20       64.33       500      610      700      900      950      970     1000      129      960     1100   
                                          VAR    BASINP    GEOM    SYMINP    ZMAT    AOBASIS   BASIS     P2S    ABASIS      S 
                                         1400     1410     1200     1210     1080     1600     1650     1300     1700     1800   
                                           T        V       H0       H01     AOSYM     SMH    MOLCAS    ERIS     OPER     GRID   

              2       5        3.33       700     1000      520     1800     2200   
                                         GEOM     BASIS   MCVARS    GRID      UKS  

 PROGRAMS   *        TOTAL       UKS       INT
 CPU TIMES  *        15.28     13.24      1.90
 REAL TIME  *        16.67 SEC
 DISK USED  *       169.15 MB      
 **********************************************************************************************************************************


 PROGRAM * Intrinsic Basis Bonding Analysis (IBBA)          Author: G. Knizia

 Molecular orbitals read from record     2200.2  Type=UKS/ALPHA (state 1.1)
 Fock matrix read from record            2200.2  Type=UKS/TOTAL (state 1.1)
 Orbital energies read from record       2200.2  Type=UKS/ALPHA (state 1.1)
 Density matrix read from record         2200.2  Type=UKS/CHARGE (state 1.1)

 Number of core orbitals:           4 (   4 )
 Number of closed-shell orbitals:  13 (  13 )

 Basis set MINAO-AUTO-PP generated.      Number of basis functions:   28 

 Polarized AO type:                A = (O Ot + (1-O)(1-Ot)) P12
 Orthogonalization method:         Symmetric (Loewdin)
 Localization functional:          L = sum[A,i] <i|n_A|i>^4 -> max

 Localization group 1:  17 orbitals, occupancy  2.000
 Iterative localization: IB/PM,    7 iter; Final gradient 0.20E-09

 Bond order analysis:       [THRPRINT= 0.020]

   CEN ATOM   CEN ATOM     WIBERG.BO      RENORM.BO
     1   C  -   2   O       0.997060       1.021324
     1   C  -   6   H       0.956334       0.976238
     1   C  -   7   H       0.945211       0.930942
     1   C  -   8   H       0.945211       0.930942

     2   O  -   1   C       0.997060       1.021324
     2   O  -   3   C       0.974990       0.989132
     2   O  -   8   H       0.036693       0.021931
     2   O  -   7   H       0.036693       0.021931
     2   O  -  10   H       0.032879       0.019618
     2   O  -   9   H       0.032879       0.019618

     3   C  -   4   C       1.031292       1.021947
     3   C  -   2   O       0.974990       0.989132
     3   C  -   9   H       0.932789       0.919303
     3   C  -  10   H       0.932789       0.919303

     4   C  -   3   C       1.031292       1.021947
     4   C  -   5   H       0.958983       0.988153
     4   C  -  12   H       0.956703       0.979945
     4   C  -  11   H       0.956703       0.979945

     5   H  -   4   C       0.958983       0.988153

     6   H  -   1   C       0.956334       0.976238

     7   H  -   1   C       0.945211       0.930942
     7   H  -   2   O       0.036693       0.021931

     8   H  -   1   C       0.945211       0.930942
     8   H  -   2   O       0.036693       0.021931

     9   H  -   3   C       0.932789       0.919303
     9   H  -   2   O       0.032879       0.019618

    10   H  -   3   C       0.932789       0.919303
    10   H  -   2   O       0.032879       0.019618

    11   H  -   4   C       0.956703       0.979945

    12   H  -   4   C       0.956703       0.979945


 Valency analysis:

   CEN ATOM   TOT.VALENCE
     1   C       3.865705
     2   O       2.149686
     3   C       3.897104
     4   C       3.934280
     5   H       0.980675
     6   H       0.977526
     7   H       0.987370
     8   H       0.987370
     9   H       0.988737
    10   H       0.988737
    11   H       0.979673
    12   H       0.979673

 Total charge composition:

   CEN ATOM         s          p       ELECTRONS ->P.CHARGE
     1   C       3.02067    3.18113      6.20180   -0.20180
     2   O       3.59567    4.76185      8.35753   -0.35753
     3   C       2.98663    3.05635      6.04297   -0.04297
     4   C       3.02138    3.38741      6.40879   -0.40879
     5   H       0.86099                 0.86099    0.13901
     6   H       0.85009                 0.85009    0.14991
     7   H       0.88762                 0.88762    0.11238
     8   H       0.88762                 0.88762    0.11238
     9   H       0.89387                 0.89387    0.10613
    10   H       0.89387                 0.89387    0.10613
    11   H       0.85743                 0.85743    0.14257
    12   H       0.85743                 0.85743    0.14257

 Total charge composition, AO contributions:

   CEN ATOM SHL      SPHERICAL COMPONENTS
     1   C  1s       1.99193
     1   C  2s       1.02873
     1   C  2p       1.18884    1.17230    0.81999

     2   O  1s       1.99716
     2   O  2s       1.59851
     2   O  2p       1.51027    1.89743    1.35415

     3   C  1s       1.99219
     3   C  2s       0.99443
     3   C  2p       0.86625    1.16331    1.02679

     4   C  1s       1.99117
     4   C  2s       1.03021
     4   C  2p       1.16367    1.17431    1.04942

     5   H  1s       0.86099

     6   H  1s       0.85009

     7   H  1s       0.88762

     8   H  1s       0.88762

     9   H  1s       0.89387

    10   H  1s       0.89387

    11   H  1s       0.85743

    12   H  1s       0.85743

 Summary of localized orbital composition:   [THRPRINT= 0.020]

   ORB  GRP  ORB.ENERGY      CENTERS/CHARGES
     1   1   -18.614598      O  2   2.000
     2   1    -9.834507      C  3   2.000
     3   1    -9.826056      C  1   2.000
     4   1    -9.773424      C  4   2.000
     5   1    -0.693123      O  2   1.244   C  1   0.746
     6   1    -0.684377      O  2   1.254   C  3   0.733
     7   1    -0.527565      C  3   1.004   C  4   0.988
     8   1    -0.475686      O  2   1.958   (other: 0.042)
     9   1    -0.463664      C  1   1.151   H  6   0.842
    10   1    -0.463418      C  1   1.133   H  8   0.865
    11   1    -0.463418      C  1   1.133   H  7   0.865
    12   1    -0.459186      C  3   1.121   H 10   0.869
    13   1    -0.459186      C  3   1.121   H  9   0.869
    14   1    -0.445677      C  4   1.129   H  5   0.854
    15   1    -0.439600      C  4   1.138   H 11   0.850
    16   1    -0.439600      C  4   1.138   H 12   0.850
    17   1    -0.246937      O  2   1.897   C  1   0.021   C  3   0.020   (other: 0.062)

 Localized orbitals saved to record      2200.2  (orbital set 4)


 **********************************************************************************************************************************
 DATASETS  * FILE   NREC   LENGTH (MB)   RECORD NAMES
              1      20       64.33       500      610      700      900      950      970     1000      129      960     1100   
                                          VAR    BASINP    GEOM    SYMINP    ZMAT    AOBASIS   BASIS     P2S    ABASIS      S 
                                         1400     1410     1200     1210     1080     1600     1650     1300     1700     1800   
                                           T        V       H0       H01     AOSYM     SMH    MOLCAS    ERIS     OPER     GRID   

              2       5        3.40       700     1000      520     1800     2200   
                                         GEOM     BASIS   MCVARS    GRID      UKS  

 PROGRAMS   *        TOTAL      IBBA       UKS       INT
 CPU TIMES  *        15.31      0.03     13.24      1.90
 REAL TIME  *        16.78 SEC
 DISK USED  *       169.15 MB      
 **********************************************************************************************************************************
 Molecular orbitals read from record     2200.2  Type=UKS/LOCAL(IBO)  
 Occupation numbers read from record     2200.2  Type=UKS/LOCAL(IBO)  
 Orbital energies read from record       2200.2  Type=UKS/LOCAL(IBO)  
 Redundancy group numbers read from rec  2200.2  Type=UKS/BETA (state 1.1)

 IBBA/SVP energy=      0.000000000000

        UKS-SCF 
   -193.94079395
 **********************************************************************************************************************************
 Molpro calculation terminated
