
 Primary working directories    : /tmp/sb13343
 Secondary working directories  : /tmp/sb13343
 Wavefunction directory         : /panfs/panasas01/chem/sb13343/wfu/
 Main file repository           : /tmp/sb13343/

 SHA1      : b4a5b34a9e711420743f49e6833241d17c61fb3c
 NAME      : 2099.9.b4a5b34
 ARCHNAME  : linux/x86_64_openmp
 FC        : /cm/shared/languages/GCC-6.1/bin/gfortran
 BLASLIB   : -lblas
 id        : simonbennie

 Nodes     nprocs
 node33-010    1

 Using customized tuning parameters: mindgm=1; mindgv=20; mindgc=4; mindgr=1; noblas=0; minvec=7
 default implementation of scratch files=df  

 memory,500,m
 geomtyp=xyz
 nosym
 noorient
 geometry={
 C          0.00000        0.00000        0.00000
 O          0.00000        0.00000        1.40962
 C          1.30608        0.00000        1.95787
 C          1.19221        0.00000        3.47353
 H          2.18666        0.00000        3.93332
 H         -1.04410        0.00000       -0.32474
 H          0.50079       -0.89267       -0.41051
 H          0.50079        0.89267       -0.41051
 H          1.86435       -0.88728        1.61056
 H          1.86435        0.88728        1.61056
 H          0.64981       -0.88690        3.81673
 H          0.64981        0.88690        3.81673
 }
 basis={ default,svp }
 {uks,M06-2X,direct;wf,34,1,0}
 {ibba,bonds=1}

 Variables initialized (895), CPU time= 0.01 sec
 Commands  initialized (725), CPU time= 0.01 sec, 591 directives.
 Default parameters read. Elapsed time= 0.08 sec

 Checking input...
 Passed
1


                                         ***  PROGRAM SYSTEM MOLPRO  ***
                                       Copyright, TTI GmbH Stuttgart, 2015
                                    Version 2099.9 linked May 26 2017 16:03:21


 **********************************************************************************************************************************
 LABEL *                                                                                 
  64 bit serial version                                                                  DATE: 08-Jun-17          TIME: 10:21:35  
 **********************************************************************************************************************************

 SHA1:             b4a5b34a9e711420743f49e6833241d17c61fb3c
 **********************************************************************************************************************************
 SETTING GEOMTYP        =    XYZ

 Variable memory set to  500000000 words,  buffer space 

 ZSYMEL=NOSYM

 SETTING BASIS          =    SVP


 Recomputing integrals since basis changed


 Using spherical harmonics

 Library entry C      S def2-SVP             selected for orbital group  1
 Library entry C      P def2-SVP             selected for orbital group  1
 Library entry C      D def2-SVP             selected for orbital group  1
 Library entry O      S def2-SVP             selected for orbital group  2
 Library entry O      P def2-SVP             selected for orbital group  2
 Library entry O      D def2-SVP             selected for orbital group  2
 Library entry H      S def2-SVP             selected for orbital group  4
 Library entry H      P def2-SVP             selected for orbital group  4


 PROGRAM * SEWARD (Integral evaluation for generally contracted gaussian basis sets)     Author: Roland Lindh, 1990

 Geometry written to block  1 of record 700


 Point group  C1  



 ATOMIC COORDINATES

 NR  ATOM    CHARGE       X              Y              Z

   1  C       6.00    0.000000000    0.000000000    0.000000000
   2  O       8.00    0.000000000    0.000000000    2.663795740
   3  C       6.00    2.468133497    0.000000000    3.699838088
   4  C       6.00    2.252950383    0.000000000    6.564020385
   5  H       1.00    4.132188528    0.000000000    7.432897560
   6  H       1.00   -1.973063047    0.000000000   -0.613669662
   7  H       1.00    0.946355946   -1.686901820   -0.775751471
   8  H       1.00    0.946355946    1.686901820   -0.775751471
   9  H       1.00    3.523110900   -1.676716196    3.043517307
  10  H       1.00    3.523110900    1.676716196    3.043517307
  11  H       1.00    1.227962933   -1.675998100    7.212574391
  12  H       1.00    1.227962933    1.675998100    7.212574391

 Bond lengths in Bohr (Angstrom)

 1-2  2.663795740  1-6  2.066293358  1-7  2.083990804  1-8  2.083990804  2-3  2.676764223
     ( 1.409620000)     ( 1.093435356)     ( 1.102800441)     ( 1.102800441)     ( 1.416482626)

  3- 4  2.872254168   3- 9  2.086890388   3-10  2.086890388   4- 5  2.070382464   4-11  2.068862297
       ( 1.519931450)       ( 1.104334835)       ( 1.104334835)       ( 1.095599218)       ( 1.094794780)

  4-12  2.068862297
       ( 1.094794780)

 Bond angles

  1-2-3  112.77108340   2-1-6  107.27693969   2-1-7  111.85402987   2-1-8  111.85402987

  2- 3- 4  108.47458109   2- 3- 9  110.14508041   2- 3-10  110.14508041   3- 4- 5  110.51724552

  3- 4-11  110.47015208   3- 4-12  110.47015208   4- 3- 9  110.57823876   4- 3-10  110.57823876

  5- 4-11  108.55021133   5- 4-12  108.55021133   6- 1- 7  108.84842497   6- 1- 8  108.84842497

  7- 1- 8  108.08590744   9- 3-10  106.92203462  11- 4-12  108.21261054

 NUCLEAR CHARGE:                   34
 NUMBER OF PRIMITIVE AOS:         156
 NUMBER OF SYMMETRY AOS:          152
 NUMBER OF CONTRACTIONS:           96   (  96A   )
 NUMBER OF CORE ORBITALS:           4   (   4A   )
 NUMBER OF VALENCE ORBITALS:       24   (  24A   )


 NUCLEAR REPULSION ENERGY  133.31979421


 Eigenvalues of metric

         1 0.364E-02 0.952E-02 0.147E-01 0.282E-01 0.312E-01 0.319E-01 0.432E-01 0.449E-01


 Contracted 2-electron integrals neglected if value below      1.0D-11
 AO integral compression algorithm  1   Integral accuracy      1.0D-11

     37.487 MB (compressed) written to integral file ( 40.8%)


 NUMBER OF SORTED TWO-ELECTRON INTEGRALS:   10841496.     BUFFER LENGTH:  32768
 NUMBER OF SEGMENTS:   1  SEGMENT LENGTH:   10841496      RECORD LENGTH: 524288

 Memory used in sort:      11.40 MW

 SORT1 READ    11483613. AND WROTE     8333550. INTEGRALS IN     24 RECORDS. CPU TIME:     0.11 SEC, REAL TIME:     0.24 SEC
 SORT2 READ     8333550. AND WROTE    10841496. INTEGRALS IN    143 RECORDS. CPU TIME:     0.24 SEC, REAL TIME:     0.32 SEC

 FILE SIZES:   FILE 1:    68.0 MBYTE,  FILE 4:   100.7 MBYTE,   TOTAL:    168.7 MBYTE

 OPERATOR DM      FOR CENTER  0  COORDINATES:    0.000000    0.000000    0.000000


 **********************************************************************************************************************************
 DATASETS  * FILE   NREC   LENGTH (MB)   RECORD NAMES
              1      19       62.89       500      610      700      900      950      970     1000      129      960     1100   
                                          VAR    BASINP    GEOM    SYMINP    ZMAT    AOBASIS   BASIS     P2S    ABASIS      S 
                                         1400     1410     1200     1210     1080     1600     1650     1300     1700   
                                           T        V       H0       H01     AOSYM     SMH    MOLCAS    ERIS     OPER   

 PROGRAMS   *        TOTAL       INT
 CPU TIMES  *         1.73      1.59
 REAL TIME  *         2.33 SEC
 DISK USED  *       169.15 MB      
 **********************************************************************************************************************************

 Density functional group M06-2X=XC-M06-2X
 Functional: XC-M06-2X(via MFM 1.6)                                            Gradient terms: 1
 Use grid at  1800.2


 Exact exchange will be calculated, factor:  0.5400

 Functional: XC-M06-2X                 Factor:  1.0000

 Generated new metagrid on record  1800.2 with target accuracy 1.0D-06 and 44796 points in CPU time    1.1
 Computed new grid on record 1800.1 in CPU time    1.2
   80368 words reserved for DFT integration

 PROGRAM * UKS-SCF (Unrestricted Kohn-Sham)     Authors: W. Meyer, H.-J. Werner, P.J. Knowles, 1993

 NUMBER OF ELECTRONS:      17+   17-    SPACE SYMMETRY=1    SPIN SYMMETRY: Singlet 
 CONVERGENCE THRESHOLDS:    1.00E-05 (Density)    1.00E-06 (Energy)
 MAX. NUMBER OF ITERATIONS:       60
 INTERPOLATION TYPE:            DIIS
 INTERPOLATION STEPS:              2 (START)      1 (STEP)
 LEVEL SHIFTS:                 -0.20 (ALPHA)  -0.20 (BETA) 



 Use fine grid record 1800.2 for energy threshold  1.0D-06
 Orbital guess generated from atomic densities. Full valence occupancy:   17

 Molecular orbital dump at record        2200.2

 Initial alpha occupation  17
 Initial beta  occupation  17

 ITERATION    DDIFF          GRAD             ENERGY        2-EL.EN.            DIPOLE MOMENTS         DIIS
    1      0.000D+00      0.000D+00      -194.03269089    429.980381    0.76467   -0.00000   -0.46743    0
    2      0.624D-02      0.345D-02      -194.08594066    423.111747    0.41269   -0.00000   -0.24411    1
    3      0.175D-02      0.121D-02      -194.09137405    424.450792    0.46201   -0.00000   -0.28463    2
    4      0.771D-03      0.323D-03      -194.09214597    424.254102    0.43109   -0.00000   -0.27086    3
    5      0.562D-03      0.145D-03      -194.09237321    424.219823    0.42343   -0.00000   -0.26907    4
    6      0.241D-03      0.371D-04      -194.09239357    424.201440    0.41912   -0.00000   -0.26874    5
    7      0.572D-04      0.877D-05      -194.09239466    424.200449    0.41840   -0.00000   -0.26838    6
    8      0.133D-04      0.286D-05      -194.09239475    424.198694    0.41808   -0.00000   -0.26844    7
    9      0.540D-05      0.930D-06      -194.09239477    424.199147    0.41798   -0.00000   -0.26839    7
   10      0.124D-05      0.219D-06      -194.09239477    424.199174    0.41796   -0.00000   -0.26838    7

 Final alpha occupancy:  17
 Final beta  occupancy:  17

 !UKS STATE 1.1 Energy               -194.092394766592
 Nuclear energy                       133.31979421
 One-electron energy                 -526.14446729
 Two-electron energy                  212.09958683
 Density functional                   -13.36730851     XC-M06-2X=-13.36730851
 Virial quotient                       -1.01040869
 !UKS STATE 1.1 Dipole moment           0.41795860    -0.00000000    -0.26838486
 Dipole moment /Debye                   1.06227521    -0.00000000    -0.68212160

 Orbital energies for positive spin:

         1.1          2.1          3.1          4.1          5.1          6.1          7.1          8.1          9.1         10.1
    -19.623232   -10.594460   -10.591632   -10.540451    -1.133805    -0.846817    -0.752318    -0.680964    -0.555448    -0.554628

        11.1         12.1         13.1         14.1         15.1         16.1         17.1         18.1         19.1
     -0.521552    -0.484390    -0.444505    -0.422150    -0.413264    -0.381451    -0.323215     0.101041     0.125073

 Orbital energies for negative spin:

         1.1          2.1          3.1          4.1          5.1          6.1          7.1          8.1          9.1         10.1
    -19.623232   -10.594460   -10.591632   -10.540451    -1.133805    -0.846817    -0.752318    -0.680964    -0.555448    -0.554628

        11.1         12.1         13.1         14.1         15.1         16.1         17.1         18.1         19.1
     -0.521552    -0.484390    -0.444505    -0.422150    -0.413264    -0.381451    -0.323215     0.101041     0.125073

 HOMO     17.1    -0.323215 =      -8.7951eV
 LUMO     18.1     0.101041 =       2.7495eV
 LUMO-HOMO         0.424256 =      11.5446eV

 EXPECTATION VALUE OF S**2:            -0.00000000

 Natural orbitals saved to record    2200.2 (Orbital set 3)

 Orbital spaces for UNO-CAS (Min. occupation: 0.020  Max. occupation: 1.980):

 Closed:       17
 Active:        0


 **********************************************************************************************************************************
 DATASETS  * FILE   NREC   LENGTH (MB)   RECORD NAMES
              1      20       64.33       500      610      700      900      950      970     1000      129      960     1100   
                                          VAR    BASINP    GEOM    SYMINP    ZMAT    AOBASIS   BASIS     P2S    ABASIS      S 
                                         1400     1410     1200     1210     1080     1600     1650     1300     1700     1800   
                                           T        V       H0       H01     AOSYM     SMH    MOLCAS    ERIS     OPER     GRID   

              2       5        3.33       700     1000      520     1800     2200   
                                         GEOM     BASIS   MCVARS    GRID      UKS  

 PROGRAMS   *        TOTAL       UKS       INT
 CPU TIMES  *        33.55     31.81      1.59
 REAL TIME  *        34.92 SEC
 DISK USED  *       169.15 MB      
 **********************************************************************************************************************************


 PROGRAM * Intrinsic Basis Bonding Analysis (IBBA)          Author: G. Knizia

 Molecular orbitals read from record     2200.2  Type=UKS/ALPHA (state 1.1)
 Fock matrix read from record            2200.2  Type=UKS/TOTAL (state 1.1)
 Orbital energies read from record       2200.2  Type=UKS/ALPHA (state 1.1)
 Density matrix read from record         2200.2  Type=UKS/CHARGE (state 1.1)

 Number of core orbitals:           4 (   4 )
 Number of closed-shell orbitals:  13 (  13 )

 Basis set MINAO-AUTO-PP generated.      Number of basis functions:   28 

 Polarized AO type:                A = (O Ot + (1-O)(1-Ot)) P12
 Orthogonalization method:         Symmetric (Loewdin)
 Localization functional:          L = sum[A,i] <i|n_A|i>^4 -> max

 Localization group 1:  17 orbitals, occupancy  2.000
 Iterative localization: IB/PM,    7 iter; Final gradient 0.40E-09

 Bond order analysis:       [THRPRINT= 0.020]

   CEN ATOM   CEN ATOM     WIBERG.BO      RENORM.BO
     1   C  -   2   O       0.983475       1.017791
     1   C  -   6   H       0.959476       0.979136
     1   C  -   7   H       0.953347       0.943487
     1   C  -   8   H       0.953347       0.943487

     2   O  -   1   C       0.983475       1.017791
     2   O  -   3   C       0.964712       0.990886
     2   O  -   7   H       0.030388       0.017958
     2   O  -   8   H       0.030388       0.017958
     2   O  -  10   H       0.027636       0.016297
     2   O  -   9   H       0.027636       0.016297

     3   C  -   4   C       1.026034       1.018914
     3   C  -   2   O       0.964712       0.990886
     3   C  -   9   H       0.942163       0.932195
     3   C  -  10   H       0.942163       0.932195

     4   C  -   3   C       1.026034       1.018914
     4   C  -   5   H       0.963494       0.989991
     4   C  -  12   H       0.960483       0.983380
     4   C  -  11   H       0.960483       0.983380

     5   H  -   4   C       0.963494       0.989991

     6   H  -   1   C       0.959476       0.979136

     7   H  -   1   C       0.953347       0.943487
     7   H  -   2   O       0.030388       0.017958

     8   H  -   1   C       0.953347       0.943487
     8   H  -   2   O       0.030388       0.017958

     9   H  -   3   C       0.942163       0.932195
     9   H  -   2   O       0.027636       0.016297

    10   H  -   3   C       0.942163       0.932195
    10   H  -   2   O       0.027636       0.016297

    11   H  -   4   C       0.960483       0.983380

    12   H  -   4   C       0.960483       0.983380


 Valency analysis:

   CEN ATOM   TOT.VALENCE
     1   C       3.867997
     2   O       2.095775
     3   C       3.896931
     4   C       3.936126
     5   H       0.982374
     6   H       0.978366
     7   H       0.988029
     8   H       0.988029
     9   H       0.989384
    10   H       0.989384
    11   H       0.980825
    12   H       0.980825

 Total charge composition:

   CEN ATOM         s          p       ELECTRONS ->P.CHARGE
     1   C       3.00908    3.16387      6.17295   -0.17295
     2   O       3.58729    4.80860      8.39589   -0.39589
     3   C       2.97646    3.04376      6.02022   -0.02022
     4   C       3.00982    3.38281      6.39263   -0.39263
     5   H       0.86724                 0.86724    0.13276
     6   H       0.85292                 0.85292    0.14708
     7   H       0.89059                 0.89059    0.10941
     8   H       0.89059                 0.89059    0.10941
     9   H       0.89697                 0.89697    0.10303
    10   H       0.89697                 0.89697    0.10303
    11   H       0.86153                 0.86153    0.13847
    12   H       0.86153                 0.86153    0.13847

 Total charge composition, AO contributions:

   CEN ATOM SHL      SPHERICAL COMPONENTS
     1   C  1s       1.99130
     1   C  2s       1.01778
     1   C  2p       1.18565    1.16371    0.81451

     2   O  1s       1.99694
     2   O  2s       1.59035
     2   O  2p       1.52602    1.91660    1.36598

     3   C  1s       1.99156
     3   C  2s       0.98490
     3   C  2p       0.86044    1.15610    1.02723

     4   C  1s       1.99050
     4   C  2s       1.01932
     4   C  2p       1.16221    1.17230    1.04829

     5   H  1s       0.86724

     6   H  1s       0.85292

     7   H  1s       0.89059

     8   H  1s       0.89059

     9   H  1s       0.89697

    10   H  1s       0.89697

    11   H  1s       0.86153

    12   H  1s       0.86153

 Summary of localized orbital composition:   [THRPRINT= 0.020]

   ORB  GRP  ORB.ENERGY      CENTERS/CHARGES
     1   1   -19.473368      O  2   2.000
     2   1   -10.487676      C  3   2.000
     3   1   -10.479466      C  1   2.000
     4   1   -10.422043      C  4   2.000
     5   1    -0.848734      O  2   1.251   C  1   0.740
     6   1    -0.840273      O  2   1.260   C  3   0.728
     7   1    -0.658489      C  3   1.007   C  4   0.986
     8   1    -0.634935      O  2   1.965   (other: 0.035)
     9   1    -0.589911      C  1   1.148   H  6   0.846
    10   1    -0.589881      C  1   1.126   H  7   0.873
    11   1    -0.589881      C  1   1.126   H  8   0.873
    12   1    -0.585582      C  3   1.115   H  9   0.876
    13   1    -0.585582      C  3   1.115   H 10   0.876
    14   1    -0.568671      C  4   1.125   H  5   0.861
    15   1    -0.562468      C  4   1.135   H 11   0.855
    16   1    -0.562468      C  4   1.135   H 12   0.855
    17   1    -0.384823      O  2   1.916   (other: 0.084)

 Localized orbitals saved to record      2200.2  (orbital set 4)


 **********************************************************************************************************************************
 DATASETS  * FILE   NREC   LENGTH (MB)   RECORD NAMES
              1      20       64.33       500      610      700      900      950      970     1000      129      960     1100   
                                          VAR    BASINP    GEOM    SYMINP    ZMAT    AOBASIS   BASIS     P2S    ABASIS      S 
                                         1400     1410     1200     1210     1080     1600     1650     1300     1700     1800   
                                           T        V       H0       H01     AOSYM     SMH    MOLCAS    ERIS     OPER     GRID   

              2       5        3.40       700     1000      520     1800     2200   
                                         GEOM     BASIS   MCVARS    GRID      UKS  

 PROGRAMS   *        TOTAL      IBBA       UKS       INT
 CPU TIMES  *        33.59      0.03     31.81      1.59
 REAL TIME  *        35.03 SEC
 DISK USED  *       169.15 MB      
 **********************************************************************************************************************************
 Molecular orbitals read from record     2200.2  Type=UKS/LOCAL(IBO)  
 Occupation numbers read from record     2200.2  Type=UKS/LOCAL(IBO)  
 Orbital energies read from record       2200.2  Type=UKS/LOCAL(IBO)  
 Redundancy group numbers read from rec  2200.2  Type=UKS/BETA (state 1.1)

 IBBA/SVP energy=      0.000000000000

        UKS-SCF 
   -194.09239477
 **********************************************************************************************************************************
 Molpro calculation terminated
