
 Primary working directories    : /tmp/sb13343
 Secondary working directories  : /tmp/sb13343
 Wavefunction directory         : /panfs/panasas01/chem/sb13343/wfu/
 Main file repository           : /tmp/sb13343/

 SHA1      : b4a5b34a9e711420743f49e6833241d17c61fb3c
 NAME      : 2099.9.b4a5b34
 ARCHNAME  : linux/x86_64_openmp
 FC        : /cm/shared/languages/GCC-6.1/bin/gfortran
 BLASLIB   : -lblas
 id        : simonbennie

 Nodes     nprocs
 node32-045    1

 Using customized tuning parameters: mindgm=1; mindgv=20; mindgc=4; mindgr=1; noblas=0; minvec=7
 default implementation of scratch files=df  

 memory,500,m
 geomtyp=xyz
 nosym
 noorient
 geometry={
 C          0.00000        0.00000        0.00000
 O          0.00000        0.00000        1.40962
 C          1.30608        0.00000        1.95787
 C          1.19221        0.00000        3.47353
 H          2.18666        0.00000        3.93332
 H         -1.04410        0.00000       -0.32474
 H          0.50079       -0.89267       -0.41051
 H          0.50079        0.89267       -0.41051
 H          1.86435       -0.88728        1.61056
 H          1.86435        0.88728        1.61056
 H          0.64981       -0.88690        3.81673
 H          0.64981        0.88690        3.81673
 }
 basis={ default,svp }
 {uks,MM05-2X,direct;wf,34,1,0}
 {ibba,bonds=1}

 Variables initialized (895), CPU time= 0.00 sec
 Commands  initialized (725), CPU time= 0.01 sec, 591 directives.
 Default parameters read. Elapsed time= 0.08 sec

 Checking input...
 Passed
1


                                         ***  PROGRAM SYSTEM MOLPRO  ***
                                       Copyright, TTI GmbH Stuttgart, 2015
                                    Version 2099.9 linked May 26 2017 16:03:21


 **********************************************************************************************************************************
 LABEL *                                                                                 
  64 bit serial version                                                                  DATE: 08-Jun-17          TIME: 10:14:07  
 **********************************************************************************************************************************

 SHA1:             b4a5b34a9e711420743f49e6833241d17c61fb3c
 **********************************************************************************************************************************
 SETTING GEOMTYP        =    XYZ

 Variable memory set to  500000000 words,  buffer space 

 ZSYMEL=NOSYM

 SETTING BASIS          =    SVP


 Recomputing integrals since basis changed


 Using spherical harmonics

 Library entry C      S def2-SVP             selected for orbital group  1
 Library entry C      P def2-SVP             selected for orbital group  1
 Library entry C      D def2-SVP             selected for orbital group  1
 Library entry O      S def2-SVP             selected for orbital group  2
 Library entry O      P def2-SVP             selected for orbital group  2
 Library entry O      D def2-SVP             selected for orbital group  2
 Library entry H      S def2-SVP             selected for orbital group  4
 Library entry H      P def2-SVP             selected for orbital group  4


 PROGRAM * SEWARD (Integral evaluation for generally contracted gaussian basis sets)     Author: Roland Lindh, 1990

 Geometry written to block  1 of record 700


 Point group  C1  



 ATOMIC COORDINATES

 NR  ATOM    CHARGE       X              Y              Z

   1  C       6.00    0.000000000    0.000000000    0.000000000
   2  O       8.00    0.000000000    0.000000000    2.663795740
   3  C       6.00    2.468133497    0.000000000    3.699838088
   4  C       6.00    2.252950383    0.000000000    6.564020385
   5  H       1.00    4.132188528    0.000000000    7.432897560
   6  H       1.00   -1.973063047    0.000000000   -0.613669662
   7  H       1.00    0.946355946   -1.686901820   -0.775751471
   8  H       1.00    0.946355946    1.686901820   -0.775751471
   9  H       1.00    3.523110900   -1.676716196    3.043517307
  10  H       1.00    3.523110900    1.676716196    3.043517307
  11  H       1.00    1.227962933   -1.675998100    7.212574391
  12  H       1.00    1.227962933    1.675998100    7.212574391

 Bond lengths in Bohr (Angstrom)

 1-2  2.663795740  1-6  2.066293358  1-7  2.083990804  1-8  2.083990804  2-3  2.676764223
     ( 1.409620000)     ( 1.093435356)     ( 1.102800441)     ( 1.102800441)     ( 1.416482626)

  3- 4  2.872254168   3- 9  2.086890388   3-10  2.086890388   4- 5  2.070382464   4-11  2.068862297
       ( 1.519931450)       ( 1.104334835)       ( 1.104334835)       ( 1.095599218)       ( 1.094794780)

  4-12  2.068862297
       ( 1.094794780)

 Bond angles

  1-2-3  112.77108340   2-1-6  107.27693969   2-1-7  111.85402987   2-1-8  111.85402987

  2- 3- 4  108.47458109   2- 3- 9  110.14508041   2- 3-10  110.14508041   3- 4- 5  110.51724552

  3- 4-11  110.47015208   3- 4-12  110.47015208   4- 3- 9  110.57823876   4- 3-10  110.57823876

  5- 4-11  108.55021133   5- 4-12  108.55021133   6- 1- 7  108.84842497   6- 1- 8  108.84842497

  7- 1- 8  108.08590744   9- 3-10  106.92203462  11- 4-12  108.21261054

 NUCLEAR CHARGE:                   34
 NUMBER OF PRIMITIVE AOS:         156
 NUMBER OF SYMMETRY AOS:          152
 NUMBER OF CONTRACTIONS:           96   (  96A   )
 NUMBER OF CORE ORBITALS:           4   (   4A   )
 NUMBER OF VALENCE ORBITALS:       24   (  24A   )


 NUCLEAR REPULSION ENERGY  133.31979421


 Eigenvalues of metric

         1 0.364E-02 0.952E-02 0.147E-01 0.282E-01 0.312E-01 0.319E-01 0.432E-01 0.449E-01


 Contracted 2-electron integrals neglected if value below      1.0D-11
 AO integral compression algorithm  1   Integral accuracy      1.0D-11

     37.487 MB (compressed) written to integral file ( 40.8%)


 NUMBER OF SORTED TWO-ELECTRON INTEGRALS:   10841496.     BUFFER LENGTH:  32768
 NUMBER OF SEGMENTS:   1  SEGMENT LENGTH:   10841496      RECORD LENGTH: 524288

 Memory used in sort:      11.40 MW

 SORT1 READ    11483613. AND WROTE     8333550. INTEGRALS IN     24 RECORDS. CPU TIME:     0.12 SEC, REAL TIME:     0.24 SEC
 SORT2 READ     8333550. AND WROTE    10841496. INTEGRALS IN    143 RECORDS. CPU TIME:     0.23 SEC, REAL TIME:     0.32 SEC

 FILE SIZES:   FILE 1:    68.0 MBYTE,  FILE 4:   100.7 MBYTE,   TOTAL:    168.7 MBYTE

 OPERATOR DM      FOR CENTER  0  COORDINATES:    0.000000    0.000000    0.000000


 **********************************************************************************************************************************
 DATASETS  * FILE   NREC   LENGTH (MB)   RECORD NAMES
              1      19       62.89       500      610      700      900      950      970     1000      129      960     1100   
                                          VAR    BASINP    GEOM    SYMINP    ZMAT    AOBASIS   BASIS     P2S    ABASIS      S 
                                         1400     1410     1200     1210     1080     1600     1650     1300     1700   
                                           T        V       H0       H01     AOSYM     SMH    MOLCAS    ERIS     OPER   

 PROGRAMS   *        TOTAL       INT
 CPU TIMES  *         1.73      1.59
 REAL TIME  *         2.36 SEC
 DISK USED  *       169.15 MB      
 **********************************************************************************************************************************

 Density functional group MM05-2X=M052XX+M052XC
 Functional: M052XX(Automatically generated (new) M052XX)                      Gradient terms: 2
 Functional: M052XC(Automatically generated (new) M052XC)                      Gradient terms: 2
 Use grid at  1800.2


 Exact exchange will be calculated, factor:  0.5600

 Functional: M052XX                    Factor:  0.4400
 Functional: M052XC                    Factor:  1.0000

 Generated new metagrid on record  1800.2 with target accuracy 1.0D-06 and 44796 points in CPU time    1.1
 Computed new grid on record 1800.1 in CPU time    1.2
  153520 words reserved for DFT integration

 PROGRAM * UKS-SCF (Unrestricted Kohn-Sham)     Authors: W. Meyer, H.-J. Werner, P.J. Knowles, 1993

 NUMBER OF ELECTRONS:      17+   17-    SPACE SYMMETRY=1    SPIN SYMMETRY: Singlet 
 CONVERGENCE THRESHOLDS:    1.00E-05 (Density)    1.00E-06 (Energy)
 MAX. NUMBER OF ITERATIONS:       60
 INTERPOLATION TYPE:            DIIS
 INTERPOLATION STEPS:              2 (START)      1 (STEP)
 LEVEL SHIFTS:                 -0.20 (ALPHA)  -0.20 (BETA) 



 Use fine grid record 1800.2 for energy threshold  1.0D-06
 Orbital guess generated from atomic densities. Full valence occupancy:   17

 Molecular orbital dump at record        2200.2

 Initial alpha occupation  17
 Initial beta  occupation  17

 ITERATION    DDIFF          GRAD             ENERGY        2-EL.EN.            DIPOLE MOMENTS         DIIS
    1      0.000D+00      0.000D+00      -194.08751134    428.998285    0.76061   -0.00000   -0.46847    0
    2      0.639D-02      0.354D-02      -194.14251624    422.213133    0.42571   -0.00000   -0.25421    1
    3      0.176D-02      0.124D-02      -194.14823183    423.615296    0.47598   -0.00000   -0.29564    2
    4      0.798D-03      0.347D-03      -194.14910101    423.420564    0.44715   -0.00000   -0.28344    3
    5      0.561D-03      0.153D-03      -194.14934293    423.402178    0.44218   -0.00000   -0.28319    4
    6      0.257D-03      0.396D-04      -194.14936576    423.382048    0.43806   -0.00000   -0.28309    5
    7      0.621D-04      0.943D-05      -194.14936701    423.381479    0.43738   -0.00000   -0.28286    6
    8      0.136D-04      0.299D-05      -194.14936710    423.379566    0.43708   -0.00000   -0.28295    7
    9      0.541D-05      0.966D-06      -194.14936712    423.380044    0.43698   -0.00000   -0.28290    7
   10      0.131D-05      0.228D-06      -194.14936712    423.380033    0.43695   -0.00000   -0.28290    7

 Final alpha occupancy:  17
 Final beta  occupancy:  17

 !UKS STATE 1.1 Energy               -194.149367116808
 Nuclear energy                       133.31979421
 One-electron energy                 -526.26442156
 Two-electron energy                  211.69001628
 Density functional                   -12.89475605     M052XX=-26.55637282 M052XC= -1.20995201
 Virial quotient                       -1.01098134
 !UKS STATE 1.1 Dipole moment           0.43695493    -0.00000000    -0.28289767
 Dipole moment /Debye                   1.11055591    -0.00000000    -0.71900706

 Orbital energies for positive spin:

         1.1          2.1          3.1          4.1          5.1          6.1          7.1          8.1          9.1         10.1
    -19.662786   -10.619856   -10.616941   -10.564608    -1.132820    -0.855394    -0.759782    -0.688254    -0.561132    -0.560832

        11.1         12.1         13.1         14.1         15.1         16.1         17.1         18.1         19.1
     -0.527228    -0.490754    -0.449543    -0.426521    -0.418960    -0.384124    -0.324698     0.110882     0.136323

 Orbital energies for negative spin:

         1.1          2.1          3.1          4.1          5.1          6.1          7.1          8.1          9.1         10.1
    -19.662786   -10.619856   -10.616941   -10.564608    -1.132820    -0.855394    -0.759782    -0.688254    -0.561132    -0.560832

        11.1         12.1         13.1         14.1         15.1         16.1         17.1         18.1         19.1
     -0.527228    -0.490754    -0.449543    -0.426521    -0.418960    -0.384124    -0.324698     0.110882     0.136323

 HOMO     17.1    -0.324698 =      -8.8355eV
 LUMO     18.1     0.110882 =       3.0173eV
 LUMO-HOMO         0.435580 =      11.8527eV

 EXPECTATION VALUE OF S**2:            -0.00000000

 Natural orbitals saved to record    2200.2 (Orbital set 3)

 Orbital spaces for UNO-CAS (Min. occupation: 0.020  Max. occupation: 1.980):

 Closed:       17
 Active:        0


 **********************************************************************************************************************************
 DATASETS  * FILE   NREC   LENGTH (MB)   RECORD NAMES
              1      20       64.33       500      610      700      900      950      970     1000      129      960     1100   
                                          VAR    BASINP    GEOM    SYMINP    ZMAT    AOBASIS   BASIS     P2S    ABASIS      S 
                                         1400     1410     1200     1210     1080     1600     1650     1300     1700     1800   
                                           T        V       H0       H01     AOSYM     SMH    MOLCAS    ERIS     OPER     GRID   

              2       5        3.33       700     1000      520     1800     2200   
                                         GEOM     BASIS   MCVARS    GRID      UKS  

 PROGRAMS   *        TOTAL       UKS       INT
 CPU TIMES  *        49.30     47.57      1.59
 REAL TIME  *        50.10 SEC
 DISK USED  *       169.15 MB      
 **********************************************************************************************************************************


 PROGRAM * Intrinsic Basis Bonding Analysis (IBBA)          Author: G. Knizia

 Molecular orbitals read from record     2200.2  Type=UKS/ALPHA (state 1.1)
 Fock matrix read from record            2200.2  Type=UKS/TOTAL (state 1.1)
 Orbital energies read from record       2200.2  Type=UKS/ALPHA (state 1.1)
 Density matrix read from record         2200.2  Type=UKS/CHARGE (state 1.1)

 Number of core orbitals:           4 (   4 )
 Number of closed-shell orbitals:  13 (  13 )

 Basis set MINAO-AUTO-PP generated.      Number of basis functions:   28 

 Polarized AO type:                A = (O Ot + (1-O)(1-Ot)) P12
 Orthogonalization method:         Symmetric (Loewdin)
 Localization functional:          L = sum[A,i] <i|n_A|i>^4 -> max

 Localization group 1:  17 orbitals, occupancy  2.000
 Iterative localization: IB/PM,    7 iter; Final gradient 0.37E-09

 Bond order analysis:       [THRPRINT= 0.020]

   CEN ATOM   CEN ATOM     WIBERG.BO      RENORM.BO
     1   C  -   2   O       0.982647       1.017162
     1   C  -   6   H       0.959156       0.979525
     1   C  -   7   H       0.953177       0.944746
     1   C  -   8   H       0.953177       0.944746

     2   O  -   1   C       0.982647       1.017162
     2   O  -   3   C       0.964027       0.990660
     2   O  -   7   H       0.029907       0.017710
     2   O  -   8   H       0.029907       0.017710
     2   O  -  10   H       0.027154       0.016065
     2   O  -   9   H       0.027154       0.016065

     3   C  -   4   C       1.024763       1.017749
     3   C  -   2   O       0.964027       0.990660
     3   C  -   9   H       0.942380       0.934060
     3   C  -  10   H       0.942380       0.934060

     4   C  -   3   C       1.024763       1.017749
     4   C  -   5   H       0.962919       0.989882
     4   C  -  12   H       0.960052       0.983908
     4   C  -  11   H       0.960052       0.983908

     5   H  -   4   C       0.962919       0.989882

     6   H  -   1   C       0.959156       0.979525

     7   H  -   1   C       0.953177       0.944746
     7   H  -   2   O       0.029907       0.017710

     8   H  -   1   C       0.953177       0.944746
     8   H  -   2   O       0.029907       0.017710

     9   H  -   3   C       0.942380       0.934060
     9   H  -   2   O       0.027154       0.016065

    10   H  -   3   C       0.942380       0.934060
    10   H  -   2   O       0.027154       0.016065

    11   H  -   4   C       0.960052       0.983908

    12   H  -   4   C       0.960052       0.983908


 Valency analysis:

   CEN ATOM   TOT.VALENCE
     1   C       3.865901
     2   O       2.092418
     3   C       3.894801
     4   C       3.933329
     5   H       0.981818
     6   H       0.977870
     7   H       0.987331
     8   H       0.987331
     9   H       0.988497
    10   H       0.988497
    11   H       0.980002
    12   H       0.980002

 Total charge composition:

   CEN ATOM         s          p       ELECTRONS ->P.CHARGE
     1   C       3.00930    3.17095      6.18024   -0.18024
     2   O       3.57643    4.82087      8.39731   -0.39731
     3   C       2.97686    3.05048      6.02734   -0.02734
     4   C       3.00985    3.39130      6.40116   -0.40116
     5   H       0.86516                 0.86516    0.13484
     6   H       0.85124                 0.85124    0.14876
     7   H       0.88744                 0.88744    0.11256
     8   H       0.88744                 0.88744    0.11256
     9   H       0.89275                 0.89275    0.10725
    10   H       0.89275                 0.89275    0.10725
    11   H       0.85859                 0.85859    0.14141
    12   H       0.85859                 0.85859    0.14141

 Total charge composition, AO contributions:

   CEN ATOM SHL      SPHERICAL COMPONENTS
     1   C  1s       1.99142
     1   C  2s       1.01787
     1   C  2p       1.18888    1.16755    0.81452

     2   O  1s       1.99698
     2   O  2s       1.57945
     2   O  2p       1.53162    1.91905    1.37021

     3   C  1s       1.99168
     3   C  2s       0.98517
     3   C  2p       0.86084    1.16127    1.02838

     4   C  1s       1.99064
     4   C  2s       1.01922
     4   C  2p       1.16568    1.17660    1.04903

     5   H  1s       0.86516

     6   H  1s       0.85124

     7   H  1s       0.88744

     8   H  1s       0.88744

     9   H  1s       0.89275

    10   H  1s       0.89275

    11   H  1s       0.85859

    12   H  1s       0.85859

 Summary of localized orbital composition:   [THRPRINT= 0.020]

   ORB  GRP  ORB.ENERGY      CENTERS/CHARGES
     1   1   -19.516334      O  2   2.000
     2   1   -10.512694      C  3   2.000
     3   1   -10.504444      C  1   2.000
     4   1   -10.445833      C  4   2.000
     5   1    -0.854033      O  2   1.251   C  1   0.741
     6   1    -0.844875      O  2   1.260   C  3   0.729
     7   1    -0.663744      C  3   1.006   C  4   0.986
     8   1    -0.624252      O  2   1.965   (other: 0.035)
     9   1    -0.597924      C  1   1.129   H  7   0.870
    10   1    -0.597924      C  1   1.129   H  8   0.870
    11   1    -0.596808      C  1   1.150   H  6   0.844
    12   1    -0.593610      C  3   1.119   H  9   0.872
    13   1    -0.593610      C  3   1.119   H 10   0.872
    14   1    -0.575296      C  4   1.127   H  5   0.859
    15   1    -0.569091      C  4   1.138   H 11   0.852
    16   1    -0.569091      C  4   1.138   H 12   0.852
    17   1    -0.384650      O  2   1.919   (other: 0.081)

 Localized orbitals saved to record      2200.2  (orbital set 4)


 **********************************************************************************************************************************
 DATASETS  * FILE   NREC   LENGTH (MB)   RECORD NAMES
              1      20       64.33       500      610      700      900      950      970     1000      129      960     1100   
                                          VAR    BASINP    GEOM    SYMINP    ZMAT    AOBASIS   BASIS     P2S    ABASIS      S 
                                         1400     1410     1200     1210     1080     1600     1650     1300     1700     1800   
                                           T        V       H0       H01     AOSYM     SMH    MOLCAS    ERIS     OPER     GRID   

              2       5        3.40       700     1000      520     1800     2200   
                                         GEOM     BASIS   MCVARS    GRID      UKS  

 PROGRAMS   *        TOTAL      IBBA       UKS       INT
 CPU TIMES  *        49.33      0.03     47.57      1.59
 REAL TIME  *        50.21 SEC
 DISK USED  *       169.15 MB      
 **********************************************************************************************************************************
 Molecular orbitals read from record     2200.2  Type=UKS/LOCAL(IBO)  
 Occupation numbers read from record     2200.2  Type=UKS/LOCAL(IBO)  
 Orbital energies read from record       2200.2  Type=UKS/LOCAL(IBO)  
 Redundancy group numbers read from rec  2200.2  Type=UKS/BETA (state 1.1)

 IBBA/SVP energy=      0.000000000000

        UKS-SCF 
   -194.14936712
 **********************************************************************************************************************************
 Molpro calculation terminated
