
 Primary working directories    : /tmp/sb13343
 Secondary working directories  : /tmp/sb13343
 Wavefunction directory         : /panfs/panasas01/chem/sb13343/wfu/
 Main file repository           : /tmp/sb13343/

 SHA1      : b4a5b34a9e711420743f49e6833241d17c61fb3c
 NAME      : 2099.9.b4a5b34
 ARCHNAME  : linux/x86_64_openmp
 FC        : /cm/shared/languages/GCC-6.1/bin/gfortran
 BLASLIB   : -lblas
 id        : simonbennie

 Nodes     nprocs
 node34-048    1

 Using customized tuning parameters: mindgm=1; mindgv=20; mindgc=4; mindgr=1; noblas=0; minvec=7
 default implementation of scratch files=df  

 memory,500,m
 geomtyp=xyz
 nosym
 noorient
 geometry={
 C          0.00000        0.00000        0.00000
 O          0.00000        0.00000        1.40962
 C          1.30608        0.00000        1.95787
 C          1.19221        0.00000        3.47353
 H          2.18666        0.00000        3.93332
 H         -1.04410        0.00000       -0.32474
 H          0.50079       -0.89267       -0.41051
 H          0.50079        0.89267       -0.41051
 H          1.86435       -0.88728        1.61056
 H          1.86435        0.88728        1.61056
 H          0.64981       -0.88690        3.81673
 H          0.64981        0.88690        3.81673
 }
 basis={ default,sto-3g }
 {uks,SOGGA11-X,direct;wf,34,1,0}
 {ibba,bonds=1}

 Variables initialized (895), CPU time= 0.00 sec
 Commands  initialized (725), CPU time= 0.02 sec, 591 directives.
 Default parameters read. Elapsed time= 0.15 sec

 Checking input...
 Passed
1


                                         ***  PROGRAM SYSTEM MOLPRO  ***
                                       Copyright, TTI GmbH Stuttgart, 2015
                                    Version 2099.9 linked May 26 2017 16:03:21


 **********************************************************************************************************************************
 LABEL *                                                                                 
  64 bit serial version                                                                  DATE: 08-Jun-17          TIME: 10:05:35  
 **********************************************************************************************************************************

 SHA1:             b4a5b34a9e711420743f49e6833241d17c61fb3c
 **********************************************************************************************************************************
 SETTING GEOMTYP        =    XYZ

 Variable memory set to  500000000 words,  buffer space 

 ZSYMEL=NOSYM

 SETTING BASIS          =    STO-3G


 Recomputing integrals since basis changed


 Using spherical harmonics

 Library entry C      S STO-3G               selected for orbital group  1
 Library entry C      P STO-3G               selected for orbital group  1
 Library entry O      S STO-3G               selected for orbital group  2
 Library entry O      P STO-3G               selected for orbital group  2
 Library entry H      S STO-3G               selected for orbital group  4


 PROGRAM * SEWARD (Integral evaluation for generally contracted gaussian basis sets)     Author: Roland Lindh, 1990

 Geometry written to block  1 of record 700


 Point group  C1  



 ATOMIC COORDINATES

 NR  ATOM    CHARGE       X              Y              Z

   1  C       6.00    0.000000000    0.000000000    0.000000000
   2  O       8.00    0.000000000    0.000000000    2.663795740
   3  C       6.00    2.468133497    0.000000000    3.699838088
   4  C       6.00    2.252950383    0.000000000    6.564020385
   5  H       1.00    4.132188528    0.000000000    7.432897560
   6  H       1.00   -1.973063047    0.000000000   -0.613669662
   7  H       1.00    0.946355946   -1.686901820   -0.775751471
   8  H       1.00    0.946355946    1.686901820   -0.775751471
   9  H       1.00    3.523110900   -1.676716196    3.043517307
  10  H       1.00    3.523110900    1.676716196    3.043517307
  11  H       1.00    1.227962933   -1.675998100    7.212574391
  12  H       1.00    1.227962933    1.675998100    7.212574391

 Bond lengths in Bohr (Angstrom)

 1-2  2.663795740  1-6  2.066293358  1-7  2.083990804  1-8  2.083990804  2-3  2.676764223
     ( 1.409620000)     ( 1.093435356)     ( 1.102800441)     ( 1.102800441)     ( 1.416482626)

  3- 4  2.872254168   3- 9  2.086890388   3-10  2.086890388   4- 5  2.070382464   4-11  2.068862297
       ( 1.519931450)       ( 1.104334835)       ( 1.104334835)       ( 1.095599218)       ( 1.094794780)

  4-12  2.068862297
       ( 1.094794780)

 Bond angles

  1-2-3  112.77108340   2-1-6  107.27693969   2-1-7  111.85402987   2-1-8  111.85402987

  2- 3- 4  108.47458109   2- 3- 9  110.14508041   2- 3-10  110.14508041   3- 4- 5  110.51724552

  3- 4-11  110.47015208   3- 4-12  110.47015208   4- 3- 9  110.57823876   4- 3-10  110.57823876

  5- 4-11  108.55021133   5- 4-12  108.55021133   6- 1- 7  108.84842497   6- 1- 8  108.84842497

  7- 1- 8  108.08590744   9- 3-10  106.92203462  11- 4-12  108.21261054

 NUCLEAR CHARGE:                   34
 NUMBER OF PRIMITIVE AOS:          84
 NUMBER OF SYMMETRY AOS:           84
 NUMBER OF CONTRACTIONS:           28   (  28A   )
 NUMBER OF CORE ORBITALS:           4   (   4A   )
 NUMBER OF VALENCE ORBITALS:       24   (  24A   )


 NUCLEAR REPULSION ENERGY  133.31979421


 Eigenvalues of metric

         1 0.212E+00 0.234E+00 0.263E+00 0.352E+00 0.360E+00 0.368E+00 0.374E+00 0.394E+00


 Contracted 2-electron integrals neglected if value below      1.0D-11
 AO integral compression algorithm  1   Integral accuracy      1.0D-11

     0.786 MB (compressed) written to integral file ( 77.9%)


 NUMBER OF SORTED TWO-ELECTRON INTEGRALS:      82621.     BUFFER LENGTH:  32768
 NUMBER OF SEGMENTS:   1  SEGMENT LENGTH:      82621      RECORD LENGTH: 524288

 Memory used in sort:       0.64 MW

 SORT1 READ       95283. AND WROTE       67599. INTEGRALS IN      1 RECORDS. CPU TIME:     0.00 SEC, REAL TIME:     0.01 SEC
 SORT2 READ       67599. AND WROTE       82621. INTEGRALS IN      3 RECORDS. CPU TIME:     0.02 SEC, REAL TIME:     0.01 SEC

 FILE SIZES:   FILE 1:    31.0 MBYTE,  FILE 4:     4.2 MBYTE,   TOTAL:     35.2 MBYTE

 OPERATOR DM      FOR CENTER  0  COORDINATES:    0.000000    0.000000    0.000000


 **********************************************************************************************************************************
 DATASETS  * FILE   NREC   LENGTH (MB)   RECORD NAMES
              1      19       30.48       500      610      700      900      950      970     1000      129      960     1100   
                                          VAR    BASINP    GEOM    SYMINP    ZMAT    AOBASIS   BASIS     P2S    ABASIS      S 
                                         1400     1410     1200     1210     1080     1600     1650     1300     1700   
                                           T        V       H0       H01     AOSYM     SMH    MOLCAS    ERIS     OPER   

 PROGRAMS   *        TOTAL       INT
 CPU TIMES  *         0.46      0.31
 REAL TIME  *         0.93 SEC
 DISK USED  *        35.64 MB      
 **********************************************************************************************************************************

 Density functional group SOGGA11-X=XC-SOGGA11-X
 Functional: XC-SOGGA11-X(via MFM 1.6)                                         Gradient terms: 1
 Use grid at  1800.2


 Exact exchange will be calculated, factor:  0.4015

 Functional: XC-SOGGA11-X              Factor:  1.0000

 Generated new metagrid on record  1800.2 with target accuracy 1.0D-06 and 44796 points in CPU time    1.2
 Computed new grid on record 1800.1 in CPU time    1.3
   26632 words reserved for DFT integration

 PROGRAM * UKS-SCF (Unrestricted Kohn-Sham)     Authors: W. Meyer, H.-J. Werner, P.J. Knowles, 1993

 NUMBER OF ELECTRONS:      17+   17-    SPACE SYMMETRY=1    SPIN SYMMETRY: Singlet 
 CONVERGENCE THRESHOLDS:    1.00E-05 (Density)    1.00E-06 (Energy)
 MAX. NUMBER OF ITERATIONS:       60
 INTERPOLATION TYPE:            DIIS
 INTERPOLATION STEPS:              2 (START)      1 (STEP)
 LEVEL SHIFTS:                 -0.20 (ALPHA)  -0.20 (BETA) 



 Use fine grid record 1800.2 for energy threshold  1.0D-06
 Orbital guess generated from atomic densities. Full valence occupancy:   17

 Molecular orbital dump at record        2200.2

 Initial alpha occupation  17
 Initial beta  occupation  17

 ITERATION    DDIFF          GRAD             ENERGY        2-EL.EN.            DIPOLE MOMENTS         DIIS
    1      0.000D+00      0.000D+00      -191.73063787    441.885841    1.00598   -0.00000   -0.59653    0
    2      0.436D-01      0.164D-01      -191.88548031    432.905730    0.32470   -0.00000   -0.14698    1
    3      0.350D-02      0.164D-02      -191.88693660    432.889025    0.36741   -0.00000   -0.17716    2
    4      0.150D-02      0.487D-03      -191.88713048    432.854608    0.37089   -0.00000   -0.17940    3
    5      0.710D-03      0.175D-03      -191.88715948    432.848685    0.37493   -0.00000   -0.18273    4
    6      0.212D-03      0.419D-04      -191.88716172    432.848931    0.37428   -0.00000   -0.18288    5
    7      0.508D-04      0.102D-04      -191.88716184    432.848607    0.37438   -0.00000   -0.18291    5
    8      0.745D-05      0.222D-05      -191.88716184    432.848870    0.37435   -0.00000   -0.18289    6
    9      0.163D-05      0.542D-06      -191.88716184    432.848799    0.37435   -0.00000   -0.18288    6

 Final alpha occupancy:  17
 Final beta  occupancy:  17

 !UKS STATE 1.1 Energy               -191.887161843326
 Nuclear energy                       133.31979421
 One-electron energy                 -524.44410578
 Two-electron energy                  216.42439929
 Density functional                   -17.18724956     XC-SOGGA11-X=-17.18724956
 Virial quotient                       -1.01573727
 !UKS STATE 1.1 Dipole moment           0.37434780    -0.00000000    -0.18288424
 Dipole moment /Debye                   0.95143488    -0.00000000    -0.46481493

 Orbital energies for positive spin:

         1.1          2.1          3.1          4.1          5.1          6.1          7.1          8.1          9.1         10.1
    -19.222191   -10.309718   -10.303181   -10.261310    -1.070098    -0.801037    -0.706086    -0.634637    -0.492773    -0.483652

        11.1         12.1         13.1         14.1         15.1         16.1         17.1         18.1         19.1
     -0.456606    -0.434259    -0.394354    -0.364479    -0.362740    -0.260826    -0.188101     0.358690     0.452331

 Orbital energies for negative spin:

         1.1          2.1          3.1          4.1          5.1          6.1          7.1          8.1          9.1         10.1
    -19.222190   -10.309719   -10.303182   -10.261309    -1.070096    -0.801038    -0.706086    -0.634637    -0.492773    -0.483652

        11.1         12.1         13.1         14.1         15.1         16.1         17.1         18.1         19.1
     -0.456606    -0.434259    -0.394354    -0.364479    -0.362740    -0.260824    -0.188100     0.358690     0.452331

 HOMO    -17.1    -0.188100 =      -5.1185eV
 LUMO     18.1     0.358690 =       9.7604eV
 LUMO-HOMO         0.546789 =      14.8789eV

 EXPECTATION VALUE OF S**2:             0.00000000

 Occupation number threshold for canonical orbitals:  1.999000 (occupied),  0.001000 (virtual)

 Number of pseudo-canonical orbitals per symmetry:   17
 Number of active natural orbitals per symmetry:      0

 Natural orbitals saved to record    2200.2 (Orbital set 3)

 Orbital spaces for UNO-CAS (Min. occupation: 0.020  Max. occupation: 1.980):

 Closed:       17
 Active:        0


 **********************************************************************************************************************************
 DATASETS  * FILE   NREC   LENGTH (MB)   RECORD NAMES
              1      20       31.92       500      610      700      900      950      970     1000      129      960     1100   
                                          VAR    BASINP    GEOM    SYMINP    ZMAT    AOBASIS   BASIS     P2S    ABASIS      S 
                                         1400     1410     1200     1210     1080     1600     1650     1300     1700     1800   
                                           T        V       H0       H01     AOSYM     SMH    MOLCAS    ERIS     OPER     GRID   

              2       5        2.98       700     1000      520     1800     2200   
                                         GEOM     BASIS   MCVARS    GRID      UKS  

 PROGRAMS   *        TOTAL       UKS       INT
 CPU TIMES  *         5.22      4.76      0.31
 REAL TIME  *         6.02 SEC
 DISK USED  *        35.64 MB      
 **********************************************************************************************************************************


 PROGRAM * Intrinsic Basis Bonding Analysis (IBBA)          Author: G. Knizia

 Molecular orbitals read from record     2200.2  Type=UKS/ALPHA (state 1.1)
 Fock matrix read from record            2200.2  Type=UKS/TOTAL (state 1.1)
 Orbital energies read from record       2200.2  Type=UKS/ALPHA (state 1.1)
 Density matrix read from record         2200.2  Type=UKS/CHARGE (state 1.1)

 Number of core orbitals:           4 (   4 )
 Number of closed-shell orbitals:  13 (  13 )

 Basis set MINAO-AUTO-PP generated.      Number of basis functions:   28 

 Polarized AO type:                A = (O Ot + (1-O)(1-Ot)) P12
 Orthogonalization method:         Symmetric (Loewdin)
 Localization functional:          L = sum[A,i] <i|n_A|i>^4 -> max

 Localization group 1:  17 orbitals, occupancy  2.000
 Iterative localization: IB/PM,    7 iter; Final gradient 0.18E-09

 Bond order analysis:       [THRPRINT= 0.020]

   CEN ATOM   CEN ATOM     WIBERG.BO      RENORM.BO
     1   C  -   2   O       1.014538       1.015972
     1   C  -   6   H       0.958971       0.976829
     1   C  -   7   H       0.957490       0.951831
     1   C  -   8   H       0.957490       0.951831

     2   O  -   1   C       1.014538       1.015972
     2   O  -   3   C       0.998742       0.996822
     2   O  -   8   H       0.026702       0.015802
     2   O  -   7   H       0.026702       0.015802
     2   O  -  10   H       0.024722       0.014655
     2   O  -   9   H       0.024722       0.014655

     3   C  -   4   C       1.016857       1.009858
     3   C  -   2   O       0.998742       0.996822
     3   C  -   9   H       0.947318       0.941432
     3   C  -  10   H       0.947318       0.941432

     4   C  -   3   C       1.016857       1.009858
     4   C  -   5   H       0.966491       0.991972
     4   C  -  12   H       0.964250       0.987335
     4   C  -  11   H       0.964250       0.987335

     5   H  -   4   C       0.966491       0.991972

     6   H  -   1   C       0.958971       0.976829

     7   H  -   1   C       0.957490       0.951831
     7   H  -   2   O       0.026702       0.015802

     8   H  -   1   C       0.957490       0.951831
     8   H  -   2   O       0.026702       0.015802

     9   H  -   3   C       0.947318       0.941432
     9   H  -   2   O       0.024722       0.014655

    10   H  -   3   C       0.947318       0.941432
    10   H  -   2   O       0.024722       0.014655

    11   H  -   4   C       0.964250       0.987335

    12   H  -   4   C       0.964250       0.987335


 Valency analysis:

   CEN ATOM   TOT.VALENCE
     1   C       3.907185
     2   O       2.140463
     3   C       3.931633
     4   C       3.934447
     5   H       0.982230
     6   H       0.981107
     7   H       0.987610
     8   H       0.987610
     9   H       0.988156
    10   H       0.988156
    11   H       0.981706
    12   H       0.981706

 Total charge composition:

   CEN ATOM         s          p       ELECTRONS ->P.CHARGE
     1   C       3.00921    3.24021      6.24942   -0.24942
     2   O       3.64808    4.58074      8.22883   -0.22883
     3   C       2.98609    3.13058      6.11667   -0.11667
     4   C       2.99786    3.38877      6.38663   -0.38663
     5   H       0.86670                 0.86670    0.13330
     6   H       0.86255                 0.86255    0.13745
     7   H       0.88869                 0.88869    0.11131
     8   H       0.88869                 0.88869    0.11131
     9   H       0.89117                 0.89117    0.10883
    10   H       0.89117                 0.89117    0.10883
    11   H       0.86475                 0.86475    0.13525
    12   H       0.86475                 0.86475    0.13525

 Total charge composition, AO contributions:

   CEN ATOM SHL      SPHERICAL COMPONENTS
     1   C  1s       1.99201
     1   C  2s       1.01721
     1   C  2p       1.18210    1.16867    0.88944

     2   O  1s       1.99719
     2   O  2s       1.65089
     2   O  2p       1.40244    1.92381    1.25449

     3   C  1s       1.99223
     3   C  2s       0.99386
     3   C  2p       0.92489    1.16534    1.04035

     4   C  1s       1.99128
     4   C  2s       1.00658
     4   C  2p       1.16649    1.17220    1.05007

     5   H  1s       0.86670

     6   H  1s       0.86255

     7   H  1s       0.88869

     8   H  1s       0.88869

     9   H  1s       0.89117

    10   H  1s       0.89117

    11   H  1s       0.86475

    12   H  1s       0.86475

 Summary of localized orbital composition:   [THRPRINT= 0.020]

   ORB  GRP  ORB.ENERGY      CENTERS/CHARGES
     1   1   -19.049909      O  2   2.000
     2   1   -10.203177      C  3   2.000
     3   1   -10.192529      C  1   2.000
     4   1   -10.144556      C  4   2.000
     5   1    -0.731531      O  2   1.160   C  1   0.830
     6   1    -0.721568      O  2   1.164   C  3   0.823
     7   1    -0.604173      C  3   1.008   C  4   0.983
     8   1    -0.590458      O  2   1.975   (other: 0.025)
     9   1    -0.544547      C  1   1.138   H  6   0.854
    10   1    -0.542808      C  1   1.126   H  7   0.873
    11   1    -0.542808      C  1   1.126   H  8   0.873
    12   1    -0.539529      C  3   1.121   H  9   0.872
    13   1    -0.539529      C  3   1.121   H 10   0.872
    14   1    -0.526526      C  4   1.129   H  5   0.861
    15   1    -0.520389      C  4   1.132   H 12   0.859
    16   1    -0.520389      C  4   1.132   H 11   0.859
    17   1    -0.231640      O  2   1.924   (other: 0.076)

 Localized orbitals saved to record      2200.2  (orbital set 4)


 **********************************************************************************************************************************
 DATASETS  * FILE   NREC   LENGTH (MB)   RECORD NAMES
              1      20       31.92       500      610      700      900      950      970     1000      129      960     1100   
                                          VAR    BASINP    GEOM    SYMINP    ZMAT    AOBASIS   BASIS     P2S    ABASIS      S 
                                         1400     1410     1200     1210     1080     1600     1650     1300     1700     1800   
                                           T        V       H0       H01     AOSYM     SMH    MOLCAS    ERIS     OPER     GRID   

              2       5        2.99       700     1000      520     1800     2200   
                                         GEOM     BASIS   MCVARS    GRID      UKS  

 PROGRAMS   *        TOTAL      IBBA       UKS       INT
 CPU TIMES  *         5.25      0.03      4.76      0.31
 REAL TIME  *         6.12 SEC
 DISK USED  *        35.64 MB      
 **********************************************************************************************************************************
 Molecular orbitals read from record     2200.2  Type=UKS/LOCAL(IBO)  
 Occupation numbers read from record     2200.2  Type=UKS/LOCAL(IBO)  
 Orbital energies read from record       2200.2  Type=UKS/LOCAL(IBO)  
 Redundancy group numbers read from rec  2200.2  Type=UKS/BETA (state 1.1)

 IBBA/STO-3G energy=      0.000000000000

        UKS-SCF 
   -191.88716184
 **********************************************************************************************************************************
 Molpro calculation terminated
