
 Primary working directories    : /tmp/sb13343
 Secondary working directories  : /tmp/sb13343
 Wavefunction directory         : /panfs/panasas01/chem/sb13343/wfu/
 Main file repository           : /tmp/sb13343/

 SHA1      : b4a5b34a9e711420743f49e6833241d17c61fb3c
 NAME      : 2099.9.b4a5b34
 ARCHNAME  : linux/x86_64_openmp
 FC        : /cm/shared/languages/GCC-6.1/bin/gfortran
 BLASLIB   : -lblas
 id        : simonbennie

 Nodes     nprocs
 node45-002    1

 Using customized tuning parameters: mindgm=1; mindgv=20; mindgc=4; mindgr=1; noblas=0; minvec=7
 default implementation of scratch files=df  

 memory,500,m
 geomtyp=xyz
 nosym
 noorient
 geometry={
 C          0.00000        0.00000        0.00000
 O          0.00000        0.00000        1.40962
 C          1.30608        0.00000        1.95787
 C          1.19221        0.00000        3.47353
 H          2.18666        0.00000        3.93332
 H         -1.04410        0.00000       -0.32474
 H          0.50079       -0.89267       -0.41051
 H          0.50079        0.89267       -0.41051
 H          1.86435       -0.88728        1.61056
 H          1.86435        0.88728        1.61056
 H          0.64981       -0.88690        3.81673
 H          0.64981        0.88690        3.81673
 }
 basis={ default,svp }
 {ks,B-VWN,direct;wf,34,1,0}
 {ibba,bonds=1}

 Variables initialized (895), CPU time= 0.00 sec
 Commands  initialized (725), CPU time= 0.02 sec, 591 directives.
 Default parameters read. Elapsed time= 0.18 sec

 Checking input...
 Passed
1


                                         ***  PROGRAM SYSTEM MOLPRO  ***
                                       Copyright, TTI GmbH Stuttgart, 2015
                                    Version 2099.9 linked May 26 2017 16:03:21


 **********************************************************************************************************************************
 LABEL *                                                                                 
  64 bit serial version                                                                  DATE: 08-Jun-17          TIME: 10:07:11  
 **********************************************************************************************************************************

 SHA1:             b4a5b34a9e711420743f49e6833241d17c61fb3c
 **********************************************************************************************************************************
 SETTING GEOMTYP        =    XYZ

 Variable memory set to  500000000 words,  buffer space 

 ZSYMEL=NOSYM

 SETTING BASIS          =    SVP


 Recomputing integrals since basis changed


 Using spherical harmonics

 Library entry C      S def2-SVP             selected for orbital group  1
 Library entry C      P def2-SVP             selected for orbital group  1
 Library entry C      D def2-SVP             selected for orbital group  1
 Library entry O      S def2-SVP             selected for orbital group  2
 Library entry O      P def2-SVP             selected for orbital group  2
 Library entry O      D def2-SVP             selected for orbital group  2
 Library entry H      S def2-SVP             selected for orbital group  4
 Library entry H      P def2-SVP             selected for orbital group  4


 PROGRAM * SEWARD (Integral evaluation for generally contracted gaussian basis sets)     Author: Roland Lindh, 1990

 Geometry written to block  1 of record 700


 Point group  C1  



 ATOMIC COORDINATES

 NR  ATOM    CHARGE       X              Y              Z

   1  C       6.00    0.000000000    0.000000000    0.000000000
   2  O       8.00    0.000000000    0.000000000    2.663795740
   3  C       6.00    2.468133497    0.000000000    3.699838088
   4  C       6.00    2.252950383    0.000000000    6.564020385
   5  H       1.00    4.132188528    0.000000000    7.432897560
   6  H       1.00   -1.973063047    0.000000000   -0.613669662
   7  H       1.00    0.946355946   -1.686901820   -0.775751471
   8  H       1.00    0.946355946    1.686901820   -0.775751471
   9  H       1.00    3.523110900   -1.676716196    3.043517307
  10  H       1.00    3.523110900    1.676716196    3.043517307
  11  H       1.00    1.227962933   -1.675998100    7.212574391
  12  H       1.00    1.227962933    1.675998100    7.212574391

 Bond lengths in Bohr (Angstrom)

 1-2  2.663795740  1-6  2.066293358  1-7  2.083990804  1-8  2.083990804  2-3  2.676764223
     ( 1.409620000)     ( 1.093435356)     ( 1.102800441)     ( 1.102800441)     ( 1.416482626)

  3- 4  2.872254168   3- 9  2.086890388   3-10  2.086890388   4- 5  2.070382464   4-11  2.068862297
       ( 1.519931450)       ( 1.104334835)       ( 1.104334835)       ( 1.095599218)       ( 1.094794780)

  4-12  2.068862297
       ( 1.094794780)

 Bond angles

  1-2-3  112.77108340   2-1-6  107.27693969   2-1-7  111.85402987   2-1-8  111.85402987

  2- 3- 4  108.47458109   2- 3- 9  110.14508041   2- 3-10  110.14508041   3- 4- 5  110.51724552

  3- 4-11  110.47015208   3- 4-12  110.47015208   4- 3- 9  110.57823876   4- 3-10  110.57823876

  5- 4-11  108.55021133   5- 4-12  108.55021133   6- 1- 7  108.84842497   6- 1- 8  108.84842497

  7- 1- 8  108.08590744   9- 3-10  106.92203462  11- 4-12  108.21261054

 NUCLEAR CHARGE:                   34
 NUMBER OF PRIMITIVE AOS:         156
 NUMBER OF SYMMETRY AOS:          152
 NUMBER OF CONTRACTIONS:           96   (  96A   )
 NUMBER OF CORE ORBITALS:           4   (   4A   )
 NUMBER OF VALENCE ORBITALS:       24   (  24A   )


 NUCLEAR REPULSION ENERGY  133.31979421


 Eigenvalues of metric

         1 0.364E-02 0.952E-02 0.147E-01 0.282E-01 0.312E-01 0.319E-01 0.432E-01 0.449E-01


 Contracted 2-electron integrals neglected if value below      1.0D-11
 AO integral compression algorithm  1   Integral accuracy      1.0D-11

     37.487 MB (compressed) written to integral file ( 40.8%)


 NUMBER OF SORTED TWO-ELECTRON INTEGRALS:   10841496.     BUFFER LENGTH:  32768
 NUMBER OF SEGMENTS:   1  SEGMENT LENGTH:   10841496      RECORD LENGTH: 524288

 Memory used in sort:      11.40 MW

 SORT1 READ    11483613. AND WROTE     8333550. INTEGRALS IN     24 RECORDS. CPU TIME:     0.14 SEC, REAL TIME:     0.32 SEC
 SORT2 READ     8333550. AND WROTE    10841496. INTEGRALS IN    143 RECORDS. CPU TIME:     0.30 SEC, REAL TIME:     0.38 SEC

 FILE SIZES:   FILE 1:    68.0 MBYTE,  FILE 4:   100.7 MBYTE,   TOTAL:    168.7 MBYTE

 OPERATOR DM      FOR CENTER  0  COORDINATES:    0.000000    0.000000    0.000000


 **********************************************************************************************************************************
 DATASETS  * FILE   NREC   LENGTH (MB)   RECORD NAMES
              1      19       62.89       500      610      700      900      950      970     1000      129      960     1100   
                                          VAR    BASINP    GEOM    SYMINP    ZMAT    AOBASIS   BASIS     P2S    ABASIS      S 
                                         1400     1410     1200     1210     1080     1600     1650     1300     1700   
                                           T        V       H0       H01     AOSYM     SMH    MOLCAS    ERIS     OPER   

 PROGRAMS   *        TOTAL       INT
 CPU TIMES  *         1.93      1.79
 REAL TIME  *         3.90 SEC
 DISK USED  *       169.15 MB      
 **********************************************************************************************************************************

 Density functional group B-VWN=B88+VWN5
 Functional: B88(Automatically generated (new) B88)                            Gradient terms: 1
 Functional: VWN5(Automatically generated (new) VWN5)                          Gradient terms: 0
 Use grid at  1800.2

 Functional: B88                       Factor:  1.0000
 Functional: VWN5                      Factor:  1.0000

 Generated new metagrid on record  1800.2 with target accuracy 1.0D-06 and 44796 points in CPU time    1.1
 Computed new grid on record 1800.1 in CPU time    1.3
   80368 words reserved for DFT integration

 PROGRAM * RKS-SCF (Restricted closed shell Kohn-Sham)     Authors: W. Meyer, H.-J. Werner, P.J. Knowles, 1993

 NUMBER OF ELECTRONS:      17+   17-    SPACE SYMMETRY=1    SPIN SYMMETRY: Singlet 
 CONVERGENCE THRESHOLDS:    1.00E-05 (Density)    1.00E-06 (Energy)
 MAX. NUMBER OF ITERATIONS:       60
 INTERPOLATION TYPE:            DIIS
 INTERPOLATION STEPS:              2 (START)      1 (STEP)
 LEVEL SHIFTS:                  0.00 (CLOSED)  0.00 (OPEN) 



 Use fine grid record 1800.2 for energy threshold  1.0D-06
 Orbital guess generated from atomic densities. Full valence occupancy:   17

 Molecular orbital dump at record        2100.2

 Initial occupancy:  17

 ITERATION    DDIFF          GRAD             ENERGY        2-EL.EN.            DIPOLE MOMENTS         DIIS   ORB.
    1      0.000D+00      0.000D+00      -194.94999858    466.538825    0.78428   -0.00000   -0.50646    0    start
    2      0.000D+00      0.114D-01      -194.69265526    433.418962   -0.71356   -0.00000    0.40838    1    diag
    3      0.322D-01      0.178D-01      -195.13523815    454.422714    0.55159   -0.00000   -0.33161    2    diag
    4      0.230D-01      0.283D-02      -195.14303869    453.682635    0.33845   -0.00000   -0.22186    3    diag
    5      0.253D-02      0.888D-03      -195.14386245    453.497761    0.35118   -0.00000   -0.22123    4    diag
    6      0.678D-03      0.149D-03      -195.14388441    453.554217    0.35531   -0.00000   -0.22580    5    diag
    7      0.154D-03      0.733D-04      -195.14389121    453.555991    0.35776   -0.00000   -0.22598    6    diag
    8      0.608D-04      0.961D-05      -195.14389134    453.561380    0.35699   -0.00000   -0.22634    7    diag
    9      0.935D-05      0.198D-05      -195.14389134    453.563237    0.35752   -0.00000   -0.22625    0    orth

 Final occupancy:  17

 !RKS STATE 1.1 Energy               -195.143891340490
 Nuclear energy                       133.31979421
 One-electron energy                 -526.41817763
 Two-electron energy                  226.78161832
 Density functional                   -28.82712625     B88=-26.66912897 VWN5= -2.15799727
 Virial quotient                       -1.01397868
 !RKS STATE 1.1 Dipole moment           0.35752258    -0.00000000    -0.22624671
 Dipole moment /Debye                   0.90867224    -0.00000000    -0.57502412

 Orbital energies:

         1.1          2.1          3.1          4.1          5.1          6.1          7.1          8.1          9.1         10.1
    -18.808021   -10.002720   -10.001572    -9.952851    -0.936757    -0.691414    -0.610385    -0.546853    -0.447866    -0.435684

        11.1         12.1         13.1         14.1         15.1         16.1         17.1         18.1         19.1
     -0.410373    -0.382823    -0.350802    -0.332285    -0.322760    -0.278853    -0.218047     0.032371     0.054446

 HOMO     17.1    -0.218047 =      -5.9334eV
 LUMO     18.1     0.032371 =       0.8809eV
 LUMO-HOMO         0.250418 =       6.8142eV


 **********************************************************************************************************************************
 DATASETS  * FILE   NREC   LENGTH (MB)   RECORD NAMES
              1      20       64.33       500      610      700      900      950      970     1000      129      960     1100   
                                          VAR    BASINP    GEOM    SYMINP    ZMAT    AOBASIS   BASIS     P2S    ABASIS      S 
                                         1400     1410     1200     1210     1080     1600     1650     1300     1700     1800   
                                           T        V       H0       H01     AOSYM     SMH    MOLCAS    ERIS     OPER     GRID   

              2       5        3.14       700     1000      520     1800     2100   
                                         GEOM     BASIS   MCVARS    GRID      RKS  

 PROGRAMS   *        TOTAL        KS       INT
 CPU TIMES  *         9.42      7.49      1.79
 REAL TIME  *        12.58 SEC
 DISK USED  *       169.15 MB      
 **********************************************************************************************************************************


 PROGRAM * Intrinsic Basis Bonding Analysis (IBBA)          Author: G. Knizia

 Molecular orbitals read from record     2100.2  Type=RKS/CANONICAL (state 1.1)
 Fock matrix read from record            2100.2  Type=RKS/TOTAL (state 1.1)
 Orbital energies read from record       2100.2  Type=RKS/CANONICAL (state 1.1)
 Density matrix read from record         2100.2  Type=RKS/CHARGE (state 1.1)

 Number of core orbitals:           4 (   4 )
 Number of closed-shell orbitals:  13 (  13 )

 Basis set MINAO-AUTO-PP generated.      Number of basis functions:   28 

 Polarized AO type:                A = (O Ot + (1-O)(1-Ot)) P12
 Orthogonalization method:         Symmetric (Loewdin)
 Localization functional:          L = sum[A,i] <i|n_A|i>^4 -> max

 Localization group 1:  17 orbitals, occupancy  2.000
 Iterative localization: IB/PM,    7 iter; Final gradient 0.15E-09

 Bond order analysis:       [THRPRINT= 0.020]

   CEN ATOM   CEN ATOM     WIBERG.BO      RENORM.BO
     1   C  -   2   O       0.993848       1.022059
     1   C  -   6   H       0.960316       0.976880
     1   C  -   7   H       0.948671       0.932338
     1   C  -   8   H       0.948671       0.932338

     2   O  -   1   C       0.993848       1.022059
     2   O  -   3   C       0.972166       0.992166
     2   O  -   8   H       0.035871       0.021189
     2   O  -   7   H       0.035871       0.021189
     2   O  -  10   H       0.032114       0.018940
     2   O  -   9   H       0.032114       0.018940

     3   C  -   4   C       1.029515       1.021320
     3   C  -   2   O       0.972166       0.992166
     3   C  -   9   H       0.936878       0.921592
     3   C  -  10   H       0.936878       0.921592

     4   C  -   3   C       1.029515       1.021320
     4   C  -   5   H       0.963882       0.988495
     4   C  -  12   H       0.961385       0.981087
     4   C  -  11   H       0.961385       0.981087

     5   H  -   4   C       0.963882       0.988495

     6   H  -   1   C       0.960316       0.976880

     7   H  -   1   C       0.948671       0.932338
     7   H  -   2   O       0.035871       0.021189

     8   H  -   1   C       0.948671       0.932338
     8   H  -   2   O       0.035871       0.021189

     9   H  -   3   C       0.936878       0.921592
     9   H  -   2   O       0.032114       0.018940

    10   H  -   3   C       0.936878       0.921592
    10   H  -   2   O       0.032114       0.018940

    11   H  -   4   C       0.961385       0.981087

    12   H  -   4   C       0.961385       0.981087


 Valency analysis:

   CEN ATOM   TOT.VALENCE
     1   C       3.871925
     2   O       2.138082
     3   C       3.898886
     4   C       3.944540
     5   H       0.983978
     6   H       0.980509
     7   H       0.989414
     8   H       0.989414
     9   H       0.990611
    10   H       0.990611
    11   H       0.982788
    12   H       0.982788

 Total charge composition:

   CEN ATOM         s          p       ELECTRONS ->P.CHARGE
     1   C       3.01645    3.14860      6.16505   -0.16505
     2   O       3.59737    4.77553      8.37290   -0.37290
     3   C       2.98420    3.03230      6.01649   -0.01649
     4   C       3.01930    3.35441      6.37370   -0.37370
     5   H       0.87342                 0.87342    0.12658
     6   H       0.86039                 0.86039    0.13961
     7   H       0.89711                 0.89711    0.10289
     8   H       0.89711                 0.89711    0.10289
     9   H       0.90310                 0.90310    0.09690
    10   H       0.90310                 0.90310    0.09690
    11   H       0.86880                 0.86880    0.13120
    12   H       0.86880                 0.86880    0.13120

 Total charge composition, AO contributions:

   CEN ATOM SHL      SPHERICAL COMPONENTS
     1   C  1s       1.99182
     1   C  2s       1.02464
     1   C  2p       1.17675    1.15981    0.81204

     2   O  1s       1.99713
     2   O  2s       1.60024
     2   O  2p       1.51620    1.89978    1.35955

     3   C  1s       1.99207
     3   C  2s       0.99212
     3   C  2p       0.85720    1.15148    1.02362

     4   C  1s       1.99104
     4   C  2s       1.02826
     4   C  2p       1.15025    1.16074    1.04342

     5   H  1s       0.87342

     6   H  1s       0.86039

     7   H  1s       0.89711

     8   H  1s       0.89711

     9   H  1s       0.90310

    10   H  1s       0.90310

    11   H  1s       0.86880

    12   H  1s       0.86880

 Summary of localized orbital composition:   [THRPRINT= 0.020]

   ORB  GRP  ORB.ENERGY      CENTERS/CHARGES
     1   1   -18.668341      O  2   2.000
     2   1    -9.901337      C  3   2.000
     3   1    -9.895149      C  1   2.000
     4   1    -9.840235      C  4   2.000
     5   1    -0.700755      O  2   1.251   C  1   0.740
     6   1    -0.692587      O  2   1.260   C  3   0.727
     7   1    -0.536113      C  3   1.005   C  4   0.987
     8   1    -0.486240      O  2   1.959   (other: 0.041)
     9   1    -0.478336      C  1   1.140   H  6   0.853
    10   1    -0.478048      C  1   1.123   H  8   0.876
    11   1    -0.478048      C  1   1.123   H  7   0.876
    12   1    -0.473995      C  3   1.111   H 10   0.879
    13   1    -0.473995      C  3   1.111   H  9   0.879
    14   1    -0.459951      C  4   1.118   H  5   0.867
    15   1    -0.454145      C  4   1.127   H 11   0.862
    16   1    -0.454145      C  4   1.127   H 12   0.862
    17   1    -0.258646      O  2   1.900   C  1   0.021   C  3   0.020   (other: 0.059)

 Localized orbitals saved to record      2100.2  (orbital set 2)


 **********************************************************************************************************************************
 DATASETS  * FILE   NREC   LENGTH (MB)   RECORD NAMES
              1      20       64.33       500      610      700      900      950      970     1000      129      960     1100   
                                          VAR    BASINP    GEOM    SYMINP    ZMAT    AOBASIS   BASIS     P2S    ABASIS      S 
                                         1400     1410     1200     1210     1080     1600     1650     1300     1700     1800   
                                           T        V       H0       H01     AOSYM     SMH    MOLCAS    ERIS     OPER     GRID   

              2       5        3.21       700     1000      520     1800     2100   
                                         GEOM     BASIS   MCVARS    GRID      RKS  

 PROGRAMS   *        TOTAL      IBBA        KS       INT
 CPU TIMES  *         9.45      0.03      7.49      1.79
 REAL TIME  *        12.69 SEC
 DISK USED  *       169.15 MB      
 **********************************************************************************************************************************
 Molecular orbitals read from record     2100.2  Type=RKS/LOCAL(IBO)  
 Occupation numbers read from record     2100.2  Type=RKS/LOCAL(IBO)  
 Orbital energies read from record       2100.2  Type=RKS/LOCAL(IBO)  
 Redundancy group numbers read from rec  2100.2  Type=RKS/LOCAL(IBO)  

 IBBA/SVP energy=      0.000000000000

        KS-SCF  
   -195.14389134
 **********************************************************************************************************************************
 Molpro calculation terminated
