
 Primary working directories    : /tmp/sb13343
 Secondary working directories  : /tmp/sb13343
 Wavefunction directory         : /panfs/panasas01/chem/sb13343/wfu/
 Main file repository           : /tmp/sb13343/

 SHA1      : b4a5b34a9e711420743f49e6833241d17c61fb3c
 NAME      : 2099.9.b4a5b34
 ARCHNAME  : linux/x86_64_openmp
 FC        : /cm/shared/languages/GCC-6.1/bin/gfortran
 BLASLIB   : -lblas
 id        : simonbennie

 Nodes     nprocs
 node32-030    1

 Using customized tuning parameters: mindgm=1; mindgv=20; mindgc=4; mindgr=1; noblas=0; minvec=7
 default implementation of scratch files=df  

 memory,500,m
 geomtyp=xyz
 nosym
 noorient
 geometry={
 C          0.00000        0.00000        0.00000
 O          0.00000        0.00000        1.40962
 C          1.30608        0.00000        1.95787
 C          1.19221        0.00000        3.47353
 H          2.18666        0.00000        3.93332
 H         -1.04410        0.00000       -0.32474
 H          0.50079       -0.89267       -0.41051
 H          0.50079        0.89267       -0.41051
 H          1.86435       -0.88728        1.61056
 H          1.86435        0.88728        1.61056
 H          0.64981       -0.88690        3.81673
 H          0.64981        0.88690        3.81673
 }
 basis={ default,sto-3g }
 {ks,M06-HF,direct;wf,34,1,0}
 {ibba,bonds=1}

 Variables initialized (895), CPU time= 0.00 sec
 Commands  initialized (725), CPU time= 0.02 sec, 591 directives.
 Default parameters read. Elapsed time= 0.09 sec

 Checking input...
 Passed
1


                                         ***  PROGRAM SYSTEM MOLPRO  ***
                                       Copyright, TTI GmbH Stuttgart, 2015
                                    Version 2099.9 linked May 26 2017 16:03:21


 **********************************************************************************************************************************
 LABEL *                                                                                 
  64 bit serial version                                                                  DATE: 08-Jun-17          TIME: 10:03:27  
 **********************************************************************************************************************************

 SHA1:             b4a5b34a9e711420743f49e6833241d17c61fb3c
 **********************************************************************************************************************************
 SETTING GEOMTYP        =    XYZ

 Variable memory set to  500000000 words,  buffer space 

 ZSYMEL=NOSYM

 SETTING BASIS          =    STO-3G


 Recomputing integrals since basis changed


 Using spherical harmonics

 Library entry C      S STO-3G               selected for orbital group  1
 Library entry C      P STO-3G               selected for orbital group  1
 Library entry O      S STO-3G               selected for orbital group  2
 Library entry O      P STO-3G               selected for orbital group  2
 Library entry H      S STO-3G               selected for orbital group  4


 PROGRAM * SEWARD (Integral evaluation for generally contracted gaussian basis sets)     Author: Roland Lindh, 1990

 Geometry written to block  1 of record 700


 Point group  C1  



 ATOMIC COORDINATES

 NR  ATOM    CHARGE       X              Y              Z

   1  C       6.00    0.000000000    0.000000000    0.000000000
   2  O       8.00    0.000000000    0.000000000    2.663795740
   3  C       6.00    2.468133497    0.000000000    3.699838088
   4  C       6.00    2.252950383    0.000000000    6.564020385
   5  H       1.00    4.132188528    0.000000000    7.432897560
   6  H       1.00   -1.973063047    0.000000000   -0.613669662
   7  H       1.00    0.946355946   -1.686901820   -0.775751471
   8  H       1.00    0.946355946    1.686901820   -0.775751471
   9  H       1.00    3.523110900   -1.676716196    3.043517307
  10  H       1.00    3.523110900    1.676716196    3.043517307
  11  H       1.00    1.227962933   -1.675998100    7.212574391
  12  H       1.00    1.227962933    1.675998100    7.212574391

 Bond lengths in Bohr (Angstrom)

 1-2  2.663795740  1-6  2.066293358  1-7  2.083990804  1-8  2.083990804  2-3  2.676764223
     ( 1.409620000)     ( 1.093435356)     ( 1.102800441)     ( 1.102800441)     ( 1.416482626)

  3- 4  2.872254168   3- 9  2.086890388   3-10  2.086890388   4- 5  2.070382464   4-11  2.068862297
       ( 1.519931450)       ( 1.104334835)       ( 1.104334835)       ( 1.095599218)       ( 1.094794780)

  4-12  2.068862297
       ( 1.094794780)

 Bond angles

  1-2-3  112.77108340   2-1-6  107.27693969   2-1-7  111.85402987   2-1-8  111.85402987

  2- 3- 4  108.47458109   2- 3- 9  110.14508041   2- 3-10  110.14508041   3- 4- 5  110.51724552

  3- 4-11  110.47015208   3- 4-12  110.47015208   4- 3- 9  110.57823876   4- 3-10  110.57823876

  5- 4-11  108.55021133   5- 4-12  108.55021133   6- 1- 7  108.84842497   6- 1- 8  108.84842497

  7- 1- 8  108.08590744   9- 3-10  106.92203462  11- 4-12  108.21261054

 NUCLEAR CHARGE:                   34
 NUMBER OF PRIMITIVE AOS:          84
 NUMBER OF SYMMETRY AOS:           84
 NUMBER OF CONTRACTIONS:           28   (  28A   )
 NUMBER OF CORE ORBITALS:           4   (   4A   )
 NUMBER OF VALENCE ORBITALS:       24   (  24A   )


 NUCLEAR REPULSION ENERGY  133.31979421


 Eigenvalues of metric

         1 0.212E+00 0.234E+00 0.263E+00 0.352E+00 0.360E+00 0.368E+00 0.374E+00 0.394E+00


 Contracted 2-electron integrals neglected if value below      1.0D-11
 AO integral compression algorithm  1   Integral accuracy      1.0D-11

     0.786 MB (compressed) written to integral file ( 77.9%)


 NUMBER OF SORTED TWO-ELECTRON INTEGRALS:      82621.     BUFFER LENGTH:  32768
 NUMBER OF SEGMENTS:   1  SEGMENT LENGTH:      82621      RECORD LENGTH: 524288

 Memory used in sort:       0.64 MW

 SORT1 READ       95283. AND WROTE       67599. INTEGRALS IN      1 RECORDS. CPU TIME:     0.00 SEC, REAL TIME:     0.01 SEC
 SORT2 READ       67599. AND WROTE       82621. INTEGRALS IN      3 RECORDS. CPU TIME:     0.01 SEC, REAL TIME:     0.01 SEC

 FILE SIZES:   FILE 1:    31.0 MBYTE,  FILE 4:     4.2 MBYTE,   TOTAL:     35.2 MBYTE

 OPERATOR DM      FOR CENTER  0  COORDINATES:    0.000000    0.000000    0.000000


 **********************************************************************************************************************************
 DATASETS  * FILE   NREC   LENGTH (MB)   RECORD NAMES
              1      19       30.48       500      610      700      900      950      970     1000      129      960     1100   
                                          VAR    BASINP    GEOM    SYMINP    ZMAT    AOBASIS   BASIS     P2S    ABASIS      S 
                                         1400     1410     1200     1210     1080     1600     1650     1300     1700   
                                           T        V       H0       H01     AOSYM     SMH    MOLCAS    ERIS     OPER   

 PROGRAMS   *        TOTAL       INT
 CPU TIMES  *         0.61      0.46
 REAL TIME  *         0.97 SEC
 DISK USED  *        35.64 MB      
 **********************************************************************************************************************************

 Density functional group M06-HF=XC-M06-HF
 Functional: XC-M06-HF(via MFM 1.6)                                            Gradient terms: 1
 Use grid at  1800.2


 Exact exchange will be calculated, factor:  1.0000

 Functional: XC-M06-HF                 Factor:  1.0000

 Generated new metagrid on record  1800.2 with target accuracy 1.0D-06 and 44796 points in CPU time    1.1
 Computed new grid on record 1800.1 in CPU time    1.2
   26632 words reserved for DFT integration

 PROGRAM * RKS-SCF (Restricted closed shell Kohn-Sham)     Authors: W. Meyer, H.-J. Werner, P.J. Knowles, 1993

 NUMBER OF ELECTRONS:      17+   17-    SPACE SYMMETRY=1    SPIN SYMMETRY: Singlet 
 CONVERGENCE THRESHOLDS:    1.00E-05 (Density)    1.00E-06 (Energy)
 MAX. NUMBER OF ITERATIONS:       60
 INTERPOLATION TYPE:            DIIS
 INTERPOLATION STEPS:              2 (START)      1 (STEP)
 LEVEL SHIFTS:                  0.00 (CLOSED)  0.00 (OPEN) 



 Use fine grid record 1800.2 for energy threshold  1.0D-06
 Orbital guess generated from atomic densities. Full valence occupancy:   17

 Molecular orbital dump at record        2100.2

 Initial occupancy:  17

 ITERATION    DDIFF          GRAD             ENERGY        2-EL.EN.            DIPOLE MOMENTS         DIIS   ORB.
    1      0.000D+00      0.000D+00      -191.81015778    408.430583    1.00449    0.00000   -0.57584    0    start
    2      0.000D+00      0.222D-01      -191.93744790    399.289514    0.19706    0.00000   -0.07438    1    diag
    3      0.481D-01      0.614D-02      -191.94622095    400.705801    0.38486    0.00000   -0.20331    2    diag
    4      0.100D-01      0.105D-02      -191.94658618    400.757142    0.38102    0.00000   -0.19690    3    diag
    5      0.241D-02      0.372D-03      -191.94663839    400.726689    0.38538    0.00000   -0.19879    4    diag
    6      0.923D-03      0.547D-04      -191.94664018    400.728832    0.38548    0.00000   -0.19863    5    diag
    7      0.198D-03      0.151D-04      -191.94664028    400.728288    0.38566    0.00000   -0.19858    6    diag
    8      0.430D-04      0.327D-05      -191.94664029    400.728229    0.38562    0.00000   -0.19856    7    diag
    9      0.115D-04      0.542D-06      -191.94664029    400.728246    0.38561    0.00000   -0.19856    8    diag
   10      0.162D-05      0.663D-07      -191.94664029    400.728243    0.38561    0.00000   -0.19856    0    orth

 Final occupancy:  17

 !RKS STATE 1.1 Energy               -191.946640290763
 Nuclear energy                       133.31979421
 One-electron energy                 -524.39698509
 Two-electron energy                  200.36412171
 SCF exchange energy                  -26.75715785     Factor= 1.0000
 Density functional                    -1.23357113     XC-M06-HF=-1.23357113
 Virial quotient                       -1.01636818
 !RKS STATE 1.1 Dipole moment           0.38561284     0.00000000    -0.19855956
 Dipole moment /Debye                   0.98006587     0.00000000    -0.50465500

 Orbital energies:

         1.1          2.1          3.1          4.1          5.1          6.1          7.1          8.1          9.1         10.1
    -19.948435   -10.839267   -10.836466   -10.794860    -1.221083    -0.919143    -0.822131    -0.751572    -0.613037    -0.584289

        11.1         12.1         13.1         14.1         15.1         16.1         17.1         18.1         19.1
     -0.564875    -0.541778    -0.494717    -0.466624    -0.452253    -0.383851    -0.338719     0.460554     0.541472

 HOMO     17.1    -0.338719 =      -9.2170eV
 LUMO     18.1     0.460554 =      12.5323eV
 LUMO-HOMO         0.799273 =      21.7493eV


 **********************************************************************************************************************************
 DATASETS  * FILE   NREC   LENGTH (MB)   RECORD NAMES
              1      20       31.92       500      610      700      900      950      970     1000      129      960     1100   
                                          VAR    BASINP    GEOM    SYMINP    ZMAT    AOBASIS   BASIS     P2S    ABASIS      S 
                                         1400     1410     1200     1210     1080     1600     1650     1300     1700     1800   
                                           T        V       H0       H01     AOSYM     SMH    MOLCAS    ERIS     OPER     GRID   

              2       5        2.96       700     1000      520     1800     2100   
                                         GEOM     BASIS   MCVARS    GRID      RKS  

 PROGRAMS   *        TOTAL        KS       INT
 CPU TIMES  *         7.44      6.83      0.46
 REAL TIME  *         8.98 SEC
 DISK USED  *        35.64 MB      
 **********************************************************************************************************************************


 PROGRAM * Intrinsic Basis Bonding Analysis (IBBA)          Author: G. Knizia

 Molecular orbitals read from record     2100.2  Type=RKS/CANONICAL (state 1.1)
 Fock matrix read from record            2100.2  Type=RKS/TOTAL (state 1.1)
 Orbital energies read from record       2100.2  Type=RKS/CANONICAL (state 1.1)
 Density matrix read from record         2100.2  Type=RKS/CHARGE (state 1.1)

 Number of core orbitals:           4 (   4 )
 Number of closed-shell orbitals:  13 (  13 )

 Basis set MINAO-AUTO-PP generated.      Number of basis functions:   28 

 Polarized AO type:                A = (O Ot + (1-O)(1-Ot)) P12
 Orthogonalization method:         Symmetric (Loewdin)
 Localization functional:          L = sum[A,i] <i|n_A|i>^4 -> max

 Localization group 1:  17 orbitals, occupancy  2.000
 Iterative localization: IB/PM,    6 iter; Final gradient 0.66E-08

 Bond order analysis:       [THRPRINT= 0.020]

   CEN ATOM   CEN ATOM     WIBERG.BO      RENORM.BO
     1   C  -   2   O       1.007173       1.010267
     1   C  -   7   H       0.963879       0.965265
     1   C  -   8   H       0.963879       0.965265
     1   C  -   6   H       0.960379       0.980989

     2   O  -   1   C       1.007173       1.010267
     2   O  -   3   C       0.996224       0.996083

     3   C  -   4   C       1.009760       1.006116
     3   C  -   2   O       0.996224       0.996083
     3   C  -  10   H       0.955161       0.955708
     3   C  -   9   H       0.955161       0.955708

     4   C  -   3   C       1.009760       1.006116
     4   C  -   5   H       0.967194       0.992975
     4   C  -  11   H       0.964677       0.989566
     4   C  -  12   H       0.964677       0.989566

     5   H  -   4   C       0.967194       0.992975

     6   H  -   1   C       0.960379       0.980989

     7   H  -   1   C       0.963879       0.965265

     8   H  -   1   C       0.963879       0.965265

     9   H  -   3   C       0.955161       0.955708

    10   H  -   3   C       0.955161       0.955708

    11   H  -   4   C       0.964677       0.989566

    12   H  -   4   C       0.964677       0.989566


 Valency analysis:

   CEN ATOM   TOT.VALENCE
     1   C       3.912830
     2   O       2.100385
     3   C       3.936774
     4   C       3.927888
     5   H       0.983069
     6   H       0.981337
     7   H       0.987641
     8   H       0.987641
     9   H       0.988049
    10   H       0.988049
    11   H       0.982094
    12   H       0.982094

 Total charge composition:

   CEN ATOM         s          p       ELECTRONS ->P.CHARGE
     1   C       2.98406    3.26901      6.25308   -0.25308
     2   O       3.62809    4.58959      8.21769   -0.21769
     3   C       2.96542    3.16023      6.12565   -0.12565
     4   C       2.97066    3.40826      6.37892   -0.37892
     5   H       0.86988                 0.86988    0.13012
     6   H       0.86339                 0.86339    0.13661
     7   H       0.88883                 0.88883    0.11117
     8   H       0.88883                 0.88883    0.11117
     9   H       0.89068                 0.89068    0.10932
    10   H       0.89068                 0.89068    0.10932
    11   H       0.86619                 0.86619    0.13381
    12   H       0.86619                 0.86619    0.13381

 Total charge composition, AO contributions:

   CEN ATOM SHL      SPHERICAL COMPONENTS
     1   C  1s       1.99177
     1   C  2s       0.99229
     1   C  2p       1.18754    1.16930    0.91217

     2   O  1s       1.99712
     2   O  2s       1.63098
     2   O  2p       1.40324    1.94620    1.24015

     3   C  1s       1.99199
     3   C  2s       0.97343
     3   C  2p       0.94440    1.16809    1.04774

     4   C  1s       1.99105
     4   C  2s       0.97961
     4   C  2p       1.17445    1.18059    1.05322

     5   H  1s       0.86988

     6   H  1s       0.86339

     7   H  1s       0.88883

     8   H  1s       0.88883

     9   H  1s       0.89068

    10   H  1s       0.89068

    11   H  1s       0.86619

    12   H  1s       0.86619

 Summary of localized orbital composition:   [THRPRINT= 0.020]

   ORB  GRP  ORB.ENERGY      CENTERS/CHARGES
     1   1   -19.767778      O  2   2.000
     2   1   -10.730483      C  3   2.000
     3   1   -10.723914      C  1   2.000
     4   1   -10.676106      C  4   2.000
     5   1    -0.851225      O  2   1.141   C  1   0.850
     6   1    -0.842027      O  2   1.146   C  3   0.843
     7   1    -0.746711      O  2   1.980   (other: 0.020)
     8   1    -0.702546      C  3   1.010   C  4   0.979
     9   1    -0.651543      C  1   1.138   H  6   0.855
    10   1    -0.649967      C  1   1.121   H  8   0.877
    11   1    -0.649967      C  1   1.121   H  7   0.877
    12   1    -0.646143      C  3   1.118   H 10   0.876
    13   1    -0.646143      C  3   1.118   H  9   0.876
    14   1    -0.632599      C  4   1.127   H  5   0.864
    15   1    -0.627737      C  4   1.132   H 11   0.861
    16   1    -0.627737      C  4   1.132   H 12   0.861
    17   1    -0.400475      O  2   1.946   (other: 0.054)

 Localized orbitals saved to record      2100.2  (orbital set 2)


 **********************************************************************************************************************************
 DATASETS  * FILE   NREC   LENGTH (MB)   RECORD NAMES
              1      20       31.92       500      610      700      900      950      970     1000      129      960     1100   
                                          VAR    BASINP    GEOM    SYMINP    ZMAT    AOBASIS   BASIS     P2S    ABASIS      S 
                                         1400     1410     1200     1210     1080     1600     1650     1300     1700     1800   
                                           T        V       H0       H01     AOSYM     SMH    MOLCAS    ERIS     OPER     GRID   

              2       5        2.97       700     1000      520     1800     2100   
                                         GEOM     BASIS   MCVARS    GRID      RKS  

 PROGRAMS   *        TOTAL      IBBA        KS       INT
 CPU TIMES  *         7.47      0.03      6.83      0.46
 REAL TIME  *         9.10 SEC
 DISK USED  *        35.64 MB      
 **********************************************************************************************************************************
 Molecular orbitals read from record     2100.2  Type=RKS/LOCAL(IBO)  
 Occupation numbers read from record     2100.2  Type=RKS/LOCAL(IBO)  
 Orbital energies read from record       2100.2  Type=RKS/LOCAL(IBO)  
 Redundancy group numbers read from rec  2100.2  Type=RKS/LOCAL(IBO)  

 IBBA/STO-3G energy=      0.000000000000

        KS-SCF  
   -191.94664029
 **********************************************************************************************************************************
 Molpro calculation terminated
