
 Primary working directories    : /tmp/sb13343
 Secondary working directories  : /tmp/sb13343
 Wavefunction directory         : /panfs/panasas01/chem/sb13343/wfu/
 Main file repository           : /tmp/sb13343/

 SHA1      : b4a5b34a9e711420743f49e6833241d17c61fb3c
 NAME      : 2099.9.b4a5b34
 ARCHNAME  : linux/x86_64_openmp
 FC        : /cm/shared/languages/GCC-6.1/bin/gfortran
 BLASLIB   : -lblas
 id        : simonbennie

 Nodes     nprocs
 node32-028    1

 Using customized tuning parameters: mindgm=1; mindgv=20; mindgc=4; mindgr=1; noblas=0; minvec=7
 default implementation of scratch files=df  

 memory,500,m
 geomtyp=xyz
 nosym
 noorient
 geometry={
 C          0.00000        0.00000        0.00000
 O          0.00000        0.00000        1.40962
 C          1.30608        0.00000        1.95787
 C          1.19221        0.00000        3.47353
 H          2.18666        0.00000        3.93332
 H         -1.04410        0.00000       -0.32474
 H          0.50079       -0.89267       -0.41051
 H          0.50079        0.89267       -0.41051
 H          1.86435       -0.88728        1.61056
 H          1.86435        0.88728        1.61056
 H          0.64981       -0.88690        3.81673
 H          0.64981        0.88690        3.81673
 }
 basis={ default,svp }
 {uks,PBE0MOL,direct;wf,34,1,0}
 {ibba,bonds=1}

 Variables initialized (895), CPU time= 0.00 sec
 Commands  initialized (725), CPU time= 0.01 sec, 591 directives.
 Default parameters read. Elapsed time= 0.08 sec

 Checking input...
 Passed
1


                                         ***  PROGRAM SYSTEM MOLPRO  ***
                                       Copyright, TTI GmbH Stuttgart, 2015
                                    Version 2099.9 linked May 26 2017 16:03:21


 **********************************************************************************************************************************
 LABEL *                                                                                 
  64 bit serial version                                                                  DATE: 08-Jun-17          TIME: 10:16:47  
 **********************************************************************************************************************************

 SHA1:             b4a5b34a9e711420743f49e6833241d17c61fb3c
 **********************************************************************************************************************************
 SETTING GEOMTYP        =    XYZ

 Variable memory set to  500000000 words,  buffer space 

 ZSYMEL=NOSYM

 SETTING BASIS          =    SVP


 Recomputing integrals since basis changed


 Using spherical harmonics

 Library entry C      S def2-SVP             selected for orbital group  1
 Library entry C      P def2-SVP             selected for orbital group  1
 Library entry C      D def2-SVP             selected for orbital group  1
 Library entry O      S def2-SVP             selected for orbital group  2
 Library entry O      P def2-SVP             selected for orbital group  2
 Library entry O      D def2-SVP             selected for orbital group  2
 Library entry H      S def2-SVP             selected for orbital group  4
 Library entry H      P def2-SVP             selected for orbital group  4


 PROGRAM * SEWARD (Integral evaluation for generally contracted gaussian basis sets)     Author: Roland Lindh, 1990

 Geometry written to block  1 of record 700


 Point group  C1  



 ATOMIC COORDINATES

 NR  ATOM    CHARGE       X              Y              Z

   1  C       6.00    0.000000000    0.000000000    0.000000000
   2  O       8.00    0.000000000    0.000000000    2.663795740
   3  C       6.00    2.468133497    0.000000000    3.699838088
   4  C       6.00    2.252950383    0.000000000    6.564020385
   5  H       1.00    4.132188528    0.000000000    7.432897560
   6  H       1.00   -1.973063047    0.000000000   -0.613669662
   7  H       1.00    0.946355946   -1.686901820   -0.775751471
   8  H       1.00    0.946355946    1.686901820   -0.775751471
   9  H       1.00    3.523110900   -1.676716196    3.043517307
  10  H       1.00    3.523110900    1.676716196    3.043517307
  11  H       1.00    1.227962933   -1.675998100    7.212574391
  12  H       1.00    1.227962933    1.675998100    7.212574391

 Bond lengths in Bohr (Angstrom)

 1-2  2.663795740  1-6  2.066293358  1-7  2.083990804  1-8  2.083990804  2-3  2.676764223
     ( 1.409620000)     ( 1.093435356)     ( 1.102800441)     ( 1.102800441)     ( 1.416482626)

  3- 4  2.872254168   3- 9  2.086890388   3-10  2.086890388   4- 5  2.070382464   4-11  2.068862297
       ( 1.519931450)       ( 1.104334835)       ( 1.104334835)       ( 1.095599218)       ( 1.094794780)

  4-12  2.068862297
       ( 1.094794780)

 Bond angles

  1-2-3  112.77108340   2-1-6  107.27693969   2-1-7  111.85402987   2-1-8  111.85402987

  2- 3- 4  108.47458109   2- 3- 9  110.14508041   2- 3-10  110.14508041   3- 4- 5  110.51724552

  3- 4-11  110.47015208   3- 4-12  110.47015208   4- 3- 9  110.57823876   4- 3-10  110.57823876

  5- 4-11  108.55021133   5- 4-12  108.55021133   6- 1- 7  108.84842497   6- 1- 8  108.84842497

  7- 1- 8  108.08590744   9- 3-10  106.92203462  11- 4-12  108.21261054

 NUCLEAR CHARGE:                   34
 NUMBER OF PRIMITIVE AOS:         156
 NUMBER OF SYMMETRY AOS:          152
 NUMBER OF CONTRACTIONS:           96   (  96A   )
 NUMBER OF CORE ORBITALS:           4   (   4A   )
 NUMBER OF VALENCE ORBITALS:       24   (  24A   )


 NUCLEAR REPULSION ENERGY  133.31979421


 Eigenvalues of metric

         1 0.364E-02 0.952E-02 0.147E-01 0.282E-01 0.312E-01 0.319E-01 0.432E-01 0.449E-01


 Contracted 2-electron integrals neglected if value below      1.0D-11
 AO integral compression algorithm  1   Integral accuracy      1.0D-11

     37.487 MB (compressed) written to integral file ( 40.8%)


 NUMBER OF SORTED TWO-ELECTRON INTEGRALS:   10841496.     BUFFER LENGTH:  32768
 NUMBER OF SEGMENTS:   1  SEGMENT LENGTH:   10841496      RECORD LENGTH: 524288

 Memory used in sort:      11.40 MW

 SORT1 READ    11483613. AND WROTE     8333550. INTEGRALS IN     24 RECORDS. CPU TIME:     0.12 SEC, REAL TIME:     0.23 SEC
 SORT2 READ     8333550. AND WROTE    10841496. INTEGRALS IN    143 RECORDS. CPU TIME:     0.26 SEC, REAL TIME:     0.32 SEC

 FILE SIZES:   FILE 1:    68.0 MBYTE,  FILE 4:   100.7 MBYTE,   TOTAL:    168.7 MBYTE

 OPERATOR DM      FOR CENTER  0  COORDINATES:    0.000000    0.000000    0.000000


 **********************************************************************************************************************************
 DATASETS  * FILE   NREC   LENGTH (MB)   RECORD NAMES
              1      19       62.89       500      610      700      900      950      970     1000      129      960     1100   
                                          VAR    BASINP    GEOM    SYMINP    ZMAT    AOBASIS   BASIS     P2S    ABASIS      S 
                                         1400     1410     1200     1210     1080     1600     1650     1300     1700   
                                           T        V       H0       H01     AOSYM     SMH    MOLCAS    ERIS     OPER   

 PROGRAMS   *        TOTAL       INT
 CPU TIMES  *         1.75      1.62
 REAL TIME  *         2.31 SEC
 DISK USED  *       169.15 MB      
 **********************************************************************************************************************************

 Density functional group PBE0MOL=PBEX+PW91C
 Functional: PBEX(Automatically generated (new) PBEX)                          Gradient terms: 1
 Functional: PW91C(Automatically generated (new) PW91C)                        Gradient terms: 1
 Use grid at  1800.2


 Exact exchange will be calculated, factor:  0.2500

 Functional: PBEX                      Factor:  0.7500
 Functional: PW91C                     Factor:  1.0000

 Generated new metagrid on record  1800.2 with target accuracy 1.0D-06 and 44796 points in CPU time    1.1
 Computed new grid on record 1800.1 in CPU time    1.2
   80368 words reserved for DFT integration

 PROGRAM * UKS-SCF (Unrestricted Kohn-Sham)     Authors: W. Meyer, H.-J. Werner, P.J. Knowles, 1993

 NUMBER OF ELECTRONS:      17+   17-    SPACE SYMMETRY=1    SPIN SYMMETRY: Singlet 
 CONVERGENCE THRESHOLDS:    1.00E-05 (Density)    1.00E-06 (Energy)
 MAX. NUMBER OF ITERATIONS:       60
 INTERPOLATION TYPE:            DIIS
 INTERPOLATION STEPS:              2 (START)      1 (STEP)
 LEVEL SHIFTS:                 -0.20 (ALPHA)  -0.20 (BETA) 



 Use fine grid record 1800.2 for energy threshold  1.0D-06
 Orbital guess generated from atomic densities. Full valence occupancy:   17

 Molecular orbital dump at record        2200.2

 Initial alpha occupation  17
 Initial beta  occupation  17

 ITERATION    DDIFF          GRAD             ENERGY        2-EL.EN.            DIPOLE MOMENTS         DIIS
    1      0.000D+00      0.000D+00      -193.94476818    448.427297    0.77306   -0.00000   -0.48566    0
    2      0.883D-02      0.434D-02      -194.02832885    437.669099    0.36454   -0.00000   -0.21952    1
    3      0.263D-02      0.177D-02      -194.03934541    440.146800    0.45313   -0.00000   -0.28154    2
    4      0.826D-03      0.345D-03      -194.04000552    439.920388    0.42002   -0.00000   -0.26378    3
    5      0.701D-03      0.157D-03      -194.04025732    439.857766    0.41140   -0.00000   -0.25981    4
    6      0.381D-03      0.490D-04      -194.04029387    439.826457    0.40423   -0.00000   -0.25730    5
    7      0.686D-04      0.109D-04      -194.04029532    439.824644    0.40383   -0.00000   -0.25661    6
    8      0.176D-04      0.451D-05      -194.04029548    439.822784    0.40343   -0.00000   -0.25668    7
    9      0.678D-05      0.117D-05      -194.04029549    439.823093    0.40335   -0.00000   -0.25659    7
   10      0.153D-05      0.311D-06      -194.04029550    439.823372    0.40335   -0.00000   -0.25658    7

 Final alpha occupancy:  17
 Final beta  occupancy:  17

 !UKS STATE 1.1 Energy               -194.040295495029
 Nuclear energy                       133.31979421
 One-electron energy                 -526.24610235
 Two-electron energy                  219.91168578
 Density functional                   -21.02567313     PBEX=-26.45884643 PW91C= -1.18153831
 Virial quotient                       -1.01029714
 !UKS STATE 1.1 Dipole moment           0.40334510    -0.00000000    -0.25658447
 Dipole moment /Debye                   1.02513385    -0.00000000    -0.65212996

 Orbital energies for positive spin:

         1.1          2.1          3.1          4.1          5.1          6.1          7.1          8.1          9.1         10.1
    -19.210146   -10.279769   -10.276352   -10.227164    -1.045056    -0.774771    -0.684283    -0.615099    -0.501361    -0.492992

        11.1         12.1         13.1         14.1         15.1         16.1         17.1         18.1         19.1
     -0.464123    -0.430451    -0.393755    -0.374490    -0.362970    -0.326762    -0.265436     0.071448     0.095035

 Orbital energies for negative spin:

         1.1          2.1          3.1          4.1          5.1          6.1          7.1          8.1          9.1         10.1
    -19.210145   -10.279769   -10.276351   -10.227163    -1.045055    -0.774770    -0.684281    -0.615098    -0.501361    -0.492991

        11.1         12.1         13.1         14.1         15.1         16.1         17.1         18.1         19.1
     -0.464122    -0.430450    -0.393754    -0.374489    -0.362970    -0.326761    -0.265434     0.071448     0.095034

 HOMO    -17.1    -0.265434 =      -7.2228eV
 LUMO    -18.1     0.071448 =       1.9442eV
 LUMO-HOMO         0.336882 =       9.1670eV

 EXPECTATION VALUE OF S**2:             0.00000000

 Occupation number threshold for canonical orbitals:  1.999000 (occupied),  0.001000 (virtual)

 Number of pseudo-canonical orbitals per symmetry:   17
 Number of active natural orbitals per symmetry:      0

 Natural orbitals saved to record    2200.2 (Orbital set 3)

 Orbital spaces for UNO-CAS (Min. occupation: 0.020  Max. occupation: 1.980):

 Closed:       17
 Active:        0


 **********************************************************************************************************************************
 DATASETS  * FILE   NREC   LENGTH (MB)   RECORD NAMES
              1      20       64.33       500      610      700      900      950      970     1000      129      960     1100   
                                          VAR    BASINP    GEOM    SYMINP    ZMAT    AOBASIS   BASIS     P2S    ABASIS      S 
                                         1400     1410     1200     1210     1080     1600     1650     1300     1700     1800   
                                           T        V       H0       H01     AOSYM     SMH    MOLCAS    ERIS     OPER     GRID   

              2       5        3.33       700     1000      520     1800     2200   
                                         GEOM     BASIS   MCVARS    GRID      UKS  

 PROGRAMS   *        TOTAL       UKS       INT
 CPU TIMES  *        15.07     13.31      1.62
 REAL TIME  *        16.46 SEC
 DISK USED  *       169.15 MB      
 **********************************************************************************************************************************


 PROGRAM * Intrinsic Basis Bonding Analysis (IBBA)          Author: G. Knizia

 Molecular orbitals read from record     2200.2  Type=UKS/ALPHA (state 1.1)
 Fock matrix read from record            2200.2  Type=UKS/TOTAL (state 1.1)
 Orbital energies read from record       2200.2  Type=UKS/ALPHA (state 1.1)
 Density matrix read from record         2200.2  Type=UKS/CHARGE (state 1.1)

 Number of core orbitals:           4 (   4 )
 Number of closed-shell orbitals:  13 (  13 )

 Basis set MINAO-AUTO-PP generated.      Number of basis functions:   28 

 Polarized AO type:                A = (O Ot + (1-O)(1-Ot)) P12
 Orthogonalization method:         Symmetric (Loewdin)
 Localization functional:          L = sum[A,i] <i|n_A|i>^4 -> max

 Localization group 1:  17 orbitals, occupancy  2.000
 Iterative localization: IB/PM,    7 iter; Final gradient 0.20E-09

 Bond order analysis:       [THRPRINT= 0.020]

   CEN ATOM   CEN ATOM     WIBERG.BO      RENORM.BO
     1   C  -   2   O       0.987737       1.018979
     1   C  -   6   H       0.958143       0.978133
     1   C  -   7   H       0.950061       0.939040
     1   C  -   8   H       0.950061       0.939040

     2   O  -   1   C       0.987737       1.018979
     2   O  -   3   C       0.967398       0.990022
     2   O  -   8   H       0.032680       0.019442
     2   O  -   7   H       0.032680       0.019442
     2   O  -  10   H       0.029501       0.017520
     2   O  -   9   H       0.029501       0.017520

     3   C  -   4   C       1.028820       1.020550
     3   C  -   2   O       0.967398       0.990022
     3   C  -   9   H       0.938293       0.927510
     3   C  -  10   H       0.938293       0.927510

     4   C  -   3   C       1.028820       1.020550
     4   C  -   5   H       0.961600       0.989301
     4   C  -  12   H       0.958591       0.981927
     4   C  -  11   H       0.958591       0.981927

     5   H  -   4   C       0.961600       0.989301

     6   H  -   1   C       0.958143       0.978133

     7   H  -   1   C       0.950061       0.939040
     7   H  -   2   O       0.032680       0.019442

     8   H  -   1   C       0.950061       0.939040
     8   H  -   2   O       0.032680       0.019442

     9   H  -   3   C       0.938293       0.927510
     9   H  -   2   O       0.029501       0.017520

    10   H  -   3   C       0.938293       0.927510
    10   H  -   2   O       0.029501       0.017520

    11   H  -   4   C       0.958591       0.981927

    12   H  -   4   C       0.958591       0.981927


 Valency analysis:

   CEN ATOM   TOT.VALENCE
     1   C       3.865458
     2   O       2.113343
     3   C       3.895556
     4   C       3.934712
     5   H       0.981224
     6   H       0.977623
     7   H       0.987239
     8   H       0.987239
     9   H       0.988619
    10   H       0.988619
    11   H       0.979737
    12   H       0.979737

 Total charge composition:

   CEN ATOM         s          p       ELECTRONS ->P.CHARGE
     1   C       3.01881    3.16991      6.18872   -0.18872
     2   O       3.59341    4.79129      8.38470   -0.38470
     3   C       2.98477    3.04627      6.03104   -0.03104
     4   C       3.02077    3.38537      6.40615   -0.40615
     5   H       0.86297                 0.86297    0.13703
     6   H       0.85041                 0.85041    0.14959
     7   H       0.88703                 0.88703    0.11297
     8   H       0.88703                 0.88703    0.11297
     9   H       0.89332                 0.89332    0.10668
    10   H       0.89332                 0.89332    0.10668
    11   H       0.85765                 0.85765    0.14235
    12   H       0.85765                 0.85765    0.14235

 Total charge composition, AO contributions:

   CEN ATOM SHL      SPHERICAL COMPONENTS
     1   C  1s       1.99163
     1   C  2s       1.02718
     1   C  2p       1.18702    1.16770    0.81519

     2   O  1s       1.99708
     2   O  2s       1.59634
     2   O  2p       1.51965    1.91007    1.36157

     3   C  1s       1.99189
     3   C  2s       0.99288
     3   C  2p       0.86128    1.15938    1.02561

     4   C  1s       1.99084
     4   C  2s       1.02993
     4   C  2p       1.16311    1.17372    1.04855

     5   H  1s       0.86297

     6   H  1s       0.85041

     7   H  1s       0.88703

     8   H  1s       0.88703

     9   H  1s       0.89332

    10   H  1s       0.89332

    11   H  1s       0.85765

    12   H  1s       0.85765

 Summary of localized orbital composition:   [THRPRINT= 0.020]

   ORB  GRP  ORB.ENERGY      CENTERS/CHARGES
     1   1   -19.064894      O  2   2.000
     2   1   -10.175156      C  3   2.000
     3   1   -10.166350      C  1   2.000
     4   1   -10.110889      C  4   2.000
     5   1    -0.778375      O  2   1.250   C  1   0.741
     6   1    -0.769869      O  2   1.259   C  3   0.729
     7   1    -0.600643      C  3   1.005   C  4   0.988
     8   1    -0.562427      O  2   1.963   (other: 0.037)
     9   1    -0.532372      C  1   1.131   H  8   0.868
    10   1    -0.532372      C  1   1.131   H  7   0.868
    11   1    -0.532174      C  1   1.151   H  6   0.843
    12   1    -0.528141      C  3   1.120   H 10   0.871
    13   1    -0.528141      C  3   1.120   H  9   0.871
    14   1    -0.512608      C  4   1.128   H  5   0.856
    15   1    -0.506471      C  4   1.138   H 11   0.851
    16   1    -0.506471      C  4   1.138   H 12   0.851
    17   1    -0.317514      O  2   1.910   (other: 0.090)

 Localized orbitals saved to record      2200.2  (orbital set 4)


 **********************************************************************************************************************************
 DATASETS  * FILE   NREC   LENGTH (MB)   RECORD NAMES
              1      20       64.33       500      610      700      900      950      970     1000      129      960     1100   
                                          VAR    BASINP    GEOM    SYMINP    ZMAT    AOBASIS   BASIS     P2S    ABASIS      S 
                                         1400     1410     1200     1210     1080     1600     1650     1300     1700     1800   
                                           T        V       H0       H01     AOSYM     SMH    MOLCAS    ERIS     OPER     GRID   

              2       5        3.40       700     1000      520     1800     2200   
                                         GEOM     BASIS   MCVARS    GRID      UKS  

 PROGRAMS   *        TOTAL      IBBA       UKS       INT
 CPU TIMES  *        15.10      0.03     13.31      1.62
 REAL TIME  *        16.56 SEC
 DISK USED  *       169.15 MB      
 **********************************************************************************************************************************
 Molecular orbitals read from record     2200.2  Type=UKS/LOCAL(IBO)  
 Occupation numbers read from record     2200.2  Type=UKS/LOCAL(IBO)  
 Orbital energies read from record       2200.2  Type=UKS/LOCAL(IBO)  
 Redundancy group numbers read from rec  2200.2  Type=UKS/BETA (state 1.1)

 IBBA/SVP energy=      0.000000000000

        UKS-SCF 
   -194.04029550
 **********************************************************************************************************************************
 Molpro calculation terminated
