
 Primary working directories    : /tmp/sb13343
 Secondary working directories  : /tmp/sb13343
 Wavefunction directory         : /panfs/panasas01/chem/sb13343/wfu/
 Main file repository           : /tmp/sb13343/

 SHA1      : b4a5b34a9e711420743f49e6833241d17c61fb3c
 NAME      : 2099.9.b4a5b34
 ARCHNAME  : linux/x86_64_openmp
 FC        : /cm/shared/languages/GCC-6.1/bin/gfortran
 BLASLIB   : -lblas
 id        : simonbennie

 Nodes     nprocs
 node32-028    1

 Using customized tuning parameters: mindgm=1; mindgv=20; mindgc=4; mindgr=1; noblas=0; minvec=7
 default implementation of scratch files=df  

 memory,500,m
 geomtyp=xyz
 nosym
 noorient
 geometry={
 C          0.00000        0.00000        0.00000
 O          0.00000        0.00000        1.40962
 C          1.30608        0.00000        1.95787
 C          1.19221        0.00000        3.47353
 H          2.18666        0.00000        3.93332
 H         -1.04410        0.00000       -0.32474
 H          0.50079       -0.89267       -0.41051
 H          0.50079        0.89267       -0.41051
 H          1.86435       -0.88728        1.61056
 H          1.86435        0.88728        1.61056
 H          0.64981       -0.88690        3.81673
 H          0.64981        0.88690        3.81673
 }
 basis={ default,svp }
 {ks,M08-HX,direct;wf,34,1,0}
 {ibba,bonds=1}

 Variables initialized (895), CPU time= 0.00 sec
 Commands  initialized (725), CPU time= 0.02 sec, 591 directives.
 Default parameters read. Elapsed time= 0.08 sec

 Checking input...
 Passed
1


                                         ***  PROGRAM SYSTEM MOLPRO  ***
                                       Copyright, TTI GmbH Stuttgart, 2015
                                    Version 2099.9 linked May 26 2017 16:03:21


 **********************************************************************************************************************************
 LABEL *                                                                                 
  64 bit serial version                                                                  DATE: 08-Jun-17          TIME: 10:23:11  
 **********************************************************************************************************************************

 SHA1:             b4a5b34a9e711420743f49e6833241d17c61fb3c
 **********************************************************************************************************************************
 SETTING GEOMTYP        =    XYZ

 Variable memory set to  500000000 words,  buffer space 

 ZSYMEL=NOSYM

 SETTING BASIS          =    SVP


 Recomputing integrals since basis changed


 Using spherical harmonics

 Library entry C      S def2-SVP             selected for orbital group  1
 Library entry C      P def2-SVP             selected for orbital group  1
 Library entry C      D def2-SVP             selected for orbital group  1
 Library entry O      S def2-SVP             selected for orbital group  2
 Library entry O      P def2-SVP             selected for orbital group  2
 Library entry O      D def2-SVP             selected for orbital group  2
 Library entry H      S def2-SVP             selected for orbital group  4
 Library entry H      P def2-SVP             selected for orbital group  4


 PROGRAM * SEWARD (Integral evaluation for generally contracted gaussian basis sets)     Author: Roland Lindh, 1990

 Geometry written to block  1 of record 700


 Point group  C1  



 ATOMIC COORDINATES

 NR  ATOM    CHARGE       X              Y              Z

   1  C       6.00    0.000000000    0.000000000    0.000000000
   2  O       8.00    0.000000000    0.000000000    2.663795740
   3  C       6.00    2.468133497    0.000000000    3.699838088
   4  C       6.00    2.252950383    0.000000000    6.564020385
   5  H       1.00    4.132188528    0.000000000    7.432897560
   6  H       1.00   -1.973063047    0.000000000   -0.613669662
   7  H       1.00    0.946355946   -1.686901820   -0.775751471
   8  H       1.00    0.946355946    1.686901820   -0.775751471
   9  H       1.00    3.523110900   -1.676716196    3.043517307
  10  H       1.00    3.523110900    1.676716196    3.043517307
  11  H       1.00    1.227962933   -1.675998100    7.212574391
  12  H       1.00    1.227962933    1.675998100    7.212574391

 Bond lengths in Bohr (Angstrom)

 1-2  2.663795740  1-6  2.066293358  1-7  2.083990804  1-8  2.083990804  2-3  2.676764223
     ( 1.409620000)     ( 1.093435356)     ( 1.102800441)     ( 1.102800441)     ( 1.416482626)

  3- 4  2.872254168   3- 9  2.086890388   3-10  2.086890388   4- 5  2.070382464   4-11  2.068862297
       ( 1.519931450)       ( 1.104334835)       ( 1.104334835)       ( 1.095599218)       ( 1.094794780)

  4-12  2.068862297
       ( 1.094794780)

 Bond angles

  1-2-3  112.77108340   2-1-6  107.27693969   2-1-7  111.85402987   2-1-8  111.85402987

  2- 3- 4  108.47458109   2- 3- 9  110.14508041   2- 3-10  110.14508041   3- 4- 5  110.51724552

  3- 4-11  110.47015208   3- 4-12  110.47015208   4- 3- 9  110.57823876   4- 3-10  110.57823876

  5- 4-11  108.55021133   5- 4-12  108.55021133   6- 1- 7  108.84842497   6- 1- 8  108.84842497

  7- 1- 8  108.08590744   9- 3-10  106.92203462  11- 4-12  108.21261054

 NUCLEAR CHARGE:                   34
 NUMBER OF PRIMITIVE AOS:         156
 NUMBER OF SYMMETRY AOS:          152
 NUMBER OF CONTRACTIONS:           96   (  96A   )
 NUMBER OF CORE ORBITALS:           4   (   4A   )
 NUMBER OF VALENCE ORBITALS:       24   (  24A   )


 NUCLEAR REPULSION ENERGY  133.31979421


 Eigenvalues of metric

         1 0.364E-02 0.952E-02 0.147E-01 0.282E-01 0.312E-01 0.319E-01 0.432E-01 0.449E-01


 Contracted 2-electron integrals neglected if value below      1.0D-11
 AO integral compression algorithm  1   Integral accuracy      1.0D-11

     37.487 MB (compressed) written to integral file ( 40.8%)


 NUMBER OF SORTED TWO-ELECTRON INTEGRALS:   10841496.     BUFFER LENGTH:  32768
 NUMBER OF SEGMENTS:   1  SEGMENT LENGTH:   10841496      RECORD LENGTH: 524288

 Memory used in sort:      11.40 MW

 SORT1 READ    11483613. AND WROTE     8333550. INTEGRALS IN     24 RECORDS. CPU TIME:     0.12 SEC, REAL TIME:     0.23 SEC
 SORT2 READ     8333550. AND WROTE    10841496. INTEGRALS IN    143 RECORDS. CPU TIME:     0.25 SEC, REAL TIME:     0.31 SEC

 FILE SIZES:   FILE 1:    68.0 MBYTE,  FILE 4:   100.7 MBYTE,   TOTAL:    168.7 MBYTE

 OPERATOR DM      FOR CENTER  0  COORDINATES:    0.000000    0.000000    0.000000


 **********************************************************************************************************************************
 DATASETS  * FILE   NREC   LENGTH (MB)   RECORD NAMES
              1      19       62.89       500      610      700      900      950      970     1000      129      960     1100   
                                          VAR    BASINP    GEOM    SYMINP    ZMAT    AOBASIS   BASIS     P2S    ABASIS      S 
                                         1400     1410     1200     1210     1080     1600     1650     1300     1700   
                                           T        V       H0       H01     AOSYM     SMH    MOLCAS    ERIS     OPER   

 PROGRAMS   *        TOTAL       INT
 CPU TIMES  *         1.72      1.58
 REAL TIME  *         2.31 SEC
 DISK USED  *       169.15 MB      
 **********************************************************************************************************************************

 Density functional group M08-HX=XC-M08-HX
 Functional: XC-M08-HX(via MFM 1.6)                                            Gradient terms: 1
 Use grid at  1800.2


 Exact exchange will be calculated, factor:  0.5223

 Functional: XC-M08-HX                 Factor:  1.0000

 Generated new metagrid on record  1800.2 with target accuracy 1.0D-06 and 44796 points in CPU time    1.1
 Computed new grid on record 1800.1 in CPU time    1.2
   80368 words reserved for DFT integration

 PROGRAM * RKS-SCF (Restricted closed shell Kohn-Sham)     Authors: W. Meyer, H.-J. Werner, P.J. Knowles, 1993

 NUMBER OF ELECTRONS:      17+   17-    SPACE SYMMETRY=1    SPIN SYMMETRY: Singlet 
 CONVERGENCE THRESHOLDS:    1.00E-05 (Density)    1.00E-06 (Energy)
 MAX. NUMBER OF ITERATIONS:       60
 INTERPOLATION TYPE:            DIIS
 INTERPOLATION STEPS:              2 (START)      1 (STEP)
 LEVEL SHIFTS:                  0.00 (CLOSED)  0.00 (OPEN) 



 Use fine grid record 1800.2 for energy threshold  1.0D-06
 Orbital guess generated from atomic densities. Full valence occupancy:   17

 Molecular orbital dump at record        2100.2

 Initial occupancy:  17

 ITERATION    DDIFF          GRAD             ENERGY        2-EL.EN.            DIPOLE MOMENTS         DIIS   ORB.
    1      0.000D+00      0.000D+00      -194.07786233    430.169098    0.72847   -0.00000   -0.44625    0    start
    2      0.000D+00      0.597D-02      -194.09390669    420.081119    0.12836    0.00000   -0.08452    1    diag
    3      0.103D-01      0.541D-02      -194.12873515    425.125077    0.44792    0.00000   -0.28173    2    diag
    4      0.494D-02      0.786D-03      -194.12924607    424.918571    0.40451    0.00000   -0.25720    3    diag
    5      0.710D-03      0.345D-03      -194.12938085    424.897798    0.41651   -0.00000   -0.26091    4    diag
    6      0.277D-03      0.513D-04      -194.12938419    424.908712    0.41463    0.00000   -0.26099    5    diag
    7      0.559D-04      0.126D-04      -194.12938439    424.909837    0.41504    0.00000   -0.26083    6    diag
    8      0.123D-04      0.319D-05      -194.12938440    424.909365    0.41495    0.00000   -0.26087    7    diag
    9      0.293D-05      0.350D-06      -194.12938440    424.909344    0.41493    0.00000   -0.26087    0    orth

 Final occupancy:  17

 !RKS STATE 1.1 Energy               -194.129384404936
 Nuclear energy                       133.31979421
 One-electron energy                 -526.03912289
 Two-electron energy                  212.45467208
 SCF exchange energy                  -26.55130829     Factor= 0.5223
 Density functional                   -13.86472781     XC-M08-HX=-13.86472781
 Virial quotient                       -1.01163577
 !RKS STATE 1.1 Dipole moment           0.41493230     0.00000000    -0.26086610
 Dipole moment /Debye                   1.05458363     0.00000000    -0.66301206

 Orbital energies:

         1.1          2.1          3.1          4.1          5.1          6.1          7.1          8.1          9.1         10.1
    -19.619049   -10.586822   -10.582416   -10.532131    -1.133811    -0.853671    -0.756389    -0.683820    -0.558865    -0.556535

        11.1         12.1         13.1         14.1         15.1         16.1         17.1         18.1         19.1
     -0.524698    -0.486851    -0.446937    -0.426759    -0.415779    -0.384358    -0.324466     0.077757     0.100011

 HOMO     17.1    -0.324466 =      -8.8292eV
 LUMO     18.1     0.077757 =       2.1159eV
 LUMO-HOMO         0.402224 =      10.9451eV


 **********************************************************************************************************************************
 DATASETS  * FILE   NREC   LENGTH (MB)   RECORD NAMES
              1      20       64.33       500      610      700      900      950      970     1000      129      960     1100   
                                          VAR    BASINP    GEOM    SYMINP    ZMAT    AOBASIS   BASIS     P2S    ABASIS      S 
                                         1400     1410     1200     1210     1080     1600     1650     1300     1700     1800   
                                           T        V       H0       H01     AOSYM     SMH    MOLCAS    ERIS     OPER     GRID   

              2       5        3.14       700     1000      520     1800     2100   
                                         GEOM     BASIS   MCVARS    GRID      RKS  

 PROGRAMS   *        TOTAL        KS       INT
 CPU TIMES  *        18.70     16.98      1.58
 REAL TIME  *        19.43 SEC
 DISK USED  *       169.15 MB      
 **********************************************************************************************************************************


 PROGRAM * Intrinsic Basis Bonding Analysis (IBBA)          Author: G. Knizia

 Molecular orbitals read from record     2100.2  Type=RKS/CANONICAL (state 1.1)
 Fock matrix read from record            2100.2  Type=RKS/TOTAL (state 1.1)
 Orbital energies read from record       2100.2  Type=RKS/CANONICAL (state 1.1)
 Density matrix read from record         2100.2  Type=RKS/CHARGE (state 1.1)

 Number of core orbitals:           4 (   4 )
 Number of closed-shell orbitals:  13 (  13 )

 Basis set MINAO-AUTO-PP generated.      Number of basis functions:   28 

 Polarized AO type:                A = (O Ot + (1-O)(1-Ot)) P12
 Orthogonalization method:         Symmetric (Loewdin)
 Localization functional:          L = sum[A,i] <i|n_A|i>^4 -> max

 Localization group 1:  17 orbitals, occupancy  2.000
 Iterative localization: IB/PM,    7 iter; Final gradient 0.31E-09

 Bond order analysis:       [THRPRINT= 0.020]

   CEN ATOM   CEN ATOM     WIBERG.BO      RENORM.BO
     1   C  -   2   O       0.988183       1.018780
     1   C  -   6   H       0.959162       0.978582
     1   C  -   7   H       0.951838       0.941650
     1   C  -   8   H       0.951838       0.941650

     2   O  -   1   C       0.988183       1.018780
     2   O  -   3   C       0.968303       0.992011
     2   O  -   8   H       0.031329       0.018585
     2   O  -   7   H       0.031329       0.018585
     2   O  -  10   H       0.028578       0.016887
     2   O  -   9   H       0.028578       0.016887

     3   C  -   4   C       1.027205       1.019571
     3   C  -   2   O       0.968303       0.992011
     3   C  -   9   H       0.940603       0.929812
     3   C  -  10   H       0.940603       0.929812

     4   C  -   3   C       1.027205       1.019571
     4   C  -   5   H       0.963201       0.989811
     4   C  -  12   H       0.959746       0.982900
     4   C  -  11   H       0.959746       0.982900

     5   H  -   4   C       0.963201       0.989811

     6   H  -   1   C       0.959162       0.978582

     7   H  -   1   C       0.951838       0.941650
     7   H  -   2   O       0.031329       0.018585

     8   H  -   1   C       0.951838       0.941650
     8   H  -   2   O       0.031329       0.018585

     9   H  -   3   C       0.940603       0.929812
     9   H  -   2   O       0.028578       0.016887

    10   H  -   3   C       0.940603       0.929812
    10   H  -   2   O       0.028578       0.016887

    11   H  -   4   C       0.959746       0.982900

    12   H  -   4   C       0.959746       0.982900


 Valency analysis:

   CEN ATOM   TOT.VALENCE
     1   C       3.869028
     2   O       2.108230
     3   C       3.898241
     4   C       3.935346
     5   H       0.981750
     6   H       0.978080
     7   H       0.987430
     8   H       0.987430
     9   H       0.989201
    10   H       0.989201
    11   H       0.980185
    12   H       0.980185

 Total charge composition:

   CEN ATOM         s          p       ELECTRONS ->P.CHARGE
     1   C       3.01648    3.17049      6.18697   -0.18697
     2   O       3.58016    4.80221      8.38237   -0.38237
     3   C       2.98182    3.04546      6.02728   -0.02728
     4   C       3.01629    3.38384      6.40013   -0.40013
     5   H       0.86491                 0.86491    0.13509
     6   H       0.85194                 0.85194    0.14806
     7   H       0.88788                 0.88788    0.11212
     8   H       0.88788                 0.88788    0.11212
     9   H       0.89608                 0.89608    0.10392
    10   H       0.89608                 0.89608    0.10392
    11   H       0.85923                 0.85923    0.14077
    12   H       0.85923                 0.85923    0.14077

 Total charge composition, AO contributions:

   CEN ATOM SHL      SPHERICAL COMPONENTS
     1   C  1s       1.99147
     1   C  2s       1.02500
     1   C  2p       1.18566    1.16566    0.81918

     2   O  1s       1.99705
     2   O  2s       1.58311
     2   O  2p       1.52490    1.91372    1.36359

     3   C  1s       1.99173
     3   C  2s       0.99008
     3   C  2p       0.86215    1.15568    1.02764

     4   C  1s       1.99069
     4   C  2s       1.02560
     4   C  2p       1.16250    1.17269    1.04865

     5   H  1s       0.86491

     6   H  1s       0.85194

     7   H  1s       0.88788

     8   H  1s       0.88788

     9   H  1s       0.89608

    10   H  1s       0.89608

    11   H  1s       0.85923

    12   H  1s       0.85923

 Summary of localized orbital composition:   [THRPRINT= 0.020]

   ORB  GRP  ORB.ENERGY      CENTERS/CHARGES
     1   1   -19.471848      O  2   2.000
     2   1   -10.479565      C  3   2.000
     3   1   -10.469567      C  1   2.000
     4   1   -10.413043      C  4   2.000
     5   1    -0.853250      O  2   1.246   C  1   0.746
     6   1    -0.844784      O  2   1.256   C  3   0.732
     7   1    -0.667172      C  3   1.006   C  4   0.986
     8   1    -0.630892      O  2   1.964   (other: 0.036)
     9   1    -0.592885      C  1   1.129   H  8   0.869
    10   1    -0.592885      C  1   1.129   H  7   0.869
    11   1    -0.592083      C  1   1.149   H  6   0.845
    12   1    -0.588467      C  3   1.117   H  9   0.874
    13   1    -0.588467      C  3   1.117   H 10   0.874
    14   1    -0.571456      C  4   1.127   H  5   0.858
    15   1    -0.565492      C  4   1.137   H 12   0.853
    16   1    -0.565492      C  4   1.137   H 11   0.853
    17   1    -0.386008      O  2   1.913   (other: 0.087)

 Localized orbitals saved to record      2100.2  (orbital set 2)


 **********************************************************************************************************************************
 DATASETS  * FILE   NREC   LENGTH (MB)   RECORD NAMES
              1      20       64.33       500      610      700      900      950      970     1000      129      960     1100   
                                          VAR    BASINP    GEOM    SYMINP    ZMAT    AOBASIS   BASIS     P2S    ABASIS      S 
                                         1400     1410     1200     1210     1080     1600     1650     1300     1700     1800   
                                           T        V       H0       H01     AOSYM     SMH    MOLCAS    ERIS     OPER     GRID   

              2       5        3.21       700     1000      520     1800     2100   
                                         GEOM     BASIS   MCVARS    GRID      RKS  

 PROGRAMS   *        TOTAL      IBBA        KS       INT
 CPU TIMES  *        18.73      0.03     16.98      1.58
 REAL TIME  *        19.55 SEC
 DISK USED  *       169.15 MB      
 **********************************************************************************************************************************
 Molecular orbitals read from record     2100.2  Type=RKS/LOCAL(IBO)  
 Occupation numbers read from record     2100.2  Type=RKS/LOCAL(IBO)  
 Orbital energies read from record       2100.2  Type=RKS/LOCAL(IBO)  
 Redundancy group numbers read from rec  2100.2  Type=RKS/LOCAL(IBO)  

 IBBA/SVP energy=      0.000000000000

        KS-SCF  
   -194.12938440
 **********************************************************************************************************************************
 Molpro calculation terminated
