
 Primary working directories    : /tmp/sb13343
 Secondary working directories  : /tmp/sb13343
 Wavefunction directory         : /panfs/panasas01/chem/sb13343/wfu/
 Main file repository           : /tmp/sb13343/

 SHA1      : b4a5b34a9e711420743f49e6833241d17c61fb3c
 NAME      : 2099.9.b4a5b34
 ARCHNAME  : linux/x86_64_openmp
 FC        : /cm/shared/languages/GCC-6.1/bin/gfortran
 BLASLIB   : -lblas
 id        : simonbennie

 Nodes     nprocs
 node32-030    1

 Using customized tuning parameters: mindgm=1; mindgv=20; mindgc=4; mindgr=1; noblas=0; minvec=7
 default implementation of scratch files=df  

 memory,500,m
 geomtyp=xyz
 nosym
 noorient
 geometry={
 C          0.00000        0.00000        0.00000
 O          0.00000        0.00000        1.40962
 C          1.30608        0.00000        1.95787
 C          1.19221        0.00000        3.47353
 H          2.18666        0.00000        3.93332
 H         -1.04410        0.00000       -0.32474
 H          0.50079       -0.89267       -0.41051
 H          0.50079        0.89267       -0.41051
 H          1.86435       -0.88728        1.61056
 H          1.86435        0.88728        1.61056
 H          0.64981       -0.88690        3.81673
 H          0.64981        0.88690        3.81673
 }
 basis={ default,svp }
 {ks,B3LYP5,direct;wf,34,1,0}
 {ibba,bonds=1}

 Variables initialized (895), CPU time= 0.01 sec
 Commands  initialized (725), CPU time= 0.01 sec, 591 directives.
 Default parameters read. Elapsed time= 0.08 sec

 Checking input...
 Passed
1


                                         ***  PROGRAM SYSTEM MOLPRO  ***
                                       Copyright, TTI GmbH Stuttgart, 2015
                                    Version 2099.9 linked May 26 2017 16:03:21


 **********************************************************************************************************************************
 LABEL *                                                                                 
  64 bit serial version                                                                  DATE: 08-Jun-17          TIME: 10:08:47  
 **********************************************************************************************************************************

 SHA1:             b4a5b34a9e711420743f49e6833241d17c61fb3c
 **********************************************************************************************************************************
 SETTING GEOMTYP        =    XYZ

 Variable memory set to  500000000 words,  buffer space 

 ZSYMEL=NOSYM

 SETTING BASIS          =    SVP


 Recomputing integrals since basis changed


 Using spherical harmonics

 Library entry C      S def2-SVP             selected for orbital group  1
 Library entry C      P def2-SVP             selected for orbital group  1
 Library entry C      D def2-SVP             selected for orbital group  1
 Library entry O      S def2-SVP             selected for orbital group  2
 Library entry O      P def2-SVP             selected for orbital group  2
 Library entry O      D def2-SVP             selected for orbital group  2
 Library entry H      S def2-SVP             selected for orbital group  4
 Library entry H      P def2-SVP             selected for orbital group  4


 PROGRAM * SEWARD (Integral evaluation for generally contracted gaussian basis sets)     Author: Roland Lindh, 1990

 Geometry written to block  1 of record 700


 Point group  C1  



 ATOMIC COORDINATES

 NR  ATOM    CHARGE       X              Y              Z

   1  C       6.00    0.000000000    0.000000000    0.000000000
   2  O       8.00    0.000000000    0.000000000    2.663795740
   3  C       6.00    2.468133497    0.000000000    3.699838088
   4  C       6.00    2.252950383    0.000000000    6.564020385
   5  H       1.00    4.132188528    0.000000000    7.432897560
   6  H       1.00   -1.973063047    0.000000000   -0.613669662
   7  H       1.00    0.946355946   -1.686901820   -0.775751471
   8  H       1.00    0.946355946    1.686901820   -0.775751471
   9  H       1.00    3.523110900   -1.676716196    3.043517307
  10  H       1.00    3.523110900    1.676716196    3.043517307
  11  H       1.00    1.227962933   -1.675998100    7.212574391
  12  H       1.00    1.227962933    1.675998100    7.212574391

 Bond lengths in Bohr (Angstrom)

 1-2  2.663795740  1-6  2.066293358  1-7  2.083990804  1-8  2.083990804  2-3  2.676764223
     ( 1.409620000)     ( 1.093435356)     ( 1.102800441)     ( 1.102800441)     ( 1.416482626)

  3- 4  2.872254168   3- 9  2.086890388   3-10  2.086890388   4- 5  2.070382464   4-11  2.068862297
       ( 1.519931450)       ( 1.104334835)       ( 1.104334835)       ( 1.095599218)       ( 1.094794780)

  4-12  2.068862297
       ( 1.094794780)

 Bond angles

  1-2-3  112.77108340   2-1-6  107.27693969   2-1-7  111.85402987   2-1-8  111.85402987

  2- 3- 4  108.47458109   2- 3- 9  110.14508041   2- 3-10  110.14508041   3- 4- 5  110.51724552

  3- 4-11  110.47015208   3- 4-12  110.47015208   4- 3- 9  110.57823876   4- 3-10  110.57823876

  5- 4-11  108.55021133   5- 4-12  108.55021133   6- 1- 7  108.84842497   6- 1- 8  108.84842497

  7- 1- 8  108.08590744   9- 3-10  106.92203462  11- 4-12  108.21261054

 NUCLEAR CHARGE:                   34
 NUMBER OF PRIMITIVE AOS:         156
 NUMBER OF SYMMETRY AOS:          152
 NUMBER OF CONTRACTIONS:           96   (  96A   )
 NUMBER OF CORE ORBITALS:           4   (   4A   )
 NUMBER OF VALENCE ORBITALS:       24   (  24A   )


 NUCLEAR REPULSION ENERGY  133.31979421


 Eigenvalues of metric

         1 0.364E-02 0.952E-02 0.147E-01 0.282E-01 0.312E-01 0.319E-01 0.432E-01 0.449E-01


 Contracted 2-electron integrals neglected if value below      1.0D-11
 AO integral compression algorithm  1   Integral accuracy      1.0D-11

     37.487 MB (compressed) written to integral file ( 40.8%)


 NUMBER OF SORTED TWO-ELECTRON INTEGRALS:   10841496.     BUFFER LENGTH:  32768
 NUMBER OF SEGMENTS:   1  SEGMENT LENGTH:   10841496      RECORD LENGTH: 524288

 Memory used in sort:      11.40 MW

 SORT1 READ    11483613. AND WROTE     8333550. INTEGRALS IN     24 RECORDS. CPU TIME:     0.13 SEC, REAL TIME:     0.26 SEC
 SORT2 READ     8333550. AND WROTE    10841496. INTEGRALS IN    143 RECORDS. CPU TIME:     0.28 SEC, REAL TIME:     0.34 SEC

 FILE SIZES:   FILE 1:    68.0 MBYTE,  FILE 4:   100.7 MBYTE,   TOTAL:    168.7 MBYTE

 OPERATOR DM      FOR CENTER  0  COORDINATES:    0.000000    0.000000    0.000000


 **********************************************************************************************************************************
 DATASETS  * FILE   NREC   LENGTH (MB)   RECORD NAMES
              1      19       62.89       500      610      700      900      950      970     1000      129      960     1100   
                                          VAR    BASINP    GEOM    SYMINP    ZMAT    AOBASIS   BASIS     P2S    ABASIS      S 
                                         1400     1410     1200     1210     1080     1600     1650     1300     1700   
                                           T        V       H0       H01     AOSYM     SMH    MOLCAS    ERIS     OPER   

 PROGRAMS   *        TOTAL       INT
 CPU TIMES  *         2.00      1.85
 REAL TIME  *         2.67 SEC
 DISK USED  *       169.15 MB      
 **********************************************************************************************************************************

 Density functional group B3LYP5=B88+DIRAC+LYP+VWN5
 Functional: B88(Automatically generated (new) B88)                            Gradient terms: 1
 Functional: DIRAC(Automatically generated (new) DIRAC)                        Gradient terms: 0
 Functional: LYP(Automatically generated (new) LYP)                            Gradient terms: 1
 Functional: VWN5(Automatically generated (new) VWN5)                          Gradient terms: 0
 Use grid at  1800.2


 Exact exchange will be calculated, factor:  0.2000

 Functional: B88                       Factor:  0.7200
 Functional: DIRAC                     Factor:  0.0800
 Functional: LYP                       Factor:  0.8100
 Functional: VWN5                      Factor:  0.1900

 Generated new metagrid on record  1800.2 with target accuracy 1.0D-06 and 44796 points in CPU time    1.1
 Computed new grid on record 1800.1 in CPU time    1.2
   80368 words reserved for DFT integration

 PROGRAM * RKS-SCF (Restricted closed shell Kohn-Sham)     Authors: W. Meyer, H.-J. Werner, P.J. Knowles, 1993

 NUMBER OF ELECTRONS:      17+   17-    SPACE SYMMETRY=1    SPIN SYMMETRY: Singlet 
 CONVERGENCE THRESHOLDS:    1.00E-05 (Density)    1.00E-06 (Energy)
 MAX. NUMBER OF ITERATIONS:       60
 INTERPOLATION TYPE:            DIIS
 INTERPOLATION STEPS:              2 (START)      1 (STEP)
 LEVEL SHIFTS:                  0.00 (CLOSED)  0.00 (OPEN) 



 Use fine grid record 1800.2 for energy threshold  1.0D-06
 Orbital guess generated from atomic densities. Full valence occupancy:   17

 Molecular orbital dump at record        2100.2

 Initial occupancy:  17

 ITERATION    DDIFF          GRAD             ENERGY        2-EL.EN.            DIPOLE MOMENTS         DIIS   ORB.
    1      0.000D+00      0.000D+00      -193.95415235    452.433654    0.78448   -0.00000   -0.49702    0    start
    2      0.000D+00      0.911D-02      -193.90051764    430.328683   -0.23298   -0.00000    0.10913    1    diag
    3      0.205D-01      0.114D-01      -194.07343798    442.804956    0.46500   -0.00000   -0.29385    2    diag
    4      0.123D-01      0.149D-02      -194.07552189    442.494760    0.37235   -0.00000   -0.24364    3    diag
    5      0.124D-02      0.456D-03      -194.07573390    442.461252    0.38638   -0.00000   -0.24779    4    diag
    6      0.334D-03      0.651D-04      -194.07573795    442.483717    0.38587   -0.00000   -0.24880    5    diag
    7      0.637D-04      0.300D-04      -194.07573910    442.485381    0.38672   -0.00000   -0.24861    6    diag
    8      0.241D-04      0.291D-05      -194.07573911    442.486470    0.38656   -0.00000   -0.24871    7    diag
    9      0.269D-05      0.452D-06      -194.07573911    442.486727    0.38663   -0.00000   -0.24870    0    orth

 Final occupancy:  17

 !RKS STATE 1.1 Energy               -194.075739111069
 Nuclear energy                       133.31979421
 One-electron energy                 -526.24142366
 Two-electron energy                  221.24336326
 SCF exchange energy                  -26.58085032     Factor= 0.2000
 Density functional                   -22.39747293     B88=-26.62362353 DIRAC=-23.99149922 LYP= -1.11052913 VWN5= -2.15587080
 Virial quotient                       -1.01004252
 !RKS STATE 1.1 Dipole moment           0.38662552    -0.00000000    -0.24870228
 Dipole moment /Debye                   0.98263968    -0.00000000    -0.63209673

 Orbital energies:

         1.1          2.1          3.1          4.1          5.1          6.1          7.1          8.1          9.1         10.1
    -19.123219   -10.225439   -10.223433   -10.173502    -1.013635    -0.749739    -0.662017    -0.594590    -0.484159    -0.475904

        11.1         12.1         13.1         14.1         15.1         16.1         17.1         18.1         19.1
     -0.447455    -0.415781    -0.380057    -0.360902    -0.350328    -0.311726    -0.251281     0.062215     0.084487

 HOMO     17.1    -0.251281 =      -6.8377eV
 LUMO     18.1     0.062215 =       1.6930eV
 LUMO-HOMO         0.313496 =       8.5307eV


 **********************************************************************************************************************************
 DATASETS  * FILE   NREC   LENGTH (MB)   RECORD NAMES
              1      20       64.33       500      610      700      900      950      970     1000      129      960     1100   
                                          VAR    BASINP    GEOM    SYMINP    ZMAT    AOBASIS   BASIS     P2S    ABASIS      S 
                                         1400     1410     1200     1210     1080     1600     1650     1300     1700     1800   
                                           T        V       H0       H01     AOSYM     SMH    MOLCAS    ERIS     OPER     GRID   

              2       5        3.14       700     1000      520     1800     2100   
                                         GEOM     BASIS   MCVARS    GRID      RKS  

 PROGRAMS   *        TOTAL        KS       INT
 CPU TIMES  *        10.56      8.57      1.85
 REAL TIME  *        11.88 SEC
 DISK USED  *       169.15 MB      
 **********************************************************************************************************************************


 PROGRAM * Intrinsic Basis Bonding Analysis (IBBA)          Author: G. Knizia

 Molecular orbitals read from record     2100.2  Type=RKS/CANONICAL (state 1.1)
 Fock matrix read from record            2100.2  Type=RKS/TOTAL (state 1.1)
 Orbital energies read from record       2100.2  Type=RKS/CANONICAL (state 1.1)
 Density matrix read from record         2100.2  Type=RKS/CHARGE (state 1.1)

 Number of core orbitals:           4 (   4 )
 Number of closed-shell orbitals:  13 (  13 )

 Basis set MINAO-AUTO-PP generated.      Number of basis functions:   28 

 Polarized AO type:                A = (O Ot + (1-O)(1-Ot)) P12
 Orthogonalization method:         Symmetric (Loewdin)
 Localization functional:          L = sum[A,i] <i|n_A|i>^4 -> max

 Localization group 1:  17 orbitals, occupancy  2.000
 Iterative localization: IB/PM,    7 iter; Final gradient 0.17E-09

 Bond order analysis:       [THRPRINT= 0.020]

   CEN ATOM   CEN ATOM     WIBERG.BO      RENORM.BO
     1   C  -   2   O       0.988688       1.019982
     1   C  -   6   H       0.959982       0.978171
     1   C  -   7   H       0.950495       0.937408
     1   C  -   8   H       0.950495       0.937408

     2   O  -   1   C       0.988688       1.019982
     2   O  -   3   C       0.967965       0.991212
     2   O  -   8   H       0.033384       0.019745
     2   O  -   7   H       0.033384       0.019745
     2   O  -  10   H       0.030074       0.017749
     2   O  -   9   H       0.030074       0.017749

     3   C  -   4   C       1.028540       1.020752
     3   C  -   2   O       0.967965       0.991212
     3   C  -   9   H       0.938989       0.926328
     3   C  -  10   H       0.938989       0.926328

     4   C  -   3   C       1.028540       1.020752
     4   C  -   5   H       0.963497       0.989066
     4   C  -  12   H       0.960645       0.981843
     4   C  -  11   H       0.960645       0.981843

     5   H  -   4   C       0.963497       0.989066

     6   H  -   1   C       0.959982       0.978171

     7   H  -   1   C       0.950495       0.937408
     7   H  -   2   O       0.033384       0.019745

     8   H  -   1   C       0.950495       0.937408
     8   H  -   2   O       0.033384       0.019745

     9   H  -   3   C       0.938989       0.926328
     9   H  -   2   O       0.030074       0.017749

    10   H  -   3   C       0.938989       0.926328
    10   H  -   2   O       0.030074       0.017749

    11   H  -   4   C       0.960645       0.981843

    12   H  -   4   C       0.960645       0.981843


 Valency analysis:

   CEN ATOM   TOT.VALENCE
     1   C       3.869150
     2   O       2.117741
     3   C       3.897232
     4   C       3.940446
     5   H       0.983098
     6   H       0.979405
     7   H       0.988545
     8   H       0.988545
     9   H       0.989927
    10   H       0.989927
    11   H       0.981701
    12   H       0.981701

 Total charge composition:

   CEN ATOM         s          p       ELECTRONS ->P.CHARGE
     1   C       3.01384    3.15695      6.17079   -0.17079
     2   O       3.59233    4.79295      8.38528   -0.38528
     3   C       2.98110    3.03644      6.01754   -0.01754
     4   C       3.01673    3.36852      6.38525   -0.38525
     5   H       0.86999                 0.86999    0.13001
     6   H       0.85649                 0.85649    0.14351
     7   H       0.89297                 0.89297    0.10703
     8   H       0.89297                 0.89297    0.10703
     9   H       0.89963                 0.89963    0.10037
    10   H       0.89963                 0.89963    0.10037
    11   H       0.86473                 0.86473    0.13527
    12   H       0.86473                 0.86473    0.13527

 Total charge composition, AO contributions:

   CEN ATOM SHL      SPHERICAL COMPONENTS
     1   C  1s       1.99176
     1   C  2s       1.02208
     1   C  2p       1.18164    1.16266    0.81265

     2   O  1s       1.99710
     2   O  2s       1.59523
     2   O  2p       1.52183    1.90789    1.36324

     3   C  1s       1.99202
     3   C  2s       0.98909
     3   C  2p       0.85757    1.15397    1.02490

     4   C  1s       1.99098
     4   C  2s       1.02574
     4   C  2p       1.15602    1.16669    1.04581

     5   H  1s       0.86999

     6   H  1s       0.85649

     7   H  1s       0.89297

     8   H  1s       0.89297

     9   H  1s       0.89963

    10   H  1s       0.89963

    11   H  1s       0.86473

    12   H  1s       0.86473

 Summary of localized orbital composition:   [THRPRINT= 0.020]

   ORB  GRP  ORB.ENERGY      CENTERS/CHARGES
     1   1   -18.979517      O  2   2.000
     2   1   -10.121874      C  3   2.000
     3   1   -10.114689      C  1   2.000
     4   1   -10.058443      C  4   2.000
     5   1    -0.755470      O  2   1.251   C  1   0.740
     6   1    -0.747192      O  2   1.261   C  3   0.726
     7   1    -0.580484      C  3   1.005   C  4   0.987
     8   1    -0.537416      O  2   1.961   (other: 0.039)
     9   1    -0.515997      C  1   1.125   H  8   0.873
    10   1    -0.515997      C  1   1.125   H  7   0.873
    11   1    -0.515766      C  1   1.144   H  6   0.849
    12   1    -0.511706      C  3   1.114   H 10   0.877
    13   1    -0.511706      C  3   1.114   H  9   0.877
    14   1    -0.496225      C  4   1.122   H  5   0.863
    15   1    -0.490301      C  4   1.131   H 11   0.858
    16   1    -0.490301      C  4   1.131   H 12   0.858
    17   1    -0.300082      O  2   1.908   (other: 0.092)

 Localized orbitals saved to record      2100.2  (orbital set 2)


 **********************************************************************************************************************************
 DATASETS  * FILE   NREC   LENGTH (MB)   RECORD NAMES
              1      20       64.33       500      610      700      900      950      970     1000      129      960     1100   
                                          VAR    BASINP    GEOM    SYMINP    ZMAT    AOBASIS   BASIS     P2S    ABASIS      S 
                                         1400     1410     1200     1210     1080     1600     1650     1300     1700     1800   
                                           T        V       H0       H01     AOSYM     SMH    MOLCAS    ERIS     OPER     GRID   

              2       5        3.21       700     1000      520     1800     2100   
                                         GEOM     BASIS   MCVARS    GRID      RKS  

 PROGRAMS   *        TOTAL      IBBA        KS       INT
 CPU TIMES  *        10.59      0.03      8.57      1.85
 REAL TIME  *        12.00 SEC
 DISK USED  *       169.15 MB      
 **********************************************************************************************************************************
 Molecular orbitals read from record     2100.2  Type=RKS/LOCAL(IBO)  
 Occupation numbers read from record     2100.2  Type=RKS/LOCAL(IBO)  
 Orbital energies read from record       2100.2  Type=RKS/LOCAL(IBO)  
 Redundancy group numbers read from rec  2100.2  Type=RKS/LOCAL(IBO)  

 IBBA/SVP energy=      0.000000000000

        KS-SCF  
   -194.07573911
 **********************************************************************************************************************************
 Molpro calculation terminated
