
 Primary working directories    : /tmp/sb13343
 Secondary working directories  : /tmp/sb13343
 Wavefunction directory         : /panfs/panasas01/chem/sb13343/wfu/
 Main file repository           : /tmp/sb13343/

 SHA1      : b4a5b34a9e711420743f49e6833241d17c61fb3c
 NAME      : 2099.9.b4a5b34
 ARCHNAME  : linux/x86_64_openmp
 FC        : /cm/shared/languages/GCC-6.1/bin/gfortran
 BLASLIB   : -lblas
 id        : simonbennie

 Nodes     nprocs
 node32-007    1

 Using customized tuning parameters: mindgm=1; mindgv=20; mindgc=4; mindgr=1; noblas=0; minvec=7
 default implementation of scratch files=df  

 memory,500,m
 geomtyp=xyz
 nosym
 noorient
 geometry={
 C          0.00000        0.00000        0.00000
 O          0.00000        0.00000        1.40962
 C          1.30608        0.00000        1.95787
 C          1.19221        0.00000        3.47353
 H          2.18666        0.00000        3.93332
 H         -1.04410        0.00000       -0.32474
 H          0.50079       -0.89267       -0.41051
 H          0.50079        0.89267       -0.41051
 H          1.86435       -0.88728        1.61056
 H          1.86435        0.88728        1.61056
 H          0.64981       -0.88690        3.81673
 H          0.64981        0.88690        3.81673
 }
 basis={ default,svp }
 {ks,SOGGA11,direct;wf,34,1,0}
 {ibba,bonds=1}

 Variables initialized (895), CPU time= 0.01 sec
 Commands  initialized (725), CPU time= 0.01 sec, 591 directives.
 Default parameters read. Elapsed time= 0.14 sec

 Checking input...
 Passed
1


                                         ***  PROGRAM SYSTEM MOLPRO  ***
                                       Copyright, TTI GmbH Stuttgart, 2015
                                    Version 2099.9 linked May 26 2017 16:03:21


 **********************************************************************************************************************************
 LABEL *                                                                                 
  64 bit serial version                                                                  DATE: 08-Jun-17          TIME: 10:23:43  
 **********************************************************************************************************************************

 SHA1:             b4a5b34a9e711420743f49e6833241d17c61fb3c
 **********************************************************************************************************************************
 SETTING GEOMTYP        =    XYZ

 Variable memory set to  500000000 words,  buffer space 

 ZSYMEL=NOSYM

 SETTING BASIS          =    SVP


 Recomputing integrals since basis changed


 Using spherical harmonics

 Library entry C      S def2-SVP             selected for orbital group  1
 Library entry C      P def2-SVP             selected for orbital group  1
 Library entry C      D def2-SVP             selected for orbital group  1
 Library entry O      S def2-SVP             selected for orbital group  2
 Library entry O      P def2-SVP             selected for orbital group  2
 Library entry O      D def2-SVP             selected for orbital group  2
 Library entry H      S def2-SVP             selected for orbital group  4
 Library entry H      P def2-SVP             selected for orbital group  4


 PROGRAM * SEWARD (Integral evaluation for generally contracted gaussian basis sets)     Author: Roland Lindh, 1990

 Geometry written to block  1 of record 700


 Point group  C1  



 ATOMIC COORDINATES

 NR  ATOM    CHARGE       X              Y              Z

   1  C       6.00    0.000000000    0.000000000    0.000000000
   2  O       8.00    0.000000000    0.000000000    2.663795740
   3  C       6.00    2.468133497    0.000000000    3.699838088
   4  C       6.00    2.252950383    0.000000000    6.564020385
   5  H       1.00    4.132188528    0.000000000    7.432897560
   6  H       1.00   -1.973063047    0.000000000   -0.613669662
   7  H       1.00    0.946355946   -1.686901820   -0.775751471
   8  H       1.00    0.946355946    1.686901820   -0.775751471
   9  H       1.00    3.523110900   -1.676716196    3.043517307
  10  H       1.00    3.523110900    1.676716196    3.043517307
  11  H       1.00    1.227962933   -1.675998100    7.212574391
  12  H       1.00    1.227962933    1.675998100    7.212574391

 Bond lengths in Bohr (Angstrom)

 1-2  2.663795740  1-6  2.066293358  1-7  2.083990804  1-8  2.083990804  2-3  2.676764223
     ( 1.409620000)     ( 1.093435356)     ( 1.102800441)     ( 1.102800441)     ( 1.416482626)

  3- 4  2.872254168   3- 9  2.086890388   3-10  2.086890388   4- 5  2.070382464   4-11  2.068862297
       ( 1.519931450)       ( 1.104334835)       ( 1.104334835)       ( 1.095599218)       ( 1.094794780)

  4-12  2.068862297
       ( 1.094794780)

 Bond angles

  1-2-3  112.77108340   2-1-6  107.27693969   2-1-7  111.85402987   2-1-8  111.85402987

  2- 3- 4  108.47458109   2- 3- 9  110.14508041   2- 3-10  110.14508041   3- 4- 5  110.51724552

  3- 4-11  110.47015208   3- 4-12  110.47015208   4- 3- 9  110.57823876   4- 3-10  110.57823876

  5- 4-11  108.55021133   5- 4-12  108.55021133   6- 1- 7  108.84842497   6- 1- 8  108.84842497

  7- 1- 8  108.08590744   9- 3-10  106.92203462  11- 4-12  108.21261054

 NUCLEAR CHARGE:                   34
 NUMBER OF PRIMITIVE AOS:         156
 NUMBER OF SYMMETRY AOS:          152
 NUMBER OF CONTRACTIONS:           96   (  96A   )
 NUMBER OF CORE ORBITALS:           4   (   4A   )
 NUMBER OF VALENCE ORBITALS:       24   (  24A   )


 NUCLEAR REPULSION ENERGY  133.31979421


 Eigenvalues of metric

         1 0.364E-02 0.952E-02 0.147E-01 0.282E-01 0.312E-01 0.319E-01 0.432E-01 0.449E-01


 Contracted 2-electron integrals neglected if value below      1.0D-11
 AO integral compression algorithm  1   Integral accuracy      1.0D-11

     37.487 MB (compressed) written to integral file ( 40.8%)


 NUMBER OF SORTED TWO-ELECTRON INTEGRALS:   10841496.     BUFFER LENGTH:  32768
 NUMBER OF SEGMENTS:   1  SEGMENT LENGTH:   10841496      RECORD LENGTH: 524288

 Memory used in sort:      11.40 MW

 SORT1 READ    11483613. AND WROTE     8333550. INTEGRALS IN     24 RECORDS. CPU TIME:     0.17 SEC, REAL TIME:     0.37 SEC
 SORT2 READ     8333550. AND WROTE    10841496. INTEGRALS IN    143 RECORDS. CPU TIME:     0.38 SEC, REAL TIME:     0.47 SEC

 FILE SIZES:   FILE 1:    68.0 MBYTE,  FILE 4:   100.7 MBYTE,   TOTAL:    168.7 MBYTE

 OPERATOR DM      FOR CENTER  0  COORDINATES:    0.000000    0.000000    0.000000


 **********************************************************************************************************************************
 DATASETS  * FILE   NREC   LENGTH (MB)   RECORD NAMES
              1      19       62.89       500      610      700      900      950      970     1000      129      960     1100   
                                          VAR    BASINP    GEOM    SYMINP    ZMAT    AOBASIS   BASIS     P2S    ABASIS      S 
                                         1400     1410     1200     1210     1080     1600     1650     1300     1700   
                                           T        V       H0       H01     AOSYM     SMH    MOLCAS    ERIS     OPER   

 PROGRAMS   *        TOTAL       INT
 CPU TIMES  *         2.20      2.06
 REAL TIME  *         3.11 SEC
 DISK USED  *       169.15 MB      
 **********************************************************************************************************************************

 Density functional group SOGGA11=XC-SOGGA11
 Functional: XC-SOGGA11(via MFM 1.6)                                           Gradient terms: 1
 Use grid at  1800.2

 Functional: XC-SOGGA11                Factor:  1.0000

 Generated new metagrid on record  1800.2 with target accuracy 1.0D-06 and 44796 points in CPU time    1.5
 Computed new grid on record 1800.1 in CPU time    1.7
   80368 words reserved for DFT integration

 PROGRAM * RKS-SCF (Restricted closed shell Kohn-Sham)     Authors: W. Meyer, H.-J. Werner, P.J. Knowles, 1993

 NUMBER OF ELECTRONS:      17+   17-    SPACE SYMMETRY=1    SPIN SYMMETRY: Singlet 
 CONVERGENCE THRESHOLDS:    1.00E-05 (Density)    1.00E-06 (Energy)
 MAX. NUMBER OF ITERATIONS:       60
 INTERPOLATION TYPE:            DIIS
 INTERPOLATION STEPS:              2 (START)      1 (STEP)
 LEVEL SHIFTS:                  0.00 (CLOSED)  0.00 (OPEN) 



 Use fine grid record 1800.2 for energy threshold  1.0D-06
 Orbital guess generated from atomic densities. Full valence occupancy:   17

 Molecular orbital dump at record        2100.2

 Initial occupancy:  17

 ITERATION    DDIFF          GRAD             ENERGY        2-EL.EN.            DIPOLE MOMENTS         DIIS   ORB.
    1      0.000D+00      0.000D+00      -194.00630155    466.972958    0.78552   -0.00000   -0.51191    0    start
    2      0.000D+00      0.116D-01      -193.81492565    435.771226   -0.51881   -0.00000    0.26591    1    diag
    3      0.257D-01      0.165D-01      -194.19010649    454.793086    0.53943   -0.00000   -0.34613    2    diag
    4      0.161D-01      0.265D-02      -194.19747979    453.947150    0.32985   -0.00000   -0.22962    3    diag
    5      0.274D-02      0.863D-03      -194.19843934    453.815990    0.33031   -0.00000   -0.22005    4    diag
    6      0.146D-02      0.280D-03      -194.19858963    453.859625    0.31410   -0.00000   -0.21529    5    diag
    7      0.102D-02      0.169D-03      -194.19862725    453.856993    0.31290   -0.00000   -0.21328    6    diag
    8      0.462D-03      0.809D-04      -194.19863619    453.874118    0.30829   -0.00000   -0.21396    7    diag
    9      0.119D-03      0.850D-05      -194.19863630    453.876774    0.30919   -0.00000   -0.21355    8    diag
   10      0.223D-04      0.321D-05      -194.19863632    453.876079    0.30873   -0.00000   -0.21372    9    orth
   11      0.472D-05      0.121D-05      -194.19863631    453.877249    0.30878   -0.00000   -0.21376    0    orth

 Final occupancy:  17

 !RKS STATE 1.1 Energy               -194.198636313590
 Nuclear energy                       133.31979421
 One-electron energy                 -526.60643798
 Two-electron energy                  226.93862466
 Density functional                   -27.85061720     XC-SOGGA11=-27.85061720
 Virial quotient                       -1.01055231
 !RKS STATE 1.1 Dipole moment           0.30877751    -0.00000000    -0.21376355
 Dipole moment /Debye                   0.78478274    -0.00000000    -0.54329716

 Orbital energies:

         1.1          2.1          3.1          4.1          5.1          6.1          7.1          8.1          9.1         10.1
    -18.757427    -9.947804    -9.945511    -9.897115    -0.922147    -0.678517    -0.596242    -0.531551    -0.438514    -0.423129

        11.1         12.1         13.1         14.1         15.1         16.1         17.1         18.1         19.1
     -0.398580    -0.369747    -0.336047    -0.320267    -0.306695    -0.265414    -0.202583     0.025688     0.065307

 HOMO     17.1    -0.202583 =      -5.5126eV
 LUMO     18.1     0.025688 =       0.6990eV
 LUMO-HOMO         0.228271 =       6.2116eV


 **********************************************************************************************************************************
 DATASETS  * FILE   NREC   LENGTH (MB)   RECORD NAMES
              1      20       64.33       500      610      700      900      950      970     1000      129      960     1100   
                                          VAR    BASINP    GEOM    SYMINP    ZMAT    AOBASIS   BASIS     P2S    ABASIS      S 
                                         1400     1410     1200     1210     1080     1600     1650     1300     1700     1800   
                                           T        V       H0       H01     AOSYM     SMH    MOLCAS    ERIS     OPER     GRID   

              2       5        3.14       700     1000      520     1800     2100   
                                         GEOM     BASIS   MCVARS    GRID      RKS  

 PROGRAMS   *        TOTAL        KS       INT
 CPU TIMES  *        12.99     10.79      2.06
 REAL TIME  *        14.56 SEC
 DISK USED  *       169.15 MB      
 **********************************************************************************************************************************


 PROGRAM * Intrinsic Basis Bonding Analysis (IBBA)          Author: G. Knizia

 Molecular orbitals read from record     2100.2  Type=RKS/CANONICAL (state 1.1)
 Fock matrix read from record            2100.2  Type=RKS/TOTAL (state 1.1)
 Orbital energies read from record       2100.2  Type=RKS/CANONICAL (state 1.1)
 Density matrix read from record         2100.2  Type=RKS/CHARGE (state 1.1)

 Number of core orbitals:           4 (   4 )
 Number of closed-shell orbitals:  13 (  13 )

 Basis set MINAO-AUTO-PP generated.      Number of basis functions:   28 

 Polarized AO type:                A = (O Ot + (1-O)(1-Ot)) P12
 Orthogonalization method:         Symmetric (Loewdin)
 Localization functional:          L = sum[A,i] <i|n_A|i>^4 -> max

 Localization group 1:  17 orbitals, occupancy  2.000
 Iterative localization: IB/PM,    7 iter; Final gradient 0.20E-09

 Bond order analysis:       [THRPRINT= 0.020]

   CEN ATOM   CEN ATOM     WIBERG.BO      RENORM.BO
     1   C  -   2   O       0.997624       1.020627
     1   C  -   6   H       0.952644       0.977856
     1   C  -   7   H       0.942912       0.931013
     1   C  -   8   H       0.942912       0.931013

     2   O  -   1   C       0.997624       1.020627
     2   O  -   3   C       0.976549       0.989796
     2   O  -   8   H       0.036866       0.022185
     2   O  -   7   H       0.036866       0.022185
     2   O  -  10   H       0.033594       0.020119
     2   O  -   9   H       0.033594       0.020119

     3   C  -   4   C       1.028778       1.019564
     3   C  -   2   O       0.976549       0.989796
     3   C  -  10   H       0.931744       0.919052
     3   C  -   9   H       0.931744       0.919052

     4   C  -   3   C       1.028778       1.019564
     4   C  -   5   H       0.956794       0.989095
     4   C  -  12   H       0.953790       0.981140
     4   C  -  11   H       0.953790       0.981140

     5   H  -   4   C       0.956794       0.989095

     6   H  -   1   C       0.952644       0.977856

     7   H  -   1   C       0.942912       0.931013
     7   H  -   2   O       0.036866       0.022185

     8   H  -   1   C       0.942912       0.931013
     8   H  -   2   O       0.036866       0.022185

     9   H  -   3   C       0.931744       0.919052
     9   H  -   2   O       0.033594       0.020119

    10   H  -   3   C       0.931744       0.919052
    10   H  -   2   O       0.033594       0.020119

    11   H  -   4   C       0.953790       0.981140

    12   H  -   4   C       0.953790       0.981140


 Valency analysis:

   CEN ATOM   TOT.VALENCE
     1   C       3.857185
     2   O       2.152306
     3   C       3.893517
     4   C       3.923377
     5   H       0.978417
     6   H       0.973676
     7   H       0.985724
     8   H       0.985724
     9   H       0.987736
    10   H       0.987736
    11   H       0.976530
    12   H       0.976530

 Total charge composition:

   CEN ATOM         s          p       ELECTRONS ->P.CHARGE
     1   C       3.01597    3.21449      6.23046   -0.23046
     2   O       3.59096    4.76323      8.35420   -0.35420
     3   C       2.98271    3.06860      6.05131   -0.05131
     4   C       3.01752    3.42252      6.44004   -0.44004
     5   H       0.85309                 0.85309    0.14691
     6   H       0.83775                 0.83775    0.16225
     7   H       0.88052                 0.88052    0.11948
     8   H       0.88052                 0.88052    0.11948
     9   H       0.88926                 0.88926    0.11074
    10   H       0.88926                 0.88926    0.11074
    11   H       0.84680                 0.84680    0.15320
    12   H       0.84680                 0.84680    0.15320

 Total charge composition, AO contributions:

   CEN ATOM SHL      SPHERICAL COMPONENTS
     1   C  1s       1.99216
     1   C  2s       1.02381
     1   C  2p       1.20410    1.18411    0.82628

     2   O  1s       1.99726
     2   O  2s       1.59370
     2   O  2p       1.51123    1.89774    1.35426

     3   C  1s       1.99242
     3   C  2s       0.99030
     3   C  2p       0.86976    1.17243    1.02641

     4   C  1s       1.99143
     4   C  2s       1.02609
     4   C  2p       1.17740    1.18959    1.05553

     5   H  1s       0.85309

     6   H  1s       0.83775

     7   H  1s       0.88052

     8   H  1s       0.88052

     9   H  1s       0.88926

    10   H  1s       0.88926

    11   H  1s       0.84680

    12   H  1s       0.84680

 Summary of localized orbital composition:   [THRPRINT= 0.020]

   ORB  GRP  ORB.ENERGY      CENTERS/CHARGES
     1   1   -18.621315      O  2   2.000
     2   1    -9.847123      C  3   2.000
     3   1    -9.839792      C  1   2.000
     4   1    -9.785474      C  4   2.000
     5   1    -0.691656      O  2   1.241   C  1   0.749
     6   1    -0.682892      O  2   1.254   C  3   0.734
     7   1    -0.527471      C  3   1.001   C  4   0.990
     8   1    -0.468290      O  2   1.957   (other: 0.043)
     9   1    -0.463743      C  1   1.140   H  8   0.858
    10   1    -0.463743      C  1   1.140   H  7   0.858
    11   1    -0.462935      C  1   1.163   H  6   0.830
    12   1    -0.458561      C  3   1.126   H 10   0.864
    13   1    -0.458561      C  3   1.126   H  9   0.864
    14   1    -0.444388      C  4   1.137   H  5   0.846
    15   1    -0.438241      C  4   1.149   H 11   0.839
    16   1    -0.438241      C  4   1.149   H 12   0.839
    17   1    -0.244865      O  2   1.897   C  1   0.020   (other: 0.082)

 Localized orbitals saved to record      2100.2  (orbital set 2)


 **********************************************************************************************************************************
 DATASETS  * FILE   NREC   LENGTH (MB)   RECORD NAMES
              1      20       64.33       500      610      700      900      950      970     1000      129      960     1100   
                                          VAR    BASINP    GEOM    SYMINP    ZMAT    AOBASIS   BASIS     P2S    ABASIS      S 
                                         1400     1410     1200     1210     1080     1600     1650     1300     1700     1800   
                                           T        V       H0       H01     AOSYM     SMH    MOLCAS    ERIS     OPER     GRID   

              2       5        3.21       700     1000      520     1800     2100   
                                         GEOM     BASIS   MCVARS    GRID      RKS  

 PROGRAMS   *        TOTAL      IBBA        KS       INT
 CPU TIMES  *        13.03      0.03     10.79      2.06
 REAL TIME  *        14.68 SEC
 DISK USED  *       169.15 MB      
 **********************************************************************************************************************************
 Molecular orbitals read from record     2100.2  Type=RKS/LOCAL(IBO)  
 Occupation numbers read from record     2100.2  Type=RKS/LOCAL(IBO)  
 Orbital energies read from record       2100.2  Type=RKS/LOCAL(IBO)  
 Redundancy group numbers read from rec  2100.2  Type=RKS/LOCAL(IBO)  

 IBBA/SVP energy=      0.000000000000

        KS-SCF  
   -194.19863631
 **********************************************************************************************************************************
 Molpro calculation terminated
