
 Primary working directories    : /tmp/sb13343
 Secondary working directories  : /tmp/sb13343
 Wavefunction directory         : /panfs/panasas01/chem/sb13343/wfu/
 Main file repository           : /tmp/sb13343/

 SHA1      : b4a5b34a9e711420743f49e6833241d17c61fb3c
 NAME      : 2099.9.b4a5b34
 ARCHNAME  : linux/x86_64_openmp
 FC        : /cm/shared/languages/GCC-6.1/bin/gfortran
 BLASLIB   : -lblas
 id        : simonbennie

 Nodes     nprocs
 node32-048    1

 Using customized tuning parameters: mindgm=1; mindgv=20; mindgc=4; mindgr=1; noblas=0; minvec=7
 default implementation of scratch files=df  

 memory,500,m
 geomtyp=xyz
 nosym
 noorient
 geometry={
 C          0.00000        0.00000        0.00000
 O          0.00000        0.00000        1.40962
 C          1.30608        0.00000        1.95787
 C          1.19221        0.00000        3.47353
 H          2.18666        0.00000        3.93332
 H         -1.04410        0.00000       -0.32474
 H          0.50079       -0.89267       -0.41051
 H          0.50079        0.89267       -0.41051
 H          1.86435       -0.88728        1.61056
 H          1.86435        0.88728        1.61056
 H          0.64981       -0.88690        3.81673
 H          0.64981        0.88690        3.81673
 }
 basis={ default,sto-3g }
 {uks,PBE0,direct;wf,34,1,0}
 {ibba,bonds=1}

 Variables initialized (895), CPU time= 0.01 sec
 Commands  initialized (725), CPU time= 0.01 sec, 591 directives.
 Default parameters read. Elapsed time= 0.21 sec

 Checking input...
 Passed
1


                                         ***  PROGRAM SYSTEM MOLPRO  ***
                                       Copyright, TTI GmbH Stuttgart, 2015
                                    Version 2099.9 linked May 26 2017 16:03:21


 **********************************************************************************************************************************
 LABEL *                                                                                 
  64 bit serial version                                                                  DATE: 08-Jun-17          TIME: 09:58:08  
 **********************************************************************************************************************************

 SHA1:             b4a5b34a9e711420743f49e6833241d17c61fb3c
 **********************************************************************************************************************************
 SETTING GEOMTYP        =    XYZ

 Variable memory set to  500000000 words,  buffer space 

 ZSYMEL=NOSYM

 SETTING BASIS          =    STO-3G


 Recomputing integrals since basis changed


 Using spherical harmonics

 Library entry C      S STO-3G               selected for orbital group  1
 Library entry C      P STO-3G               selected for orbital group  1
 Library entry O      S STO-3G               selected for orbital group  2
 Library entry O      P STO-3G               selected for orbital group  2
 Library entry H      S STO-3G               selected for orbital group  4


 PROGRAM * SEWARD (Integral evaluation for generally contracted gaussian basis sets)     Author: Roland Lindh, 1990

 Geometry written to block  1 of record 700


 Point group  C1  



 ATOMIC COORDINATES

 NR  ATOM    CHARGE       X              Y              Z

   1  C       6.00    0.000000000    0.000000000    0.000000000
   2  O       8.00    0.000000000    0.000000000    2.663795740
   3  C       6.00    2.468133497    0.000000000    3.699838088
   4  C       6.00    2.252950383    0.000000000    6.564020385
   5  H       1.00    4.132188528    0.000000000    7.432897560
   6  H       1.00   -1.973063047    0.000000000   -0.613669662
   7  H       1.00    0.946355946   -1.686901820   -0.775751471
   8  H       1.00    0.946355946    1.686901820   -0.775751471
   9  H       1.00    3.523110900   -1.676716196    3.043517307
  10  H       1.00    3.523110900    1.676716196    3.043517307
  11  H       1.00    1.227962933   -1.675998100    7.212574391
  12  H       1.00    1.227962933    1.675998100    7.212574391

 Bond lengths in Bohr (Angstrom)

 1-2  2.663795740  1-6  2.066293358  1-7  2.083990804  1-8  2.083990804  2-3  2.676764223
     ( 1.409620000)     ( 1.093435356)     ( 1.102800441)     ( 1.102800441)     ( 1.416482626)

  3- 4  2.872254168   3- 9  2.086890388   3-10  2.086890388   4- 5  2.070382464   4-11  2.068862297
       ( 1.519931450)       ( 1.104334835)       ( 1.104334835)       ( 1.095599218)       ( 1.094794780)

  4-12  2.068862297
       ( 1.094794780)

 Bond angles

  1-2-3  112.77108340   2-1-6  107.27693969   2-1-7  111.85402987   2-1-8  111.85402987

  2- 3- 4  108.47458109   2- 3- 9  110.14508041   2- 3-10  110.14508041   3- 4- 5  110.51724552

  3- 4-11  110.47015208   3- 4-12  110.47015208   4- 3- 9  110.57823876   4- 3-10  110.57823876

  5- 4-11  108.55021133   5- 4-12  108.55021133   6- 1- 7  108.84842497   6- 1- 8  108.84842497

  7- 1- 8  108.08590744   9- 3-10  106.92203462  11- 4-12  108.21261054

 NUCLEAR CHARGE:                   34
 NUMBER OF PRIMITIVE AOS:          84
 NUMBER OF SYMMETRY AOS:           84
 NUMBER OF CONTRACTIONS:           28   (  28A   )
 NUMBER OF CORE ORBITALS:           4   (   4A   )
 NUMBER OF VALENCE ORBITALS:       24   (  24A   )


 NUCLEAR REPULSION ENERGY  133.31979421


 Eigenvalues of metric

         1 0.212E+00 0.234E+00 0.263E+00 0.352E+00 0.360E+00 0.368E+00 0.374E+00 0.394E+00


 Contracted 2-electron integrals neglected if value below      1.0D-11
 AO integral compression algorithm  1   Integral accuracy      1.0D-11

     0.786 MB (compressed) written to integral file ( 77.9%)


 NUMBER OF SORTED TWO-ELECTRON INTEGRALS:      82621.     BUFFER LENGTH:  32768
 NUMBER OF SEGMENTS:   1  SEGMENT LENGTH:      82621      RECORD LENGTH: 524288

 Memory used in sort:       0.64 MW

 SORT1 READ       95283. AND WROTE       67599. INTEGRALS IN      1 RECORDS. CPU TIME:     0.00 SEC, REAL TIME:     0.00 SEC
 SORT2 READ       67599. AND WROTE       82621. INTEGRALS IN      3 RECORDS. CPU TIME:     0.02 SEC, REAL TIME:     0.01 SEC

 FILE SIZES:   FILE 1:    31.0 MBYTE,  FILE 4:     4.2 MBYTE,   TOTAL:     35.2 MBYTE

 OPERATOR DM      FOR CENTER  0  COORDINATES:    0.000000    0.000000    0.000000


 **********************************************************************************************************************************
 DATASETS  * FILE   NREC   LENGTH (MB)   RECORD NAMES
              1      19       30.48       500      610      700      900      950      970     1000      129      960     1100   
                                          VAR    BASINP    GEOM    SYMINP    ZMAT    AOBASIS   BASIS     P2S    ABASIS      S 
                                         1400     1410     1200     1210     1080     1600     1650     1300     1700   
                                           T        V       H0       H01     AOSYM     SMH    MOLCAS    ERIS     OPER   

 PROGRAMS   *        TOTAL       INT
 CPU TIMES  *         0.69      0.53
 REAL TIME  *         1.39 SEC
 DISK USED  *        35.64 MB      
 **********************************************************************************************************************************

 Density functional group PBE0=PBEX+PBEC
 Functional: PBEX(Automatically generated (new) PBEX)                          Gradient terms: 1
 Functional: PBEC(Automatically generated (new) PBEC)                          Gradient terms: 1
 Use grid at  1800.2


 Exact exchange will be calculated, factor:  0.2500

 Functional: PBEX                      Factor:  0.7500
 Functional: PBEC                      Factor:  1.0000

 Generated new metagrid on record  1800.2 with target accuracy 1.0D-06 and 44796 points in CPU time    1.2
 Computed new grid on record 1800.1 in CPU time    1.3
   26632 words reserved for DFT integration

 PROGRAM * UKS-SCF (Unrestricted Kohn-Sham)     Authors: W. Meyer, H.-J. Werner, P.J. Knowles, 1993

 NUMBER OF ELECTRONS:      17+   17-    SPACE SYMMETRY=1    SPIN SYMMETRY: Singlet 
 CONVERGENCE THRESHOLDS:    1.00E-05 (Density)    1.00E-06 (Energy)
 MAX. NUMBER OF ITERATIONS:       60
 INTERPOLATION TYPE:            DIIS
 INTERPOLATION STEPS:              2 (START)      1 (STEP)
 LEVEL SHIFTS:                 -0.20 (ALPHA)  -0.20 (BETA) 



 Use fine grid record 1800.2 for energy threshold  1.0D-06
 Orbital guess generated from atomic densities. Full valence occupancy:   17

 Molecular orbital dump at record        2200.2

 Initial alpha occupation  17
 Initial beta  occupation  17

 ITERATION    DDIFF          GRAD             ENERGY        2-EL.EN.            DIPOLE MOMENTS         DIIS
    1      0.000D+00      0.000D+00      -191.50375126    451.036376    1.01600   -0.00000   -0.61049    0
    2      0.497D-01      0.175D-01      -191.67837181    440.624457    0.27730   -0.00000   -0.11135    1
    3      0.463D-02      0.217D-02      -191.68057733    441.186423    0.36594   -0.00000   -0.17326    2
    4      0.145D-02      0.462D-03      -191.68074277    441.160700    0.36752   -0.00000   -0.17405    3
    5      0.593D-03      0.163D-03      -191.68076602    441.151715    0.37166   -0.00000   -0.17762    4
    6      0.186D-03      0.349D-04      -191.68076772    441.151552    0.37087   -0.00000   -0.17783    5
    7      0.475D-04      0.101D-04      -191.68076783    441.151959    0.37113   -0.00000   -0.17796    5
    8      0.102D-04      0.303D-05      -191.68076783    441.151552    0.37100   -0.00000   -0.17791    6
    9      0.203D-05      0.433D-06      -191.68076783    441.151683    0.37101   -0.00000   -0.17791    6
   10      0.365D-06      0.105D-06      -191.68076783    441.151630    0.37101   -0.00000   -0.17791    6

 Final alpha occupancy:  17
 Final beta  occupancy:  17

 !UKS STATE 1.1 Energy               -191.680767833511
 Nuclear energy                       133.31979421
 One-electron energy                 -524.54460759
 Two-electron energy                  220.57581476
 Density functional                   -21.03176922     PBEX=-26.52502777 PBEC= -1.13799839
 Virial quotient                       -1.01496387
 !UKS STATE 1.1 Dipole moment           0.37100853    -0.00000000    -0.17791037
 Dipole moment /Debye                   0.94294787    -0.00000000    -0.45217344

 Orbital energies for positive spin:

         1.1          2.1          3.1          4.1          5.1          6.1          7.1          8.1          9.1         10.1
    -18.944230   -10.094642   -10.087298   -10.046488    -0.995571    -0.741334    -0.651067    -0.582531    -0.449660    -0.444575

        11.1         12.1         13.1         14.1         15.1         16.1         17.1         18.1         19.1
     -0.416346    -0.394670    -0.356911    -0.328038    -0.327584    -0.219140    -0.144440     0.319024     0.415515

 Orbital energies for negative spin:

         1.1          2.1          3.1          4.1          5.1          6.1          7.1          8.1          9.1         10.1
    -18.944230   -10.094642   -10.087298   -10.046488    -0.995571    -0.741334    -0.651067    -0.582531    -0.449660    -0.444575

        11.1         12.1         13.1         14.1         15.1         16.1         17.1         18.1         19.1
     -0.416346    -0.394670    -0.356911    -0.328038    -0.327584    -0.219140    -0.144440     0.319024     0.415515

 HOMO     17.1    -0.144440 =      -3.9304eV
 LUMO     18.1     0.319024 =       8.6811eV
 LUMO-HOMO         0.463464 =      12.6115eV

 EXPECTATION VALUE OF S**2:            -0.00000000

 Natural orbitals saved to record    2200.2 (Orbital set 3)

 Orbital spaces for UNO-CAS (Min. occupation: 0.020  Max. occupation: 1.980):

 Closed:       17
 Active:        0


 **********************************************************************************************************************************
 DATASETS  * FILE   NREC   LENGTH (MB)   RECORD NAMES
              1      20       31.92       500      610      700      900      950      970     1000      129      960     1100   
                                          VAR    BASINP    GEOM    SYMINP    ZMAT    AOBASIS   BASIS     P2S    ABASIS      S 
                                         1400     1410     1200     1210     1080     1600     1650     1300     1700     1800   
                                           T        V       H0       H01     AOSYM     SMH    MOLCAS    ERIS     OPER     GRID   

              2       5        2.98       700     1000      520     1800     2200   
                                         GEOM     BASIS   MCVARS    GRID      UKS  

 PROGRAMS   *        TOTAL       UKS       INT
 CPU TIMES  *         4.71      4.02      0.53
 REAL TIME  *         5.82 SEC
 DISK USED  *        35.64 MB      
 **********************************************************************************************************************************


 PROGRAM * Intrinsic Basis Bonding Analysis (IBBA)          Author: G. Knizia

 Molecular orbitals read from record     2200.2  Type=UKS/ALPHA (state 1.1)
 Fock matrix read from record            2200.2  Type=UKS/TOTAL (state 1.1)
 Orbital energies read from record       2200.2  Type=UKS/ALPHA (state 1.1)
 Density matrix read from record         2200.2  Type=UKS/CHARGE (state 1.1)

 Number of core orbitals:           4 (   4 )
 Number of closed-shell orbitals:  13 (  13 )

 Basis set MINAO-AUTO-PP generated.      Number of basis functions:   28 

 Polarized AO type:                A = (O Ot + (1-O)(1-Ot)) P12
 Orthogonalization method:         Symmetric (Loewdin)
 Localization functional:          L = sum[A,i] <i|n_A|i>^4 -> max

 Localization group 1:  17 orbitals, occupancy  2.000
 Iterative localization: IB/PM,    7 iter; Final gradient 0.50E-09

 Bond order analysis:       [THRPRINT= 0.020]

   CEN ATOM   CEN ATOM     WIBERG.BO      RENORM.BO
     1   C  -   2   O       1.017281       1.016954
     1   C  -   6   H       0.956156       0.975512
     1   C  -   7   H       0.953864       0.948046
     1   C  -   8   H       0.953864       0.948046

     2   O  -   1   C       1.017281       1.016954
     2   O  -   3   C       1.001007       0.996707
     2   O  -   8   H       0.028871       0.017219
     2   O  -   7   H       0.028871       0.017219
     2   O  -  10   H       0.026656       0.015925
     2   O  -   9   H       0.026656       0.015925

     3   C  -   4   C       1.016660       1.009057
     3   C  -   2   O       1.001007       0.996707
     3   C  -   9   H       0.943615       0.937692
     3   C  -  10   H       0.943615       0.937692

     4   C  -   3   C       1.016660       1.009057
     4   C  -   5   H       0.964072       0.991782
     4   C  -  12   H       0.962010       0.986968
     4   C  -  11   H       0.962010       0.986968

     5   H  -   4   C       0.964072       0.991782

     6   H  -   1   C       0.956156       0.975512

     7   H  -   1   C       0.953864       0.948046
     7   H  -   2   O       0.028871       0.017219

     8   H  -   1   C       0.953864       0.948046
     8   H  -   2   O       0.028871       0.017219

     9   H  -   3   C       0.943615       0.937692
     9   H  -   2   O       0.026656       0.015925

    10   H  -   3   C       0.943615       0.937692
    10   H  -   2   O       0.026656       0.015925

    11   H  -   4   C       0.962010       0.986968

    12   H  -   4   C       0.962010       0.986968


 Valency analysis:

   CEN ATOM   TOT.VALENCE
     1   C       3.900719
     2   O       2.155781
     3   C       3.927363
     4   C       3.928984
     5   H       0.980710
     6   H       0.979628
     7   H       0.986561
     8   H       0.986561
     9   H       0.987084
    10   H       0.987084
    11   H       0.980210
    12   H       0.980210

 Total charge composition:

   CEN ATOM         s          p       ELECTRONS ->P.CHARGE
     1   C       3.00954    3.25805      6.26760   -0.26760
     2   O       3.64872    4.57288      8.22159   -0.22159
     3   C       2.98592    3.14440      6.13032   -0.13032
     4   C       2.99737    3.40524      6.40261   -0.40261
     5   H       0.86111                 0.86111    0.13889
     6   H       0.85727                 0.85727    0.14273
     7   H       0.88408                 0.88408    0.11592
     8   H       0.88408                 0.88408    0.11592
     9   H       0.88635                 0.88635    0.11365
    10   H       0.88635                 0.88635    0.11365
    11   H       0.85932                 0.85932    0.14068
    12   H       0.85932                 0.85932    0.14068

 Total charge composition, AO contributions:

   CEN ATOM SHL      SPHERICAL COMPONENTS
     1   C  1s       1.99235
     1   C  2s       1.01719
     1   C  2p       1.18972    1.17744    0.89090

     2   O  1s       1.99727
     2   O  2s       1.65145
     2   O  2p       1.40119    1.91719    1.25450

     3   C  1s       1.99257
     3   C  2s       0.99335
     3   C  2p       0.92742    1.17381    1.04316

     4   C  1s       1.99166
     4   C  2s       1.00571
     4   C  2p       1.17315    1.17913    1.05296

     5   H  1s       0.86111

     6   H  1s       0.85727

     7   H  1s       0.88408

     8   H  1s       0.88408

     9   H  1s       0.88635

    10   H  1s       0.88635

    11   H  1s       0.85932

    12   H  1s       0.85932

 Summary of localized orbital composition:   [THRPRINT= 0.020]

   ORB  GRP  ORB.ENERGY      CENTERS/CHARGES
     1   1   -18.779539      O  2   2.000
     2   1    -9.990310      C  3   2.000
     3   1    -9.978939      C  1   2.000
     4   1    -9.932291      C  4   2.000
     5   1    -0.681639      O  2   1.161   C  1   0.829
     6   1    -0.671598      O  2   1.165   C  3   0.822
     7   1    -0.558293      C  3   1.007   C  4   0.982
     8   1    -0.522489      O  2   1.973   (other: 0.027)
     9   1    -0.500824      C  1   1.144   H  6   0.848
    10   1    -0.498747      C  1   1.132   H  7   0.867
    11   1    -0.498747      C  1   1.132   H  8   0.867
    12   1    -0.495397      C  3   1.127   H  9   0.866
    13   1    -0.495397      C  3   1.127   H 10   0.866
    14   1    -0.483135      C  4   1.134   H  5   0.855
    15   1    -0.476797      C  4   1.137   H 12   0.854
    16   1    -0.476797      C  4   1.137   H 11   0.854
    17   1    -0.183596      O  2   1.917   (other: 0.083)

 Localized orbitals saved to record      2200.2  (orbital set 4)


 **********************************************************************************************************************************
 DATASETS  * FILE   NREC   LENGTH (MB)   RECORD NAMES
              1      20       31.92       500      610      700      900      950      970     1000      129      960     1100   
                                          VAR    BASINP    GEOM    SYMINP    ZMAT    AOBASIS   BASIS     P2S    ABASIS      S 
                                         1400     1410     1200     1210     1080     1600     1650     1300     1700     1800   
                                           T        V       H0       H01     AOSYM     SMH    MOLCAS    ERIS     OPER     GRID   

              2       5        2.99       700     1000      520     1800     2200   
                                         GEOM     BASIS   MCVARS    GRID      UKS  

 PROGRAMS   *        TOTAL      IBBA       UKS       INT
 CPU TIMES  *         4.74      0.03      4.02      0.53
 REAL TIME  *         5.93 SEC
 DISK USED  *        35.64 MB      
 **********************************************************************************************************************************
 Molecular orbitals read from record     2200.2  Type=UKS/LOCAL(IBO)  
 Occupation numbers read from record     2200.2  Type=UKS/LOCAL(IBO)  
 Orbital energies read from record       2200.2  Type=UKS/LOCAL(IBO)  
 Redundancy group numbers read from rec  2200.2  Type=UKS/BETA (state 1.1)

 IBBA/STO-3G energy=      0.000000000000

        UKS-SCF 
   -191.68076783
 **********************************************************************************************************************************
 Molpro calculation terminated
