
 Primary working directories    : /tmp/sb13343
 Secondary working directories  : /tmp/sb13343
 Wavefunction directory         : /panfs/panasas01/chem/sb13343/wfu/
 Main file repository           : /tmp/sb13343/

 SHA1      : b4a5b34a9e711420743f49e6833241d17c61fb3c
 NAME      : 2099.9.b4a5b34
 ARCHNAME  : linux/x86_64_openmp
 FC        : /cm/shared/languages/GCC-6.1/bin/gfortran
 BLASLIB   : -lblas
 id        : simonbennie

 Nodes     nprocs
 node32-030    1

 Using customized tuning parameters: mindgm=1; mindgv=20; mindgc=4; mindgr=1; noblas=0; minvec=7
 default implementation of scratch files=df  

 memory,500,m
 geomtyp=xyz
 nosym
 noorient
 geometry={
 C          0.00000        0.00000        0.00000
 O          0.00000        0.00000        1.40962
 C          1.30608        0.00000        1.95787
 C          1.19221        0.00000        3.47353
 H          2.18666        0.00000        3.93332
 H         -1.04410        0.00000       -0.32474
 H          0.50079       -0.89267       -0.41051
 H          0.50079        0.89267       -0.41051
 H          1.86435       -0.88728        1.61056
 H          1.86435        0.88728        1.61056
 H          0.64981       -0.88690        3.81673
 H          0.64981        0.88690        3.81673
 }
 basis={ default,svp }
 {ks,MM06-HF,direct;wf,34,1,0}
 {ibba,bonds=1}

 Variables initialized (895), CPU time= 0.00 sec
 Commands  initialized (725), CPU time= 0.02 sec, 591 directives.
 Default parameters read. Elapsed time= 0.09 sec

 Checking input...
 Passed
1


                                         ***  PROGRAM SYSTEM MOLPRO  ***
                                       Copyright, TTI GmbH Stuttgart, 2015
                                    Version 2099.9 linked May 26 2017 16:03:21


 **********************************************************************************************************************************
 LABEL *                                                                                 
  64 bit serial version                                                                  DATE: 08-Jun-17          TIME: 10:16:15  
 **********************************************************************************************************************************

 SHA1:             b4a5b34a9e711420743f49e6833241d17c61fb3c
 **********************************************************************************************************************************
 SETTING GEOMTYP        =    XYZ

 Variable memory set to  500000000 words,  buffer space 

 ZSYMEL=NOSYM

 SETTING BASIS          =    SVP


 Recomputing integrals since basis changed


 Using spherical harmonics

 Library entry C      S def2-SVP             selected for orbital group  1
 Library entry C      P def2-SVP             selected for orbital group  1
 Library entry C      D def2-SVP             selected for orbital group  1
 Library entry O      S def2-SVP             selected for orbital group  2
 Library entry O      P def2-SVP             selected for orbital group  2
 Library entry O      D def2-SVP             selected for orbital group  2
 Library entry H      S def2-SVP             selected for orbital group  4
 Library entry H      P def2-SVP             selected for orbital group  4


 PROGRAM * SEWARD (Integral evaluation for generally contracted gaussian basis sets)     Author: Roland Lindh, 1990

 Geometry written to block  1 of record 700


 Point group  C1  



 ATOMIC COORDINATES

 NR  ATOM    CHARGE       X              Y              Z

   1  C       6.00    0.000000000    0.000000000    0.000000000
   2  O       8.00    0.000000000    0.000000000    2.663795740
   3  C       6.00    2.468133497    0.000000000    3.699838088
   4  C       6.00    2.252950383    0.000000000    6.564020385
   5  H       1.00    4.132188528    0.000000000    7.432897560
   6  H       1.00   -1.973063047    0.000000000   -0.613669662
   7  H       1.00    0.946355946   -1.686901820   -0.775751471
   8  H       1.00    0.946355946    1.686901820   -0.775751471
   9  H       1.00    3.523110900   -1.676716196    3.043517307
  10  H       1.00    3.523110900    1.676716196    3.043517307
  11  H       1.00    1.227962933   -1.675998100    7.212574391
  12  H       1.00    1.227962933    1.675998100    7.212574391

 Bond lengths in Bohr (Angstrom)

 1-2  2.663795740  1-6  2.066293358  1-7  2.083990804  1-8  2.083990804  2-3  2.676764223
     ( 1.409620000)     ( 1.093435356)     ( 1.102800441)     ( 1.102800441)     ( 1.416482626)

  3- 4  2.872254168   3- 9  2.086890388   3-10  2.086890388   4- 5  2.070382464   4-11  2.068862297
       ( 1.519931450)       ( 1.104334835)       ( 1.104334835)       ( 1.095599218)       ( 1.094794780)

  4-12  2.068862297
       ( 1.094794780)

 Bond angles

  1-2-3  112.77108340   2-1-6  107.27693969   2-1-7  111.85402987   2-1-8  111.85402987

  2- 3- 4  108.47458109   2- 3- 9  110.14508041   2- 3-10  110.14508041   3- 4- 5  110.51724552

  3- 4-11  110.47015208   3- 4-12  110.47015208   4- 3- 9  110.57823876   4- 3-10  110.57823876

  5- 4-11  108.55021133   5- 4-12  108.55021133   6- 1- 7  108.84842497   6- 1- 8  108.84842497

  7- 1- 8  108.08590744   9- 3-10  106.92203462  11- 4-12  108.21261054

 NUCLEAR CHARGE:                   34
 NUMBER OF PRIMITIVE AOS:         156
 NUMBER OF SYMMETRY AOS:          152
 NUMBER OF CONTRACTIONS:           96   (  96A   )
 NUMBER OF CORE ORBITALS:           4   (   4A   )
 NUMBER OF VALENCE ORBITALS:       24   (  24A   )


 NUCLEAR REPULSION ENERGY  133.31979421


 Eigenvalues of metric

         1 0.364E-02 0.952E-02 0.147E-01 0.282E-01 0.312E-01 0.319E-01 0.432E-01 0.449E-01


 Contracted 2-electron integrals neglected if value below      1.0D-11
 AO integral compression algorithm  1   Integral accuracy      1.0D-11

     37.487 MB (compressed) written to integral file ( 40.8%)


 NUMBER OF SORTED TWO-ELECTRON INTEGRALS:   10841496.     BUFFER LENGTH:  32768
 NUMBER OF SEGMENTS:   1  SEGMENT LENGTH:   10841496      RECORD LENGTH: 524288

 Memory used in sort:      11.40 MW

 SORT1 READ    11483613. AND WROTE     8333550. INTEGRALS IN     24 RECORDS. CPU TIME:     0.13 SEC, REAL TIME:     0.26 SEC
 SORT2 READ     8333550. AND WROTE    10841496. INTEGRALS IN    143 RECORDS. CPU TIME:     0.29 SEC, REAL TIME:     0.35 SEC

 FILE SIZES:   FILE 1:    68.0 MBYTE,  FILE 4:   100.7 MBYTE,   TOTAL:    168.7 MBYTE

 OPERATOR DM      FOR CENTER  0  COORDINATES:    0.000000    0.000000    0.000000


 **********************************************************************************************************************************
 DATASETS  * FILE   NREC   LENGTH (MB)   RECORD NAMES
              1      19       62.89       500      610      700      900      950      970     1000      129      960     1100   
                                          VAR    BASINP    GEOM    SYMINP    ZMAT    AOBASIS   BASIS     P2S    ABASIS      S 
                                         1400     1410     1200     1210     1080     1600     1650     1300     1700   
                                           T        V       H0       H01     AOSYM     SMH    MOLCAS    ERIS     OPER   

 PROGRAMS   *        TOTAL       INT
 CPU TIMES  *         2.03      1.88
 REAL TIME  *         2.67 SEC
 DISK USED  *       169.15 MB      
 **********************************************************************************************************************************

 Density functional group MM06-HF=M06HFX+M06HFC
 Functional: M06HFX(Automatically generated (new) M06HFX)                      Gradient terms: 2
 Functional: M06HFC(Automatically generated (new) M06HFC)                      Gradient terms: 2
 Use grid at  1800.2


 Exact exchange will be calculated, factor:  1.0000

 Functional: M06HFX                    Factor:  1.0000
 Functional: M06HFC                    Factor:  1.0000

 Generated new metagrid on record  1800.2 with target accuracy 1.0D-06 and 44796 points in CPU time    1.1
 Computed new grid on record 1800.1 in CPU time    1.3
  153520 words reserved for DFT integration

 PROGRAM * RKS-SCF (Restricted closed shell Kohn-Sham)     Authors: W. Meyer, H.-J. Werner, P.J. Knowles, 1993

 NUMBER OF ELECTRONS:      17+   17-    SPACE SYMMETRY=1    SPIN SYMMETRY: Singlet 
 CONVERGENCE THRESHOLDS:    1.00E-05 (Density)    1.00E-06 (Energy)
 MAX. NUMBER OF ITERATIONS:       60
 INTERPOLATION TYPE:            DIIS
 INTERPOLATION STEPS:              2 (START)      1 (STEP)
 LEVEL SHIFTS:                  0.00 (CLOSED)  0.00 (OPEN) 



 Use fine grid record 1800.2 for energy threshold  1.0D-06
 Orbital guess generated from atomic densities. Full valence occupancy:   17

 Molecular orbital dump at record        2100.2

 Initial occupancy:  17

 ITERATION    DDIFF          GRAD             ENERGY        2-EL.EN.            DIPOLE MOMENTS         DIIS   ORB.
    1      0.000D+00      0.000D+00      -194.06450564    401.936182    0.74509    0.00000   -0.44807    0    start
    2      0.000D+00      0.576D-02      -194.10528224    398.195881    0.33884    0.00000   -0.21071    1    diag
    3      0.651D-02      0.322D-02      -194.11600525    400.151995    0.51093    0.00000   -0.33182    2    diag
    4      0.267D-02      0.101D-02      -194.11725439    399.791731    0.47592    0.00000   -0.31600    3    diag
    5      0.907D-03      0.280D-03      -194.11736533    399.796395    0.47999    0.00000   -0.31525    4    diag
    6      0.295D-03      0.673D-04      -194.11737192    399.796443    0.47788    0.00000   -0.31582    5    diag
    7      0.687D-04      0.103D-04      -194.11737218    399.797814    0.47810    0.00000   -0.31575    6    diag
    8      0.192D-04      0.259D-05      -194.11737220    399.796989    0.47794    0.00000   -0.31576    7    diag
    9      0.418D-05      0.882D-06      -194.11737220    399.797356    0.47793    0.00000   -0.31573    0    orth

 Final occupancy:  17

 !RKS STATE 1.1 Energy               -194.117372198943
 Nuclear energy                       133.31979421
 One-electron energy                 -526.16710776
 Two-electron energy                  199.89867778
 SCF exchange energy                  -26.57846851     Factor= 1.0000
 Density functional                    -1.16873643     M06HFX= 0.07301328 M06HFC=-1.24174970
 Virial quotient                       -1.01138271
 !RKS STATE 1.1 Dipole moment           0.47793037     0.00000000    -0.31573163
 Dipole moment /Debye                   1.21469827     0.00000000    -0.80245720

 Orbital energies:

         1.1          2.1          3.1          4.1          5.1          6.1          7.1          8.1          9.1         10.1
    -20.200594   -11.021667   -11.021438   -10.967009    -1.248679    -0.960077    -0.860875    -0.787197    -0.658086    -0.647010

        11.1         12.1         13.1         14.1         15.1         16.1         17.1         18.1         19.1
     -0.616412    -0.577977    -0.531170    -0.501560    -0.501206    -0.467835    -0.415177     0.126508     0.150020

 HOMO     17.1    -0.415177 =     -11.2975eV
 LUMO     18.1     0.126508 =       3.4425eV
 LUMO-HOMO         0.541685 =      14.7400eV


 **********************************************************************************************************************************
 DATASETS  * FILE   NREC   LENGTH (MB)   RECORD NAMES
              1      20       64.33       500      610      700      900      950      970     1000      129      960     1100   
                                          VAR    BASINP    GEOM    SYMINP    ZMAT    AOBASIS   BASIS     P2S    ABASIS      S 
                                         1400     1410     1200     1210     1080     1600     1650     1300     1700     1800   
                                           T        V       H0       H01     AOSYM     SMH    MOLCAS    ERIS     OPER     GRID   

              2       5        3.14       700     1000      520     1800     2100   
                                         GEOM     BASIS   MCVARS    GRID      RKS  

 PROGRAMS   *        TOTAL        KS       INT
 CPU TIMES  *        26.37     24.35      1.88
 REAL TIME  *        27.28 SEC
 DISK USED  *       169.15 MB      
 **********************************************************************************************************************************


 PROGRAM * Intrinsic Basis Bonding Analysis (IBBA)          Author: G. Knizia

 Molecular orbitals read from record     2100.2  Type=RKS/CANONICAL (state 1.1)
 Fock matrix read from record            2100.2  Type=RKS/TOTAL (state 1.1)
 Orbital energies read from record       2100.2  Type=RKS/CANONICAL (state 1.1)
 Density matrix read from record         2100.2  Type=RKS/CHARGE (state 1.1)

 Number of core orbitals:           4 (   4 )
 Number of closed-shell orbitals:  13 (  13 )

 Basis set MINAO-AUTO-PP generated.      Number of basis functions:   28 

 Polarized AO type:                A = (O Ot + (1-O)(1-Ot)) P12
 Orthogonalization method:         Symmetric (Loewdin)
 Localization functional:          L = sum[A,i] <i|n_A|i>^4 -> max

 Localization group 1:  17 orbitals, occupancy  2.000
 Iterative localization: IB/PM,    7 iter; Final gradient 0.24E-09

 Bond order analysis:       [THRPRINT= 0.020]

   CEN ATOM   CEN ATOM     WIBERG.BO      RENORM.BO
     1   C  -   2   O       0.978158       1.014797
     1   C  -   6   H       0.962005       0.981645
     1   C  -   7   H       0.957857       0.952122
     1   C  -   8   H       0.957857       0.952122

     2   O  -   1   C       0.978158       1.014797
     2   O  -   3   C       0.962776       0.991313
     2   O  -   8   H       0.026165       0.015343
     2   O  -   7   H       0.026165       0.015343
     2   O  -  10   H       0.023764       0.013978
     2   O  -   9   H       0.023764       0.013978

     3   C  -   4   C       1.019875       1.014731
     3   C  -   2   O       0.962776       0.991313
     3   C  -   9   H       0.947416       0.942750
     3   C  -  10   H       0.947416       0.942750

     4   C  -   3   C       1.019875       1.014731
     4   C  -   5   H       0.965303       0.990645
     4   C  -  11   H       0.962314       0.985822
     4   C  -  12   H       0.962314       0.985822

     5   H  -   4   C       0.965303       0.990645

     6   H  -   1   C       0.962005       0.981645

     7   H  -   1   C       0.957857       0.952122
     7   H  -   2   O       0.026165       0.015343

     8   H  -   1   C       0.957857       0.952122
     8   H  -   2   O       0.026165       0.015343

     9   H  -   3   C       0.947416       0.942750
     9   H  -   2   O       0.023764       0.013978

    10   H  -   3   C       0.947416       0.942750
    10   H  -   2   O       0.023764       0.013978

    11   H  -   4   C       0.962314       0.985822

    12   H  -   4   C       0.962314       0.985822


 Valency analysis:

   CEN ATOM   TOT.VALENCE
     1   C       3.871774
     2   O       2.069689
     3   C       3.896995
     4   C       3.933827
     5   H       0.983680
     6   H       0.979759
     7   H       0.988267
     8   H       0.988267
     9   H       0.988561
    10   H       0.988561
    11   H       0.981509
    12   H       0.981509

 Total charge composition:

   CEN ATOM         s          p       ELECTRONS ->P.CHARGE
     1   C       2.99190    3.16889      6.16080   -0.16080
     2   O       3.55270    4.85015      8.40285   -0.40285
     3   C       2.96252    3.06701      6.02953   -0.02953
     4   C       2.99045    3.38890      6.37935   -0.37935
     5   H       0.87225                 0.87225    0.12775
     6   H       0.85773                 0.85773    0.14227
     7   H       0.89168                 0.89168    0.10832
     8   H       0.89168                 0.89168    0.10832
     9   H       0.89305                 0.89305    0.10695
    10   H       0.89305                 0.89305    0.10695
    11   H       0.86402                 0.86402    0.13598
    12   H       0.86402                 0.86402    0.13598

 Total charge composition, AO contributions:

   CEN ATOM SHL      SPHERICAL COMPONENTS
     1   C  1s       1.99107
     1   C  2s       1.00083
     1   C  2p       1.18658    1.16492    0.81740

     2   O  1s       1.99690
     2   O  2s       1.55580
     2   O  2p       1.54217    1.93072    1.37726

     3   C  1s       1.99134
     3   C  2s       0.97118
     3   C  2p       0.86726    1.16570    1.03404

     4   C  1s       1.99031
     4   C  2s       1.00014
     4   C  2p       1.16567    1.17756    1.04567

     5   H  1s       0.87225

     6   H  1s       0.85773

     7   H  1s       0.89168

     8   H  1s       0.89168

     9   H  1s       0.89305

    10   H  1s       0.89305

    11   H  1s       0.86402

    12   H  1s       0.86402

 Summary of localized orbital composition:   [THRPRINT= 0.020]

   ORB  GRP  ORB.ENERGY      CENTERS/CHARGES
     1   1   -20.053440      O  2   2.000
     2   1   -10.912261      C  3   2.000
     3   1   -10.906882      C  1   2.000
     4   1   -10.846229      C  4   2.000
     5   1    -0.958843      O  2   1.248   C  1   0.745
     6   1    -0.949001      O  2   1.254   C  3   0.736
     7   1    -0.742810      C  3   1.011   C  4   0.981
     8   1    -0.715473      O  2   1.968   (other: 0.032)
     9   1    -0.689335      C  1   1.122   H  7   0.876
    10   1    -0.689335      C  1   1.122   H  8   0.876
    11   1    -0.687317      C  1   1.144   H  6   0.851
    12   1    -0.684705      C  3   1.118   H  9   0.874
    13   1    -0.684705      C  3   1.118   H 10   0.874
    14   1    -0.663223      C  4   1.121   H  5   0.866
    15   1    -0.657025      C  4   1.133   H 12   0.858
    16   1    -0.657025      C  4   1.133   H 11   0.858
    17   1    -0.486362      O  2   1.931   (other: 0.069)

 Localized orbitals saved to record      2100.2  (orbital set 2)


 **********************************************************************************************************************************
 DATASETS  * FILE   NREC   LENGTH (MB)   RECORD NAMES
              1      20       64.33       500      610      700      900      950      970     1000      129      960     1100   
                                          VAR    BASINP    GEOM    SYMINP    ZMAT    AOBASIS   BASIS     P2S    ABASIS      S 
                                         1400     1410     1200     1210     1080     1600     1650     1300     1700     1800   
                                           T        V       H0       H01     AOSYM     SMH    MOLCAS    ERIS     OPER     GRID   

              2       5        3.21       700     1000      520     1800     2100   
                                         GEOM     BASIS   MCVARS    GRID      RKS  

 PROGRAMS   *        TOTAL      IBBA        KS       INT
 CPU TIMES  *        26.41      0.03     24.35      1.88
 REAL TIME  *        27.40 SEC
 DISK USED  *       169.15 MB      
 **********************************************************************************************************************************
 Molecular orbitals read from record     2100.2  Type=RKS/LOCAL(IBO)  
 Occupation numbers read from record     2100.2  Type=RKS/LOCAL(IBO)  
 Orbital energies read from record       2100.2  Type=RKS/LOCAL(IBO)  
 Redundancy group numbers read from rec  2100.2  Type=RKS/LOCAL(IBO)  

 IBBA/SVP energy=      0.000000000000

        KS-SCF  
   -194.11737220
 **********************************************************************************************************************************
 Molpro calculation terminated
