
 Primary working directories    : /tmp/sb13343
 Secondary working directories  : /tmp/sb13343
 Wavefunction directory         : /panfs/panasas01/chem/sb13343/wfu/
 Main file repository           : /tmp/sb13343/

 SHA1      : b4a5b34a9e711420743f49e6833241d17c61fb3c
 NAME      : 2099.9.b4a5b34
 ARCHNAME  : linux/x86_64_openmp
 FC        : /cm/shared/languages/GCC-6.1/bin/gfortran
 BLASLIB   : -lblas
 id        : simonbennie

 Nodes     nprocs
 node32-017    1

 Using customized tuning parameters: mindgm=1; mindgv=20; mindgc=4; mindgr=1; noblas=0; minvec=7
 default implementation of scratch files=df  

 memory,500,m
 geomtyp=xyz
 nosym
 noorient
 geometry={
 C          0.00000        0.00000        0.00000
 O          0.00000        0.00000        1.40962
 C          1.30608        0.00000        1.95787
 C          1.19221        0.00000        3.47353
 H          2.18666        0.00000        3.93332
 H         -1.04410        0.00000       -0.32474
 H          0.50079       -0.89267       -0.41051
 H          0.50079        0.89267       -0.41051
 H          1.86435       -0.88728        1.61056
 H          1.86435        0.88728        1.61056
 H          0.64981       -0.88690        3.81673
 H          0.64981        0.88690        3.81673
 }
 basis={ default,sto-3g }
 {uks,M06,direct;wf,34,1,0}
 {ibba,bonds=1}

 Variables initialized (895), CPU time= 0.00 sec
 Commands  initialized (725), CPU time= 0.01 sec, 591 directives.
 Default parameters read. Elapsed time= 0.08 sec

 Checking input...
 Passed
1


                                         ***  PROGRAM SYSTEM MOLPRO  ***
                                       Copyright, TTI GmbH Stuttgart, 2015
                                    Version 2099.9 linked May 26 2017 16:03:21


 **********************************************************************************************************************************
 LABEL *                                                                                 
  64 bit serial version                                                                  DATE: 08-Jun-17          TIME: 10:02:23  
 **********************************************************************************************************************************

 SHA1:             b4a5b34a9e711420743f49e6833241d17c61fb3c
 **********************************************************************************************************************************
 SETTING GEOMTYP        =    XYZ

 Variable memory set to  500000000 words,  buffer space 

 ZSYMEL=NOSYM

 SETTING BASIS          =    STO-3G


 Recomputing integrals since basis changed


 Using spherical harmonics

 Library entry C      S STO-3G               selected for orbital group  1
 Library entry C      P STO-3G               selected for orbital group  1
 Library entry O      S STO-3G               selected for orbital group  2
 Library entry O      P STO-3G               selected for orbital group  2
 Library entry H      S STO-3G               selected for orbital group  4


 PROGRAM * SEWARD (Integral evaluation for generally contracted gaussian basis sets)     Author: Roland Lindh, 1990

 Geometry written to block  1 of record 700


 Point group  C1  



 ATOMIC COORDINATES

 NR  ATOM    CHARGE       X              Y              Z

   1  C       6.00    0.000000000    0.000000000    0.000000000
   2  O       8.00    0.000000000    0.000000000    2.663795740
   3  C       6.00    2.468133497    0.000000000    3.699838088
   4  C       6.00    2.252950383    0.000000000    6.564020385
   5  H       1.00    4.132188528    0.000000000    7.432897560
   6  H       1.00   -1.973063047    0.000000000   -0.613669662
   7  H       1.00    0.946355946   -1.686901820   -0.775751471
   8  H       1.00    0.946355946    1.686901820   -0.775751471
   9  H       1.00    3.523110900   -1.676716196    3.043517307
  10  H       1.00    3.523110900    1.676716196    3.043517307
  11  H       1.00    1.227962933   -1.675998100    7.212574391
  12  H       1.00    1.227962933    1.675998100    7.212574391

 Bond lengths in Bohr (Angstrom)

 1-2  2.663795740  1-6  2.066293358  1-7  2.083990804  1-8  2.083990804  2-3  2.676764223
     ( 1.409620000)     ( 1.093435356)     ( 1.102800441)     ( 1.102800441)     ( 1.416482626)

  3- 4  2.872254168   3- 9  2.086890388   3-10  2.086890388   4- 5  2.070382464   4-11  2.068862297
       ( 1.519931450)       ( 1.104334835)       ( 1.104334835)       ( 1.095599218)       ( 1.094794780)

  4-12  2.068862297
       ( 1.094794780)

 Bond angles

  1-2-3  112.77108340   2-1-6  107.27693969   2-1-7  111.85402987   2-1-8  111.85402987

  2- 3- 4  108.47458109   2- 3- 9  110.14508041   2- 3-10  110.14508041   3- 4- 5  110.51724552

  3- 4-11  110.47015208   3- 4-12  110.47015208   4- 3- 9  110.57823876   4- 3-10  110.57823876

  5- 4-11  108.55021133   5- 4-12  108.55021133   6- 1- 7  108.84842497   6- 1- 8  108.84842497

  7- 1- 8  108.08590744   9- 3-10  106.92203462  11- 4-12  108.21261054

 NUCLEAR CHARGE:                   34
 NUMBER OF PRIMITIVE AOS:          84
 NUMBER OF SYMMETRY AOS:           84
 NUMBER OF CONTRACTIONS:           28   (  28A   )
 NUMBER OF CORE ORBITALS:           4   (   4A   )
 NUMBER OF VALENCE ORBITALS:       24   (  24A   )


 NUCLEAR REPULSION ENERGY  133.31979421


 Eigenvalues of metric

         1 0.212E+00 0.234E+00 0.263E+00 0.352E+00 0.360E+00 0.368E+00 0.374E+00 0.394E+00


 Contracted 2-electron integrals neglected if value below      1.0D-11
 AO integral compression algorithm  1   Integral accuracy      1.0D-11

     0.786 MB (compressed) written to integral file ( 77.9%)


 NUMBER OF SORTED TWO-ELECTRON INTEGRALS:      82621.     BUFFER LENGTH:  32768
 NUMBER OF SEGMENTS:   1  SEGMENT LENGTH:      82621      RECORD LENGTH: 524288

 Memory used in sort:       0.64 MW

 SORT1 READ       95283. AND WROTE       67599. INTEGRALS IN      1 RECORDS. CPU TIME:     0.01 SEC, REAL TIME:     0.00 SEC
 SORT2 READ       67599. AND WROTE       82621. INTEGRALS IN      3 RECORDS. CPU TIME:     0.01 SEC, REAL TIME:     0.02 SEC

 FILE SIZES:   FILE 1:    31.0 MBYTE,  FILE 4:     4.2 MBYTE,   TOTAL:     35.2 MBYTE

 OPERATOR DM      FOR CENTER  0  COORDINATES:    0.000000    0.000000    0.000000


 **********************************************************************************************************************************
 DATASETS  * FILE   NREC   LENGTH (MB)   RECORD NAMES
              1      19       30.48       500      610      700      900      950      970     1000      129      960     1100   
                                          VAR    BASINP    GEOM    SYMINP    ZMAT    AOBASIS   BASIS     P2S    ABASIS      S 
                                         1400     1410     1200     1210     1080     1600     1650     1300     1700   
                                           T        V       H0       H01     AOSYM     SMH    MOLCAS    ERIS     OPER   

 PROGRAMS   *        TOTAL       INT
 CPU TIMES  *         0.53      0.39
 REAL TIME  *         0.86 SEC
 DISK USED  *        35.64 MB      
 **********************************************************************************************************************************

 Density functional group M06=XC-M06
 Functional: XC-M06(via MFM 1.6)                                               Gradient terms: 1
 Use grid at  1800.2


 Exact exchange will be calculated, factor:  0.2700

 Functional: XC-M06                    Factor:  1.0000

 Generated new metagrid on record  1800.2 with target accuracy 1.0D-06 and 44796 points in CPU time    1.1
 Computed new grid on record 1800.1 in CPU time    1.2
   26632 words reserved for DFT integration

 PROGRAM * UKS-SCF (Unrestricted Kohn-Sham)     Authors: W. Meyer, H.-J. Werner, P.J. Knowles, 1993

 NUMBER OF ELECTRONS:      17+   17-    SPACE SYMMETRY=1    SPIN SYMMETRY: Singlet 
 CONVERGENCE THRESHOLDS:    1.00E-05 (Density)    1.00E-06 (Energy)
 MAX. NUMBER OF ITERATIONS:       60
 INTERPOLATION TYPE:            DIIS
 INTERPOLATION STEPS:              2 (START)      1 (STEP)
 LEVEL SHIFTS:                 -0.20 (ALPHA)  -0.20 (BETA) 



 Use fine grid record 1800.2 for energy threshold  1.0D-06
 Orbital guess generated from atomic densities. Full valence occupancy:   17

 Molecular orbital dump at record        2200.2

 Initial alpha occupation  17
 Initial beta  occupation  17

 ITERATION    DDIFF          GRAD             ENERGY        2-EL.EN.            DIPOLE MOMENTS         DIIS
    1      0.000D+00      0.000D+00      -191.50570896    450.342947    1.05184   -0.00000   -0.63341    0
    2      0.526D-01      0.179D-01      -191.69340163    439.362404    0.26839   -0.00000   -0.10342    1
    3      0.506D-02      0.238D-02      -191.69602644    440.034408    0.38155   -0.00000   -0.18046    2
    4      0.150D-02      0.478D-03      -191.69620658    440.001747    0.38246   -0.00000   -0.18252    3
    5      0.591D-03      0.167D-03      -191.69623092    439.993709    0.38685   -0.00000   -0.18735    4
    6      0.192D-03      0.369D-04      -191.69623284    439.992916    0.38581   -0.00000   -0.18790    5
    7      0.489D-04      0.958D-05      -191.69623295    439.993398    0.38604   -0.00000   -0.18804    5
    8      0.908D-05      0.271D-05      -191.69623295    439.993081    0.38593   -0.00000   -0.18800    6
    9      0.237D-05      0.469D-06      -191.69623295    439.993197    0.38595   -0.00000   -0.18799    6

 Final alpha occupancy:  17
 Final beta  occupancy:  17

 !UKS STATE 1.1 Energy               -191.696232950504
 Nuclear energy                       133.31979421
 One-electron energy                 -524.50338894
 Two-electron energy                  219.99659842
 Density functional                   -20.50923665     XC-M06=-20.50923665
 Virial quotient                       -1.01547693
 !UKS STATE 1.1 Dipole moment           0.38594848    -0.00000000    -0.18799074
 Dipole moment /Debye                   0.98091893    -0.00000000    -0.47779351

 Orbital energies for positive spin:

         1.1          2.1          3.1          4.1          5.1          6.1          7.1          8.1          9.1         10.1
    -18.970918   -10.130902   -10.123946   -10.080455    -0.984241    -0.733088    -0.644259    -0.576268    -0.447046    -0.444301

        11.1         12.1         13.1         14.1         15.1         16.1         17.1         18.1         19.1
     -0.414465    -0.393666    -0.356474    -0.329114    -0.327793    -0.214123    -0.137219     0.309349     0.399737

 Orbital energies for negative spin:

         1.1          2.1          3.1          4.1          5.1          6.1          7.1          8.1          9.1         10.1
    -18.970918   -10.130902   -10.123946   -10.080455    -0.984241    -0.733088    -0.644259    -0.576268    -0.447046    -0.444301

        11.1         12.1         13.1         14.1         15.1         16.1         17.1         18.1         19.1
     -0.414465    -0.393666    -0.356474    -0.329114    -0.327793    -0.214123    -0.137219     0.309349     0.399737

 HOMO     17.1    -0.137219 =      -3.7339eV
 LUMO     18.1     0.309349 =       8.4178eV
 LUMO-HOMO         0.446568 =      12.1517eV

 EXPECTATION VALUE OF S**2:            -0.00000000

 Natural orbitals saved to record    2200.2 (Orbital set 3)

 Orbital spaces for UNO-CAS (Min. occupation: 0.020  Max. occupation: 1.980):

 Closed:       17
 Active:        0


 **********************************************************************************************************************************
 DATASETS  * FILE   NREC   LENGTH (MB)   RECORD NAMES
              1      20       31.92       500      610      700      900      950      970     1000      129      960     1100   
                                          VAR    BASINP    GEOM    SYMINP    ZMAT    AOBASIS   BASIS     P2S    ABASIS      S 
                                         1400     1410     1200     1210     1080     1600     1650     1300     1700     1800   
                                           T        V       H0       H01     AOSYM     SMH    MOLCAS    ERIS     OPER     GRID   

              2       5        2.98       700     1000      520     1800     2200   
                                         GEOM     BASIS   MCVARS    GRID      UKS  

 PROGRAMS   *        TOTAL       UKS       INT
 CPU TIMES  *         8.55      8.02      0.39
 REAL TIME  *         9.50 SEC
 DISK USED  *        35.64 MB      
 **********************************************************************************************************************************


 PROGRAM * Intrinsic Basis Bonding Analysis (IBBA)          Author: G. Knizia

 Molecular orbitals read from record     2200.2  Type=UKS/ALPHA (state 1.1)
 Fock matrix read from record            2200.2  Type=UKS/TOTAL (state 1.1)
 Orbital energies read from record       2200.2  Type=UKS/ALPHA (state 1.1)
 Density matrix read from record         2200.2  Type=UKS/CHARGE (state 1.1)

 Number of core orbitals:           4 (   4 )
 Number of closed-shell orbitals:  13 (  13 )

 Basis set MINAO-AUTO-PP generated.      Number of basis functions:   28 

 Polarized AO type:                A = (O Ot + (1-O)(1-Ot)) P12
 Orthogonalization method:         Symmetric (Loewdin)
 Localization functional:          L = sum[A,i] <i|n_A|i>^4 -> max

 Localization group 1:  17 orbitals, occupancy  2.000
 Iterative localization: IB/PM,    7 iter; Final gradient 0.46E-09

 Bond order analysis:       [THRPRINT= 0.020]

   CEN ATOM   CEN ATOM     WIBERG.BO      RENORM.BO
     1   C  -   2   O       1.016736       1.018804
     1   C  -   6   H       0.956117       0.974022
     1   C  -   7   H       0.952156       0.944279
     1   C  -   8   H       0.952156       0.944279

     2   O  -   1   C       1.016736       1.018804
     2   O  -   3   C       0.999945       0.998106
     2   O  -   8   H       0.030967       0.018454
     2   O  -   7   H       0.030967       0.018454
     2   O  -  10   H       0.028549       0.017036
     2   O  -   9   H       0.028549       0.017036

     3   C  -   4   C       1.015711       1.008321
     3   C  -   2   O       0.999945       0.998106
     3   C  -   9   H       0.942077       0.934459
     3   C  -  10   H       0.942077       0.934459

     4   C  -   3   C       1.015711       1.008321
     4   C  -   5   H       0.964863       0.991931
     4   C  -  12   H       0.962713       0.986970
     4   C  -  11   H       0.962713       0.986970

     5   H  -   4   C       0.964863       0.991931

     6   H  -   1   C       0.956117       0.974022

     7   H  -   1   C       0.952156       0.944279
     7   H  -   2   O       0.030967       0.018454

     8   H  -   1   C       0.952156       0.944279
     8   H  -   2   O       0.030967       0.018454

     9   H  -   3   C       0.942077       0.934459
     9   H  -   2   O       0.028549       0.017036

    10   H  -   3   C       0.942077       0.934459
    10   H  -   2   O       0.028549       0.017036

    11   H  -   4   C       0.962713       0.986970

    12   H  -   4   C       0.962713       0.986970


 Valency analysis:

   CEN ATOM   TOT.VALENCE
     1   C       3.896448
     2   O       2.163519
     3   C       3.922480
     4   C       3.930747
     5   H       0.981509
     6   H       0.980559
     7   H       0.987170
     8   H       0.987170
     9   H       0.987629
    10   H       0.987629
    11   H       0.981040
    12   H       0.981040

 Total charge composition:

   CEN ATOM         s          p       ELECTRONS ->P.CHARGE
     1   C       3.00299    3.24742      6.25042   -0.25042
     2   O       3.64557    4.59341      8.23898   -0.23898
     3   C       2.97892    3.13705      6.11597   -0.11597
     4   C       2.99293    3.40148      6.39441   -0.39441
     5   H       0.86402                 0.86402    0.13598
     6   H       0.86057                 0.86057    0.13943
     7   H       0.88673                 0.88673    0.11327
     8   H       0.88673                 0.88673    0.11327
     9   H       0.88878                 0.88878    0.11122
    10   H       0.88878                 0.88878    0.11122
    11   H       0.86231                 0.86231    0.13769
    12   H       0.86231                 0.86231    0.13769

 Total charge composition, AO contributions:

   CEN ATOM SHL      SPHERICAL COMPONENTS
     1   C  1s       1.99260
     1   C  2s       1.01039
     1   C  2p       1.18876    1.17845    0.88022

     2   O  1s       1.99731
     2   O  2s       1.64827
     2   O  2p       1.41438    1.91003    1.26899

     3   C  1s       1.99281
     3   C  2s       0.98611
     3   C  2p       0.91849    1.17490    1.04366

     4   C  1s       1.99193
     4   C  2s       1.00100
     4   C  2p       1.17085    1.17694    1.05369

     5   H  1s       0.86402

     6   H  1s       0.86057

     7   H  1s       0.88673

     8   H  1s       0.88673

     9   H  1s       0.88878

    10   H  1s       0.88878

    11   H  1s       0.86231

    12   H  1s       0.86231

 Summary of localized orbital composition:   [THRPRINT= 0.020]

   ORB  GRP  ORB.ENERGY      CENTERS/CHARGES
     1   1   -18.810780      O  2   2.000
     2   1   -10.027039      C  3   2.000
     3   1   -10.016074      C  1   2.000
     4   1    -9.966689      C  4   2.000
     5   1    -0.682981      O  2   1.175   C  1   0.815
     6   1    -0.672897      O  2   1.178   C  3   0.809
     7   1    -0.555154      C  3   1.007   C  4   0.983
     8   1    -0.498054      O  2   1.971   (other: 0.029)
     9   1    -0.497311      C  1   1.141   H  6   0.851
    10   1    -0.496676      C  1   1.130   H  7   0.868
    11   1    -0.496676      C  1   1.130   H  8   0.868
    12   1    -0.493443      C  3   1.126   H  9   0.867
    13   1    -0.493443      C  3   1.126   H 10   0.867
    14   1    -0.480016      C  4   1.131   H  5   0.858
    15   1    -0.473053      C  4   1.135   H 12   0.857
    16   1    -0.473053      C  4   1.135   H 11   0.857
    17   1    -0.174910      O  2   1.910   (other: 0.090)

 Localized orbitals saved to record      2200.2  (orbital set 4)


 **********************************************************************************************************************************
 DATASETS  * FILE   NREC   LENGTH (MB)   RECORD NAMES
              1      20       31.92       500      610      700      900      950      970     1000      129      960     1100   
                                          VAR    BASINP    GEOM    SYMINP    ZMAT    AOBASIS   BASIS     P2S    ABASIS      S 
                                         1400     1410     1200     1210     1080     1600     1650     1300     1700     1800   
                                           T        V       H0       H01     AOSYM     SMH    MOLCAS    ERIS     OPER     GRID   

              2       5        2.99       700     1000      520     1800     2200   
                                         GEOM     BASIS   MCVARS    GRID      UKS  

 PROGRAMS   *        TOTAL      IBBA       UKS       INT
 CPU TIMES  *         8.58      0.02      8.02      0.39
 REAL TIME  *         9.61 SEC
 DISK USED  *        35.64 MB      
 **********************************************************************************************************************************
 Molecular orbitals read from record     2200.2  Type=UKS/LOCAL(IBO)  
 Occupation numbers read from record     2200.2  Type=UKS/LOCAL(IBO)  
 Orbital energies read from record       2200.2  Type=UKS/LOCAL(IBO)  
 Redundancy group numbers read from rec  2200.2  Type=UKS/BETA (state 1.1)

 IBBA/STO-3G energy=      0.000000000000

        UKS-SCF 
   -191.69623295
 **********************************************************************************************************************************
 Molpro calculation terminated
