
 Primary working directories    : /tmp/sb13343
 Secondary working directories  : /tmp/sb13343
 Wavefunction directory         : /panfs/panasas01/chem/sb13343/wfu/
 Main file repository           : /tmp/sb13343/

 SHA1      : b4a5b34a9e711420743f49e6833241d17c61fb3c
 NAME      : 2099.9.b4a5b34
 ARCHNAME  : linux/x86_64_openmp
 FC        : /cm/shared/languages/GCC-6.1/bin/gfortran
 BLASLIB   : -lblas
 id        : simonbennie

 Nodes     nprocs
 node32-028    1

 Using customized tuning parameters: mindgm=1; mindgv=20; mindgc=4; mindgr=1; noblas=0; minvec=7
 default implementation of scratch files=df  

 memory,500,m
 geomtyp=xyz
 nosym
 noorient
 geometry={
 C          0.00000        0.00000        0.00000
 O          0.00000        0.00000        1.40962
 C          1.30608        0.00000        1.95787
 C          1.19221        0.00000        3.47353
 H          2.18666        0.00000        3.93332
 H         -1.04410        0.00000       -0.32474
 H          0.50079       -0.89267       -0.41051
 H          0.50079        0.89267       -0.41051
 H          1.86435       -0.88728        1.61056
 H          1.86435        0.88728        1.61056
 H          0.64981       -0.88690        3.81673
 H          0.64981        0.88690        3.81673
 }
 basis={ default,svp }
 {uks,PW91,direct;wf,34,1,0}
 {ibba,bonds=1}

 Variables initialized (895), CPU time= 0.00 sec
 Commands  initialized (725), CPU time= 0.01 sec, 591 directives.
 Default parameters read. Elapsed time= 0.07 sec

 Checking input...
 Passed
1


                                         ***  PROGRAM SYSTEM MOLPRO  ***
                                       Copyright, TTI GmbH Stuttgart, 2015
                                    Version 2099.9 linked May 26 2017 16:03:21


 **********************************************************************************************************************************
 LABEL *                                                                                 
  64 bit serial version                                                                  DATE: 08-Jun-17          TIME: 10:17:19  
 **********************************************************************************************************************************

 SHA1:             b4a5b34a9e711420743f49e6833241d17c61fb3c
 **********************************************************************************************************************************
 SETTING GEOMTYP        =    XYZ

 Variable memory set to  500000000 words,  buffer space 

 ZSYMEL=NOSYM

 SETTING BASIS          =    SVP


 Recomputing integrals since basis changed


 Using spherical harmonics

 Library entry C      S def2-SVP             selected for orbital group  1
 Library entry C      P def2-SVP             selected for orbital group  1
 Library entry C      D def2-SVP             selected for orbital group  1
 Library entry O      S def2-SVP             selected for orbital group  2
 Library entry O      P def2-SVP             selected for orbital group  2
 Library entry O      D def2-SVP             selected for orbital group  2
 Library entry H      S def2-SVP             selected for orbital group  4
 Library entry H      P def2-SVP             selected for orbital group  4


 PROGRAM * SEWARD (Integral evaluation for generally contracted gaussian basis sets)     Author: Roland Lindh, 1990

 Geometry written to block  1 of record 700


 Point group  C1  



 ATOMIC COORDINATES

 NR  ATOM    CHARGE       X              Y              Z

   1  C       6.00    0.000000000    0.000000000    0.000000000
   2  O       8.00    0.000000000    0.000000000    2.663795740
   3  C       6.00    2.468133497    0.000000000    3.699838088
   4  C       6.00    2.252950383    0.000000000    6.564020385
   5  H       1.00    4.132188528    0.000000000    7.432897560
   6  H       1.00   -1.973063047    0.000000000   -0.613669662
   7  H       1.00    0.946355946   -1.686901820   -0.775751471
   8  H       1.00    0.946355946    1.686901820   -0.775751471
   9  H       1.00    3.523110900   -1.676716196    3.043517307
  10  H       1.00    3.523110900    1.676716196    3.043517307
  11  H       1.00    1.227962933   -1.675998100    7.212574391
  12  H       1.00    1.227962933    1.675998100    7.212574391

 Bond lengths in Bohr (Angstrom)

 1-2  2.663795740  1-6  2.066293358  1-7  2.083990804  1-8  2.083990804  2-3  2.676764223
     ( 1.409620000)     ( 1.093435356)     ( 1.102800441)     ( 1.102800441)     ( 1.416482626)

  3- 4  2.872254168   3- 9  2.086890388   3-10  2.086890388   4- 5  2.070382464   4-11  2.068862297
       ( 1.519931450)       ( 1.104334835)       ( 1.104334835)       ( 1.095599218)       ( 1.094794780)

  4-12  2.068862297
       ( 1.094794780)

 Bond angles

  1-2-3  112.77108340   2-1-6  107.27693969   2-1-7  111.85402987   2-1-8  111.85402987

  2- 3- 4  108.47458109   2- 3- 9  110.14508041   2- 3-10  110.14508041   3- 4- 5  110.51724552

  3- 4-11  110.47015208   3- 4-12  110.47015208   4- 3- 9  110.57823876   4- 3-10  110.57823876

  5- 4-11  108.55021133   5- 4-12  108.55021133   6- 1- 7  108.84842497   6- 1- 8  108.84842497

  7- 1- 8  108.08590744   9- 3-10  106.92203462  11- 4-12  108.21261054

 NUCLEAR CHARGE:                   34
 NUMBER OF PRIMITIVE AOS:         156
 NUMBER OF SYMMETRY AOS:          152
 NUMBER OF CONTRACTIONS:           96   (  96A   )
 NUMBER OF CORE ORBITALS:           4   (   4A   )
 NUMBER OF VALENCE ORBITALS:       24   (  24A   )


 NUCLEAR REPULSION ENERGY  133.31979421


 Eigenvalues of metric

         1 0.364E-02 0.952E-02 0.147E-01 0.282E-01 0.312E-01 0.319E-01 0.432E-01 0.449E-01


 Contracted 2-electron integrals neglected if value below      1.0D-11
 AO integral compression algorithm  1   Integral accuracy      1.0D-11

     37.487 MB (compressed) written to integral file ( 40.8%)


 NUMBER OF SORTED TWO-ELECTRON INTEGRALS:   10841496.     BUFFER LENGTH:  32768
 NUMBER OF SEGMENTS:   1  SEGMENT LENGTH:   10841496      RECORD LENGTH: 524288

 Memory used in sort:      11.40 MW

 SORT1 READ    11483613. AND WROTE     8333550. INTEGRALS IN     24 RECORDS. CPU TIME:     0.14 SEC, REAL TIME:     0.29 SEC
 SORT2 READ     8333550. AND WROTE    10841496. INTEGRALS IN    143 RECORDS. CPU TIME:     0.30 SEC, REAL TIME:     0.38 SEC

 FILE SIZES:   FILE 1:    68.0 MBYTE,  FILE 4:   100.7 MBYTE,   TOTAL:    168.7 MBYTE

 OPERATOR DM      FOR CENTER  0  COORDINATES:    0.000000    0.000000    0.000000


 **********************************************************************************************************************************
 DATASETS  * FILE   NREC   LENGTH (MB)   RECORD NAMES
              1      19       62.89       500      610      700      900      950      970     1000      129      960     1100   
                                          VAR    BASINP    GEOM    SYMINP    ZMAT    AOBASIS   BASIS     P2S    ABASIS      S 
                                         1400     1410     1200     1210     1080     1600     1650     1300     1700   
                                           T        V       H0       H01     AOSYM     SMH    MOLCAS    ERIS     OPER   

 PROGRAMS   *        TOTAL       INT
 CPU TIMES  *         1.97      1.82
 REAL TIME  *         2.64 SEC
 DISK USED  *       169.15 MB      
 **********************************************************************************************************************************

 Density functional group PW91=PW91X+PW91C
 Functional: PW91X(Automatically generated (new) PW91X)                        Gradient terms: 1
 Functional: PW91C(Automatically generated (new) PW91C)                        Gradient terms: 1
 Use grid at  1800.2

 Functional: PW91X                     Factor:  1.0000
 Functional: PW91C                     Factor:  1.0000

 Generated new metagrid on record  1800.2 with target accuracy 1.0D-06 and 44796 points in CPU time    1.2
 Computed new grid on record 1800.1 in CPU time    1.3
   80368 words reserved for DFT integration

 PROGRAM * UKS-SCF (Unrestricted Kohn-Sham)     Authors: W. Meyer, H.-J. Werner, P.J. Knowles, 1993

 NUMBER OF ELECTRONS:      17+   17-    SPACE SYMMETRY=1    SPIN SYMMETRY: Singlet 
 CONVERGENCE THRESHOLDS:    1.00E-05 (Density)    1.00E-06 (Energy)
 MAX. NUMBER OF ITERATIONS:       60
 INTERPOLATION TYPE:            DIIS
 INTERPOLATION STEPS:              2 (START)      1 (STEP)
 LEVEL SHIFTS:                 -0.20 (ALPHA)  -0.20 (BETA) 



 Use fine grid record 1800.2 for energy threshold  1.0D-06
 Orbital guess generated from atomic densities. Full valence occupancy:   17

 Molecular orbital dump at record        2200.2

 Initial alpha occupation  17
 Initial beta  occupation  17

 ITERATION    DDIFF          GRAD             ENERGY        2-EL.EN.            DIPOLE MOMENTS         DIIS
    1      0.000D+00      0.000D+00      -193.92579340    465.688524    0.76750   -0.00000   -0.49892    0
    2      0.136D-01      0.591D-02      -194.07355410    448.669337    0.26380   -0.00000   -0.16183    1
    3      0.451D-02      0.300D-02      -194.10780781    453.614440    0.42215   -0.00000   -0.26575    2
    4      0.110D-02      0.486D-03      -194.10883844    453.249097    0.37253   -0.00000   -0.23602    3
    5      0.825D-03      0.220D-03      -194.10919651    453.197987    0.36785   -0.00000   -0.23184    4
    6      0.543D-03      0.625D-04      -194.10926134    453.153467    0.35753   -0.00000   -0.22636    5
    7      0.109D-03      0.193D-04      -194.10926487    453.156659    0.35778   -0.00000   -0.22501    6
    8      0.336D-04      0.101D-04      -194.10926550    453.153487    0.35693   -0.00000   -0.22516    7
    9      0.109D-04      0.177D-05      -194.10926554    453.153465    0.35682   -0.00000   -0.22499    7
   10      0.244D-05      0.457D-06      -194.10926554    453.153972    0.35682   -0.00000   -0.22499    7
   11      0.587D-06      0.239D-06      -194.10926554    453.153646    0.35681   -0.00000   -0.22498    7

 Final alpha occupancy:  17
 Final beta  occupancy:  17

 !UKS STATE 1.1 Energy               -194.109265538477
 Nuclear energy                       133.31979421
 One-electron energy                 -526.27055471
 Two-electron energy                  226.57682306
 Density functional                   -27.73532811     PW91X=-26.55469322 PW91C= -1.18063489
 Virial quotient                       -1.01042021
 !UKS STATE 1.1 Dipole moment           0.35680754    -0.00000000    -0.22498451
 Dipole moment /Debye                   0.90685490    -0.00000000    -0.57181613

 Orbital energies for positive spin:

         1.1          2.1          3.1          4.1          5.1          6.1          7.1          8.1          9.1         10.1
    -18.766670    -9.949182    -9.945961    -9.898942    -0.930602    -0.683432    -0.600333    -0.535999    -0.439551    -0.425822

        11.1         12.1         13.1         14.1         15.1         16.1         17.1         18.1         19.1
     -0.400789    -0.370706    -0.337956    -0.320782    -0.308274    -0.267983    -0.205763     0.036245     0.059109

 Orbital energies for negative spin:

         1.1          2.1          3.1          4.1          5.1          6.1          7.1          8.1          9.1         10.1
    -18.766669    -9.949182    -9.945961    -9.898941    -0.930602    -0.683432    -0.600332    -0.535999    -0.439551    -0.425822

        11.1         12.1         13.1         14.1         15.1         16.1         17.1         18.1         19.1
     -0.400789    -0.370706    -0.337956    -0.320782    -0.308275    -0.267983    -0.205763     0.036244     0.059109

 HOMO    -17.1    -0.205763 =      -5.5991eV
 LUMO    -18.1     0.036244 =       0.9863eV
 LUMO-HOMO         0.242007 =       6.5854eV

 EXPECTATION VALUE OF S**2:             0.00000000

 Occupation number threshold for canonical orbitals:  1.999000 (occupied),  0.001000 (virtual)

 Number of pseudo-canonical orbitals per symmetry:   17
 Number of active natural orbitals per symmetry:      0

 Natural orbitals saved to record    2200.2 (Orbital set 3)

 Orbital spaces for UNO-CAS (Min. occupation: 0.020  Max. occupation: 1.980):

 Closed:       17
 Active:        0


 **********************************************************************************************************************************
 DATASETS  * FILE   NREC   LENGTH (MB)   RECORD NAMES
              1      20       64.33       500      610      700      900      950      970     1000      129      960     1100   
                                          VAR    BASINP    GEOM    SYMINP    ZMAT    AOBASIS   BASIS     P2S    ABASIS      S 
                                         1400     1410     1200     1210     1080     1600     1650     1300     1700     1800   
                                           T        V       H0       H01     AOSYM     SMH    MOLCAS    ERIS     OPER     GRID   

              2       5        3.33       700     1000      520     1800     2200   
                                         GEOM     BASIS   MCVARS    GRID      UKS  

 PROGRAMS   *        TOTAL       UKS       INT
 CPU TIMES  *        16.00     14.03      1.82
 REAL TIME  *        16.86 SEC
 DISK USED  *       169.15 MB      
 **********************************************************************************************************************************


 PROGRAM * Intrinsic Basis Bonding Analysis (IBBA)          Author: G. Knizia

 Molecular orbitals read from record     2200.2  Type=UKS/ALPHA (state 1.1)
 Fock matrix read from record            2200.2  Type=UKS/TOTAL (state 1.1)
 Orbital energies read from record       2200.2  Type=UKS/ALPHA (state 1.1)
 Density matrix read from record         2200.2  Type=UKS/CHARGE (state 1.1)

 Number of core orbitals:           4 (   4 )
 Number of closed-shell orbitals:  13 (  13 )

 Basis set MINAO-AUTO-PP generated.      Number of basis functions:   28 

 Polarized AO type:                A = (O Ot + (1-O)(1-Ot)) P12
 Orthogonalization method:         Symmetric (Loewdin)
 Localization functional:          L = sum[A,i] <i|n_A|i>^4 -> max

 Localization group 1:  17 orbitals, occupancy  2.000
 Iterative localization: IB/PM,    7 iter; Final gradient 0.19E-09

 Bond order analysis:       [THRPRINT= 0.020]

   CEN ATOM   CEN ATOM     WIBERG.BO      RENORM.BO
     1   C  -   2   O       0.996437       1.021307
     1   C  -   6   H       0.956552       0.976282
     1   C  -   7   H       0.945387       0.931141
     1   C  -   8   H       0.945387       0.931141

     2   O  -   1   C       0.996437       1.021307
     2   O  -   3   C       0.974421       0.989296
     2   O  -   8   H       0.036599       0.021866
     2   O  -   7   H       0.036599       0.021866
     2   O  -  10   H       0.032795       0.019561
     2   O  -   9   H       0.032795       0.019561

     3   C  -   4   C       1.031076       1.021842
     3   C  -   2   O       0.974421       0.989296
     3   C  -   9   H       0.933043       0.919600
     3   C  -  10   H       0.933043       0.919600

     4   C  -   3   C       1.031076       1.021842
     4   C  -   5   H       0.959304       0.988154
     4   C  -  12   H       0.957026       0.980028
     4   C  -  11   H       0.957026       0.980028

     5   H  -   4   C       0.959304       0.988154

     6   H  -   1   C       0.956552       0.976282

     7   H  -   1   C       0.945387       0.931141
     7   H  -   2   O       0.036599       0.021866

     8   H  -   1   C       0.945387       0.931141
     8   H  -   2   O       0.036599       0.021866

     9   H  -   3   C       0.933043       0.919600
     9   H  -   2   O       0.032795       0.019561

    10   H  -   3   C       0.933043       0.919600
    10   H  -   2   O       0.032795       0.019561

    11   H  -   4   C       0.957026       0.980028

    12   H  -   4   C       0.957026       0.980028


 Valency analysis:

   CEN ATOM   TOT.VALENCE
     1   C       3.865513
     2   O       2.148047
     3   C       3.896680
     4   C       3.934898
     5   H       0.980880
     6   H       0.977678
     7   H       0.987415
     8   H       0.987415
     9   H       0.988773
    10   H       0.988773
    11   H       0.979876
    12   H       0.979876

 Total charge composition:

   CEN ATOM         s          p       ELECTRONS ->P.CHARGE
     1   C       3.02021    3.17948      6.19969   -0.19969
     2   O       3.59544    4.76447      8.35991   -0.35991
     3   C       2.98627    3.05537      6.04164   -0.04164
     4   C       3.02116    3.38527      6.40643   -0.40643
     5   H       0.86173                 0.86173    0.13827
     6   H       0.85059                 0.85059    0.14941
     7   H       0.88782                 0.88782    0.11218
     8   H       0.88782                 0.88782    0.11218
     9   H       0.89404                 0.89404    0.10596
    10   H       0.89404                 0.89404    0.10596
    11   H       0.85814                 0.85814    0.14186
    12   H       0.85814                 0.85814    0.14186

 Total charge composition, AO contributions:

   CEN ATOM SHL      SPHERICAL COMPONENTS
     1   C  1s       1.99192
     1   C  2s       1.02829
     1   C  2p       1.18848    1.17192    0.81907

     2   O  1s       1.99716
     2   O  2s       1.59828
     2   O  2p       1.51138    1.89782    1.35527

     3   C  1s       1.99218
     3   C  2s       0.99410
     3   C  2p       0.86534    1.16305    1.02698

     4   C  1s       1.99115
     4   C  2s       1.03000
     4   C  2p       1.16291    1.17356    1.04880

     5   H  1s       0.86173

     6   H  1s       0.85059

     7   H  1s       0.88782

     8   H  1s       0.88782

     9   H  1s       0.89404

    10   H  1s       0.89404

    11   H  1s       0.85814

    12   H  1s       0.85814

 Summary of localized orbital composition:   [THRPRINT= 0.020]

   ORB  GRP  ORB.ENERGY      CENTERS/CHARGES
     1   1   -18.629145      O  2   2.000
     2   1    -9.848064      C  3   2.000
     3   1    -9.839659      C  1   2.000
     4   1    -9.786650      C  4   2.000
     5   1    -0.694530      O  2   1.245   C  1   0.745
     6   1    -0.685782      O  2   1.255   C  3   0.732
     7   1    -0.529030      C  3   1.004   C  4   0.988
     8   1    -0.476653      O  2   1.958   (other: 0.042)
     9   1    -0.465753      C  1   1.150   H  6   0.843
    10   1    -0.465547      C  1   1.132   H  8   0.866
    11   1    -0.465547      C  1   1.132   H  7   0.866
    12   1    -0.461302      C  3   1.121   H 10   0.869
    13   1    -0.461302      C  3   1.121   H  9   0.869
    14   1    -0.447655      C  4   1.129   H  5   0.854
    15   1    -0.441571      C  4   1.137   H 11   0.851
    16   1    -0.441571      C  4   1.137   H 12   0.851
    17   1    -0.249033      O  2   1.898   C  1   0.021   C  3   0.020   (other: 0.061)

 Localized orbitals saved to record      2200.2  (orbital set 4)


 **********************************************************************************************************************************
 DATASETS  * FILE   NREC   LENGTH (MB)   RECORD NAMES
              1      20       64.33       500      610      700      900      950      970     1000      129      960     1100   
                                          VAR    BASINP    GEOM    SYMINP    ZMAT    AOBASIS   BASIS     P2S    ABASIS      S 
                                         1400     1410     1200     1210     1080     1600     1650     1300     1700     1800   
                                           T        V       H0       H01     AOSYM     SMH    MOLCAS    ERIS     OPER     GRID   

              2       5        3.40       700     1000      520     1800     2200   
                                         GEOM     BASIS   MCVARS    GRID      UKS  

 PROGRAMS   *        TOTAL      IBBA       UKS       INT
 CPU TIMES  *        16.04      0.04     14.03      1.82
 REAL TIME  *        16.97 SEC
 DISK USED  *       169.15 MB      
 **********************************************************************************************************************************
 Molecular orbitals read from record     2200.2  Type=UKS/LOCAL(IBO)  
 Occupation numbers read from record     2200.2  Type=UKS/LOCAL(IBO)  
 Orbital energies read from record       2200.2  Type=UKS/LOCAL(IBO)  
 Redundancy group numbers read from rec  2200.2  Type=UKS/BETA (state 1.1)

 IBBA/SVP energy=      0.000000000000

        UKS-SCF 
   -194.10926554
 **********************************************************************************************************************************
 Molpro calculation terminated
