
 Primary working directories    : /tmp/sb13343
 Secondary working directories  : /tmp/sb13343
 Wavefunction directory         : /panfs/panasas01/chem/sb13343/wfu/
 Main file repository           : /tmp/sb13343/

 SHA1      : b4a5b34a9e711420743f49e6833241d17c61fb3c
 NAME      : 2099.9.b4a5b34
 ARCHNAME  : linux/x86_64_openmp
 FC        : /cm/shared/languages/GCC-6.1/bin/gfortran
 BLASLIB   : -lblas
 id        : simonbennie

 Nodes     nprocs
 node32-017    1

 Using customized tuning parameters: mindgm=1; mindgv=20; mindgc=4; mindgr=1; noblas=0; minvec=7
 default implementation of scratch files=df  

 memory,500,m
 geomtyp=xyz
 nosym
 noorient
 geometry={
 C          0.00000        0.00000        0.00000
 O          0.00000        0.00000        1.40962
 C          1.30608        0.00000        1.95787
 C          1.19221        0.00000        3.47353
 H          2.18666        0.00000        3.93332
 H         -1.04410        0.00000       -0.32474
 H          0.50079       -0.89267       -0.41051
 H          0.50079        0.89267       -0.41051
 H          1.86435       -0.88728        1.61056
 H          1.86435        0.88728        1.61056
 H          0.64981       -0.88690        3.81673
 H          0.64981        0.88690        3.81673
 }
 basis={ default,svp }
 {ks,CS,direct;wf,34,1,0}
 {ibba,bonds=1}

 Variables initialized (895), CPU time= 0.00 sec
 Commands  initialized (725), CPU time= 0.02 sec, 591 directives.
 Default parameters read. Elapsed time= 0.08 sec

 Checking input...
 Passed
1


                                         ***  PROGRAM SYSTEM MOLPRO  ***
                                       Copyright, TTI GmbH Stuttgart, 2015
                                    Version 2099.9 linked May 26 2017 16:03:21


 **********************************************************************************************************************************
 LABEL *                                                                                 
  64 bit serial version                                                                  DATE: 08-Jun-17          TIME: 10:11:27  
 **********************************************************************************************************************************

 SHA1:             b4a5b34a9e711420743f49e6833241d17c61fb3c
 **********************************************************************************************************************************
 SETTING GEOMTYP        =    XYZ

 Variable memory set to  500000000 words,  buffer space 

 ZSYMEL=NOSYM

 SETTING BASIS          =    SVP


 Recomputing integrals since basis changed


 Using spherical harmonics

 Library entry C      S def2-SVP             selected for orbital group  1
 Library entry C      P def2-SVP             selected for orbital group  1
 Library entry C      D def2-SVP             selected for orbital group  1
 Library entry O      S def2-SVP             selected for orbital group  2
 Library entry O      P def2-SVP             selected for orbital group  2
 Library entry O      D def2-SVP             selected for orbital group  2
 Library entry H      S def2-SVP             selected for orbital group  4
 Library entry H      P def2-SVP             selected for orbital group  4


 PROGRAM * SEWARD (Integral evaluation for generally contracted gaussian basis sets)     Author: Roland Lindh, 1990

 Geometry written to block  1 of record 700


 Point group  C1  



 ATOMIC COORDINATES

 NR  ATOM    CHARGE       X              Y              Z

   1  C       6.00    0.000000000    0.000000000    0.000000000
   2  O       8.00    0.000000000    0.000000000    2.663795740
   3  C       6.00    2.468133497    0.000000000    3.699838088
   4  C       6.00    2.252950383    0.000000000    6.564020385
   5  H       1.00    4.132188528    0.000000000    7.432897560
   6  H       1.00   -1.973063047    0.000000000   -0.613669662
   7  H       1.00    0.946355946   -1.686901820   -0.775751471
   8  H       1.00    0.946355946    1.686901820   -0.775751471
   9  H       1.00    3.523110900   -1.676716196    3.043517307
  10  H       1.00    3.523110900    1.676716196    3.043517307
  11  H       1.00    1.227962933   -1.675998100    7.212574391
  12  H       1.00    1.227962933    1.675998100    7.212574391

 Bond lengths in Bohr (Angstrom)

 1-2  2.663795740  1-6  2.066293358  1-7  2.083990804  1-8  2.083990804  2-3  2.676764223
     ( 1.409620000)     ( 1.093435356)     ( 1.102800441)     ( 1.102800441)     ( 1.416482626)

  3- 4  2.872254168   3- 9  2.086890388   3-10  2.086890388   4- 5  2.070382464   4-11  2.068862297
       ( 1.519931450)       ( 1.104334835)       ( 1.104334835)       ( 1.095599218)       ( 1.094794780)

  4-12  2.068862297
       ( 1.094794780)

 Bond angles

  1-2-3  112.77108340   2-1-6  107.27693969   2-1-7  111.85402987   2-1-8  111.85402987

  2- 3- 4  108.47458109   2- 3- 9  110.14508041   2- 3-10  110.14508041   3- 4- 5  110.51724552

  3- 4-11  110.47015208   3- 4-12  110.47015208   4- 3- 9  110.57823876   4- 3-10  110.57823876

  5- 4-11  108.55021133   5- 4-12  108.55021133   6- 1- 7  108.84842497   6- 1- 8  108.84842497

  7- 1- 8  108.08590744   9- 3-10  106.92203462  11- 4-12  108.21261054

 NUCLEAR CHARGE:                   34
 NUMBER OF PRIMITIVE AOS:         156
 NUMBER OF SYMMETRY AOS:          152
 NUMBER OF CONTRACTIONS:           96   (  96A   )
 NUMBER OF CORE ORBITALS:           4   (   4A   )
 NUMBER OF VALENCE ORBITALS:       24   (  24A   )


 NUCLEAR REPULSION ENERGY  133.31979421


 Eigenvalues of metric

         1 0.364E-02 0.952E-02 0.147E-01 0.282E-01 0.312E-01 0.319E-01 0.432E-01 0.449E-01


 Contracted 2-electron integrals neglected if value below      1.0D-11
 AO integral compression algorithm  1   Integral accuracy      1.0D-11

     37.487 MB (compressed) written to integral file ( 40.8%)


 NUMBER OF SORTED TWO-ELECTRON INTEGRALS:   10841496.     BUFFER LENGTH:  32768
 NUMBER OF SEGMENTS:   1  SEGMENT LENGTH:   10841496      RECORD LENGTH: 524288

 Memory used in sort:      11.40 MW

 SORT1 READ    11483613. AND WROTE     8333550. INTEGRALS IN     24 RECORDS. CPU TIME:     0.12 SEC, REAL TIME:     0.23 SEC
 SORT2 READ     8333550. AND WROTE    10841496. INTEGRALS IN    143 RECORDS. CPU TIME:     0.26 SEC, REAL TIME:     0.31 SEC

 FILE SIZES:   FILE 1:    68.0 MBYTE,  FILE 4:   100.7 MBYTE,   TOTAL:    168.7 MBYTE

 OPERATOR DM      FOR CENTER  0  COORDINATES:    0.000000    0.000000    0.000000


 **********************************************************************************************************************************
 DATASETS  * FILE   NREC   LENGTH (MB)   RECORD NAMES
              1      19       62.89       500      610      700      900      950      970     1000      129      960     1100   
                                          VAR    BASINP    GEOM    SYMINP    ZMAT    AOBASIS   BASIS     P2S    ABASIS      S 
                                         1400     1410     1200     1210     1080     1600     1650     1300     1700   
                                           T        V       H0       H01     AOSYM     SMH    MOLCAS    ERIS     OPER   

 PROGRAMS   *        TOTAL       INT
 CPU TIMES  *         1.74      1.61
 REAL TIME  *         2.36 SEC
 DISK USED  *       169.15 MB      
 **********************************************************************************************************************************

 Density functional group CS=CS1
 Functional: CS1(Colle-Salvetti (Gradient form))                               Gradient terms: 1
 Use grid at  1800.2

 Functional: CS1                       Factor:  1.0000

 Generated new metagrid on record  1800.2 with target accuracy 1.0D-06 and 44796 points in CPU time    1.1
 Computed new grid on record 1800.1 in CPU time    1.2
   80368 words reserved for DFT integration

 PROGRAM * RKS-SCF (Restricted closed shell Kohn-Sham)     Authors: W. Meyer, H.-J. Werner, P.J. Knowles, 1993

 NUMBER OF ELECTRONS:      17+   17-    SPACE SYMMETRY=1    SPIN SYMMETRY: Singlet 
 CONVERGENCE THRESHOLDS:    1.00E-05 (Density)    1.00E-06 (Energy)
 MAX. NUMBER OF ITERATIONS:       60
 INTERPOLATION TYPE:            DIIS
 INTERPOLATION STEPS:              2 (START)      1 (STEP)
 LEVEL SHIFTS:                  0.00 (CLOSED)  0.00 (OPEN) 



 Use fine grid record 1800.2 for energy threshold  1.0D-06
 Orbital guess generated from atomic densities. Full valence occupancy:   17

 Molecular orbital dump at record        2100.2

 Initial occupancy:  17

 ITERATION    DDIFF          GRAD             ENERGY        2-EL.EN.            DIPOLE MOMENTS         DIIS   ORB.
    1      0.000D+00      0.000D+00      -166.70869488    399.374321   -4.70601    0.00000    0.97492    0    start
    2      0.000D+00      0.350D-01      -162.05863554    498.198953    4.98997   -0.00000    0.11725    1    diag
    3      0.168D+00      0.727D-01      -167.90295602    443.442300    1.44395   -0.00000   -0.69660    2    diag
    4      0.437D-01      0.157D-01      -168.10717103    432.739924   -0.07887    0.00000    0.07014    3    diag
    5      0.248D-01      0.810D-02      -168.17936890    431.709901   -0.14975    0.00000    0.06423    4    diag
    6      0.110D-01      0.315D-02      -168.18913926    431.125451   -0.08087    0.00000   -0.06538    5    diag
    7      0.372D-02      0.126D-02      -168.19071848    430.819785   -0.19497    0.00000   -0.00586    6    diag
    8      0.198D-02      0.470D-03      -168.19097702    430.434705   -0.21576    0.00000    0.01313    7    diag
    9      0.831D-03      0.211D-03      -168.19102717    430.357188   -0.23405    0.00000    0.01471    8    diag
   10      0.355D-03      0.335D-04      -168.19102844    430.333587   -0.23624   -0.00000    0.01583    9    orth
   11      0.665D-04      0.435D-05      -168.19102847    430.334652   -0.23635    0.00000    0.01580    9    diag
   12      0.722D-05      0.750D-06      -168.19102847    430.334465   -0.23637   -0.00000    0.01583    0    orth

 Final occupancy:  17

 !RKS STATE 1.1 Energy               -168.191028468526
 Nuclear energy                       133.31979421
 One-electron energy                 -515.60606332
 Two-electron energy                  215.16723234
 Density functional                    -1.07199170     CS1=-1.07199170
 Virial quotient                       -0.92949447
 !RKS STATE 1.1 Dipole moment          -0.23637492    -0.00000000     0.01583240
 Dipole moment /Debye                  -0.60076578    -0.00000000     0.04023930

 Orbital energies:

         1.1          2.1          3.1          4.1          5.1          6.1          7.1          8.1          9.1         10.1
    -16.602860    -8.235063    -8.226589    -8.197450    -0.592979    -0.366509    -0.275861    -0.221149    -0.157704    -0.154770

        11.1         12.1         13.1         14.1         15.1         16.1         17.1         18.1         19.1
     -0.122451    -0.088627    -0.047699    -0.032852    -0.013165     0.024869     0.080201     0.195206     0.210614

 HOMO     17.1     0.080201 =       2.1824eV
 LUMO     18.1     0.195206 =       5.3118eV
 LUMO-HOMO         0.115005 =       3.1295eV


 **********************************************************************************************************************************
 DATASETS  * FILE   NREC   LENGTH (MB)   RECORD NAMES
              1      20       64.33       500      610      700      900      950      970     1000      129      960     1100   
                                          VAR    BASINP    GEOM    SYMINP    ZMAT    AOBASIS   BASIS     P2S    ABASIS      S 
                                         1400     1410     1200     1210     1080     1600     1650     1300     1700     1800   
                                           T        V       H0       H01     AOSYM     SMH    MOLCAS    ERIS     OPER     GRID   

              2       5        3.14       700     1000      520     1800     2100   
                                         GEOM     BASIS   MCVARS    GRID      RKS  

 PROGRAMS   *        TOTAL        KS       INT
 CPU TIMES  *        15.96     14.22      1.61
 REAL TIME  *        17.25 SEC
 DISK USED  *       169.15 MB      
 **********************************************************************************************************************************


 PROGRAM * Intrinsic Basis Bonding Analysis (IBBA)          Author: G. Knizia

 Molecular orbitals read from record     2100.2  Type=RKS/CANONICAL (state 1.1)
 Fock matrix read from record            2100.2  Type=RKS/TOTAL (state 1.1)
 Orbital energies read from record       2100.2  Type=RKS/CANONICAL (state 1.1)
 Density matrix read from record         2100.2  Type=RKS/CHARGE (state 1.1)

 Number of core orbitals:           4 (   4 )
 Number of closed-shell orbitals:  13 (  13 )

 Basis set MINAO-AUTO-PP generated.      Number of basis functions:   28 

 Polarized AO type:                A = (O Ot + (1-O)(1-Ot)) P12
 Orthogonalization method:         Symmetric (Loewdin)
 Localization functional:          L = sum[A,i] <i|n_A|i>^4 -> max

 Localization group 1:  17 orbitals, occupancy  2.000
 Iterative localization: IB/PM,    7 iter; Final gradient 0.18E-08

 Bond order analysis:       [THRPRINT= 0.020]

   CEN ATOM   CEN ATOM     WIBERG.BO      RENORM.BO
     1   C  -   2   O       1.098142       1.059053
     1   C  -   6   H       0.962440       0.962090
     1   C  -   8   H       0.913930       0.863958
     1   C  -   7   H       0.913930       0.863958

     2   O  -   1   C       1.098142       1.059053
     2   O  -   3   C       1.068625       1.018818
     2   O  -   8   H       0.062375       0.034959
     2   O  -   7   H       0.062375       0.034959
     2   O  -   9   H       0.056266       0.031205
     2   O  -  10   H       0.056266       0.031205
     2   O  -   4   C       0.040152       0.024514
     2   O  -   5   H       0.024110       0.018147

     3   C  -   2   O       1.068625       1.018818
     3   C  -   4   C       1.043502       1.040063
     3   C  -  10   H       0.890316       0.845476
     3   C  -   9   H       0.890316       0.845476

     4   C  -   3   C       1.043502       1.040063
     4   C  -   5   H       0.952076       0.969430
     4   C  -  11   H       0.951599       0.958202
     4   C  -  12   H       0.951599       0.958202
     4   C  -   2   O       0.040152       0.024514

     5   H  -   4   C       0.952076       0.969430
     5   H  -   2   O       0.024110       0.018147

     6   H  -   1   C       0.962440       0.962090

     7   H  -   1   C       0.913930       0.863958
     7   H  -   2   O       0.062375       0.034959

     8   H  -   1   C       0.913930       0.863958
     8   H  -   2   O       0.062375       0.034959

     9   H  -   3   C       0.890316       0.845476
     9   H  -   2   O       0.056266       0.031205
     9   H  -  12   H       0.028474       0.029425

    10   H  -   3   C       0.890316       0.845476
    10   H  -   2   O       0.056266       0.031205
    10   H  -  11   H       0.028474       0.029425

    11   H  -   4   C       0.951599       0.958202
    11   H  -  10   H       0.028474       0.029425

    12   H  -   4   C       0.951599       0.958202
    12   H  -   9   H       0.028474       0.029425


 Valency analysis:

   CEN ATOM   TOT.VALENCE
     1   C       3.929035
     2   O       2.487800
     3   C       3.941125
     4   C       3.961695
     5   H       0.997192
     6   H       0.997938
     7   H       0.999988
     8   H       0.999988
     9   H       0.999859
    10   H       0.999859
    11   H       0.998091
    12   H       0.998091

 Total charge composition:

   CEN ATOM         s          p       ELECTRONS ->P.CHARGE
     1   C       2.89305    3.13322      6.02627   -0.02627
     2   O       3.46874    4.59919      8.06792   -0.06792
     3   C       2.87716    3.04212      5.91928    0.08072
     4   C       2.88868    3.26685      6.15554   -0.15554
     5   H       0.94701                 0.94701    0.05299
     6   H       0.95459                 0.95459    0.04541
     7   H       0.99651                 0.99651    0.00349
     8   H       0.99651                 0.99651    0.00349
     9   H       1.01189                 1.01189   -0.01189
    10   H       1.01189                 1.01189   -0.01189
    11   H       0.95630                 0.95630    0.04370
    12   H       0.95630                 0.95630    0.04370

 Total charge composition, AO contributions:

   CEN ATOM SHL      SPHERICAL COMPONENTS
     1   C  1s       1.99800
     1   C  2s       0.89505
     1   C  2p       1.12871    1.13366    0.87086

     2   O  1s       1.99894
     2   O  2s       1.46980
     2   O  2p       1.48596    1.79091    1.32232

     3   C  1s       1.99809
     3   C  2s       0.87907
     3   C  2p       0.89197    1.11166    1.03848

     4   C  1s       1.99781
     4   C  2s       0.89087
     4   C  2p       1.10371    1.10890    1.05424

     5   H  1s       0.94701

     6   H  1s       0.95459

     7   H  1s       0.99651

     8   H  1s       0.99651

     9   H  1s       1.01189

    10   H  1s       1.01189

    11   H  1s       0.95630

    12   H  1s       0.95630

 Summary of localized orbital composition:   [THRPRINT= 0.020]

   ORB  GRP  ORB.ENERGY      CENTERS/CHARGES
     1   1   -16.515524      O  2   2.000
     2   1    -8.159879      C  1   2.000
     3   1    -8.152984      C  3   2.000
     4   1    -8.117838      C  4   2.000
     5   1    -0.395736      O  2   1.175   C  1   0.813
     6   1    -0.385394      O  2   1.191   C  3   0.791
     7   1    -0.226157      C  4   1.001   C  3   0.989
     8   1    -0.155969      C  1   1.050   H  6   0.941
     9   1    -0.154612      C  1   1.036   H  8   0.956
    10   1    -0.154612      C  1   1.036   H  7   0.956
    11   1    -0.151593      C  3   1.006   H 10   0.970   (other: 0.024)
    12   1    -0.151593      C  3   1.006   H  9   0.970   (other: 0.024)
    13   1    -0.141089      C  4   1.038   H 12   0.942
    14   1    -0.141089      C  4   1.038   H 11   0.942
    15   1    -0.140606      C  4   1.043   H  5   0.932   (other: 0.025)
    16   1    -0.109788      O  2   1.904   C  3   0.021   (other: 0.075)
    17   1     0.023805      O  2   1.791   C  3   0.053   C  1   0.052   H  8   0.027   H  7   0.027   H  9   0.023   H 10   0.023

 Localized orbitals saved to record      2100.2  (orbital set 2)


 **********************************************************************************************************************************
 DATASETS  * FILE   NREC   LENGTH (MB)   RECORD NAMES
              1      20       64.33       500      610      700      900      950      970     1000      129      960     1100   
                                          VAR    BASINP    GEOM    SYMINP    ZMAT    AOBASIS   BASIS     P2S    ABASIS      S 
                                         1400     1410     1200     1210     1080     1600     1650     1300     1700     1800   
                                           T        V       H0       H01     AOSYM     SMH    MOLCAS    ERIS     OPER     GRID   

              2       5        3.21       700     1000      520     1800     2100   
                                         GEOM     BASIS   MCVARS    GRID      RKS  

 PROGRAMS   *        TOTAL      IBBA        KS       INT
 CPU TIMES  *        15.99      0.03     14.22      1.61
 REAL TIME  *        17.41 SEC
 DISK USED  *       169.15 MB      
 **********************************************************************************************************************************
 Molecular orbitals read from record     2100.2  Type=RKS/LOCAL(IBO)  
 Occupation numbers read from record     2100.2  Type=RKS/LOCAL(IBO)  
 Orbital energies read from record       2100.2  Type=RKS/LOCAL(IBO)  
 Redundancy group numbers read from rec  2100.2  Type=RKS/LOCAL(IBO)  

 IBBA/SVP energy=      0.000000000000

        KS-SCF  
   -168.19102847
 **********************************************************************************************************************************
 Molpro calculation terminated
