
 Primary working directories    : /tmp/sb13343
 Secondary working directories  : /tmp/sb13343
 Wavefunction directory         : /panfs/panasas01/chem/sb13343/wfu/
 Main file repository           : /tmp/sb13343/

 SHA1      : b4a5b34a9e711420743f49e6833241d17c61fb3c
 NAME      : 2099.9.b4a5b34
 ARCHNAME  : linux/x86_64_openmp
 FC        : /cm/shared/languages/GCC-6.1/bin/gfortran
 BLASLIB   : -lblas
 id        : simonbennie

 Nodes     nprocs
 node32-019    1

 Using customized tuning parameters: mindgm=1; mindgv=20; mindgc=4; mindgr=1; noblas=0; minvec=7
 default implementation of scratch files=df  

 memory,500,m
 geomtyp=xyz
 nosym
 noorient
 geometry={
 H         -1.81763       -0.80620        0.00000
 O         -0.85078       -0.87151        0.00000
 C         -0.32298        0.45206        0.00000
 C          1.19308        0.34760        0.00000
 H          1.64898        1.34394        0.00000
 H         -0.66062        1.01252       -0.88753
 H         -0.66062        1.01252        0.88753
 H          1.53777       -0.19434       -0.88682
 H          1.53777       -0.19434        0.88682
 }
 basis={ default,sto-3g }
 {uks,PW91,direct;wf,26,1,0}
 {ibba,bonds=1}

 Variables initialized (895), CPU time= 0.01 sec
 Commands  initialized (725), CPU time= 0.01 sec, 591 directives.
 Default parameters read. Elapsed time= 0.16 sec

 Checking input...
 Passed
1


                                         ***  PROGRAM SYSTEM MOLPRO  ***
                                       Copyright, TTI GmbH Stuttgart, 2015
                                    Version 2099.9 linked May 26 2017 16:03:21


 **********************************************************************************************************************************
 LABEL *                                                                                 
  64 bit serial version                                                                  DATE: 08-Jun-17          TIME: 11:44:47  
 **********************************************************************************************************************************

 SHA1:             b4a5b34a9e711420743f49e6833241d17c61fb3c
 **********************************************************************************************************************************
 SETTING GEOMTYP        =    XYZ

 Variable memory set to  500000000 words,  buffer space 

 ZSYMEL=NOSYM

 SETTING BASIS          =    STO-3G


 Recomputing integrals since basis changed


 Using spherical harmonics

 Library entry H      S STO-3G               selected for orbital group  1
 Library entry O      S STO-3G               selected for orbital group  2
 Library entry O      P STO-3G               selected for orbital group  2
 Library entry C      S STO-3G               selected for orbital group  3
 Library entry C      P STO-3G               selected for orbital group  3


 PROGRAM * SEWARD (Integral evaluation for generally contracted gaussian basis sets)     Author: Roland Lindh, 1990

 Geometry written to block  1 of record 700


 Point group  C1  



 ATOMIC COORDINATES

 NR  ATOM    CHARGE       X              Y              Z

   1  H       1.00   -3.434822896   -1.523497202    0.000000000
   2  O       8.00   -1.607741192   -1.646915215    0.000000000
   3  C       6.00   -0.610343744    0.854269592    0.000000000
   4  C       6.00    2.254594445    0.656868801    0.000000000
   5  H       1.00    3.116120585    2.539678528    0.000000000
   6  H       1.00   -1.248390872    1.913385496   -1.677188627
   7  H       1.00   -1.248390872    1.913385496    1.677188627
   8  H       1.00    2.905964143   -0.367249375   -1.675846922
   9  H       1.00    2.905964143   -0.367249375    1.675846922

 Bond lengths in Bohr (Angstrom)

 1-2  1.831245357  2-3  2.692717421  3-4  2.871730819  3-6  2.083696794  3-7  2.083696794
     ( 0.969053311)     ( 1.424924694)     ( 1.519654505)     ( 1.102644858)     ( 1.102644858)

 4-5  2.070555423  4-8  2.069193908  4-9  2.069193908
     ( 1.095690744)     ( 1.094970261)     ( 1.094970261)

 Bond angles

  1-2-3  107.87621325   2-3-4  107.79904962   2-3-6  111.02105480   2-3-7  111.02105480

  3-4-5  110.64605443   3-4-8  110.36936729   3-4-9  110.36936729   4-3-6  109.90272099

  4-3-7  109.90272099   5-4-8  108.60711935   5-4-9  108.60711935   6-3-7  107.20315121

  8-4-9  108.17296435

 NUCLEAR CHARGE:                   26
 NUMBER OF PRIMITIVE AOS:          63
 NUMBER OF SYMMETRY AOS:           63
 NUMBER OF CONTRACTIONS:           21   (  21A   )
 NUMBER OF CORE ORBITALS:           3   (   3A   )
 NUMBER OF VALENCE ORBITALS:       18   (  18A   )


 NUCLEAR REPULSION ENERGY   81.60955194


 Eigenvalues of metric

         1 0.212E+00 0.263E+00 0.352E+00 0.355E+00 0.377E+00 0.393E+00 0.407E+00 0.473E+00


 Contracted 2-electron integrals neglected if value below      1.0D-11
 AO integral compression algorithm  1   Integral accuracy      1.0D-11

     0.262 MB (compressed) written to integral file (100.0%)


 NUMBER OF SORTED TWO-ELECTRON INTEGRALS:      26796.     BUFFER LENGTH:  32768
 NUMBER OF SEGMENTS:   1  SEGMENT LENGTH:      26796      RECORD LENGTH: 524288

 Memory used in sort:       0.58 MW

 SORT1 READ       32379. AND WROTE       21718. INTEGRALS IN      1 RECORDS. CPU TIME:     0.00 SEC, REAL TIME:     0.00 SEC
 SORT2 READ       21718. AND WROTE       26796. INTEGRALS IN      1 RECORDS. CPU TIME:     0.01 SEC, REAL TIME:     0.01 SEC

 FILE SIZES:   FILE 1:    30.4 MBYTE,  FILE 4:     4.2 MBYTE,   TOTAL:     34.6 MBYTE

 OPERATOR DM      FOR CENTER  0  COORDINATES:    0.000000    0.000000    0.000000


 **********************************************************************************************************************************
 DATASETS  * FILE   NREC   LENGTH (MB)   RECORD NAMES
              1      19       30.21       500      610      700      900      950      970     1000      129      960     1100   
                                          VAR    BASINP    GEOM    SYMINP    ZMAT    AOBASIS   BASIS     P2S    ABASIS      S 
                                         1400     1410     1200     1210     1080     1600     1650     1300     1700   
                                           T        V       H0       H01     AOSYM     SMH    MOLCAS    ERIS     OPER   

 PROGRAMS   *        TOTAL       INT
 CPU TIMES  *         0.38      0.25
 REAL TIME  *         0.81 SEC
 DISK USED  *        34.99 MB      
 **********************************************************************************************************************************

 Density functional group PW91=PW91X+PW91C
 Functional: PW91X(Automatically generated (new) PW91X)                        Gradient terms: 1
 Functional: PW91C(Automatically generated (new) PW91C)                        Gradient terms: 1
 Use grid at  1800.2

 Functional: PW91X                     Factor:  1.0000
 Functional: PW91C                     Factor:  1.0000

 Generated new metagrid on record  1800.2 with target accuracy 1.0D-06 and 30796 points in CPU time    0.7
 Computed new grid on record 1800.1 in CPU time    0.8
   20895 words reserved for DFT integration

 PROGRAM * UKS-SCF (Unrestricted Kohn-Sham)     Authors: W. Meyer, H.-J. Werner, P.J. Knowles, 1993

 NUMBER OF ELECTRONS:      13+   13-    SPACE SYMMETRY=1    SPIN SYMMETRY: Singlet 
 CONVERGENCE THRESHOLDS:    1.00E-05 (Density)    1.00E-06 (Energy)
 MAX. NUMBER OF ITERATIONS:       60
 INTERPOLATION TYPE:            DIIS
 INTERPOLATION STEPS:              2 (START)      1 (STEP)
 LEVEL SHIFTS:                 -0.20 (ALPHA)  -0.20 (BETA) 



 Use fine grid record 1800.2 for energy threshold  1.0D-06
 Orbital guess generated from atomic densities. Full valence occupancy:   13

 Molecular orbital dump at record        2200.2

 Initial alpha occupation  13
 Initial beta  occupation  13

 ITERATION    DDIFF          GRAD             ENERGY        2-EL.EN.            DIPOLE MOMENTS         DIIS
    1      0.000D+00      0.000D+00      -152.77777221    322.473028   -0.59455    1.02376    0.00000    0
    2      0.719D-01      0.230D-01      -152.94155621    312.683075   -0.23853    0.25185    0.00000    1
    3      0.121D-01      0.518D-02      -152.94883569    314.178489   -0.30370    0.38194   -0.00000    2
    4      0.167D-02      0.530D-03      -152.94894999    314.169798   -0.30192    0.37959   -0.00000    3
    5      0.738D-03      0.193D-03      -152.94896937    314.163028   -0.30275    0.38054   -0.00000    4
    6      0.240D-03      0.444D-04      -152.94897088    314.162847   -0.30286    0.37919   -0.00000    5
    7      0.502D-04      0.167D-04      -152.94897098    314.163136   -0.30292    0.37978   -0.00000    6
    8      0.129D-04      0.384D-05      -152.94897099    314.163116   -0.30287    0.37967   -0.00000    6
    9      0.189D-05      0.342D-06      -152.94897099    314.163134   -0.30287    0.37967   -0.00000    6
   10      0.219D-06      0.391D-07      -152.94897099    314.163129   -0.30287    0.37967   -0.00000    5

 Final alpha occupancy:  13
 Final beta  occupancy:  13

 !UKS STATE 1.1 Energy               -152.948970985747
 Nuclear energy                        81.60955194
 One-electron energy                 -369.94796493
 Two-electron energy                  157.08156447
 Density functional                   -21.69212246     PW91X=-20.76461947 PW91C= -0.92750299
 Virial quotient                       -1.01450554
 !UKS STATE 1.1 Dipole moment          -0.30286863     0.37967080    -0.00000000
 Dipole moment /Debye                  -0.76976486     0.96496370    -0.00000000

 Orbital energies for positive spin:

         1.1          2.1          3.1          4.1          5.1          6.1          7.1          8.1          9.1         10.1
    -18.491352    -9.768003    -9.723098    -0.859957    -0.635412    -0.506441    -0.397830    -0.370299    -0.300088    -0.286715

        11.1         12.1         13.1         14.1         15.1
     -0.274489    -0.159244    -0.070091     0.267300     0.354533

 Orbital energies for negative spin:

         1.1          2.1          3.1          4.1          5.1          6.1          7.1          8.1          9.1         10.1
    -18.491352    -9.768003    -9.723098    -0.859957    -0.635412    -0.506441    -0.397830    -0.370299    -0.300088    -0.286715

        11.1         12.1         13.1         14.1         15.1
     -0.274489    -0.159244    -0.070091     0.267300     0.354533

 HOMO     13.1    -0.070091 =      -1.9073eV
 LUMO     14.1     0.267300 =       7.2736eV
 LUMO-HOMO         0.337391 =       9.1809eV

 EXPECTATION VALUE OF S**2:             0.00000000

 Natural orbitals saved to record    2200.2 (Orbital set 3)

 Orbital spaces for UNO-CAS (Min. occupation: 0.020  Max. occupation: 1.980):

 Closed:       13
 Active:        0


 **********************************************************************************************************************************
 DATASETS  * FILE   NREC   LENGTH (MB)   RECORD NAMES
              1      20       31.20       500      610      700      900      950      970     1000      129      960     1100   
                                          VAR    BASINP    GEOM    SYMINP    ZMAT    AOBASIS   BASIS     P2S    ABASIS      S 
                                         1400     1410     1200     1210     1080     1600     1650     1300     1700     1800   
                                           T        V       H0       H01     AOSYM     SMH    MOLCAS    ERIS     OPER     GRID   

              2       5        2.91       700     1000      520     1800     2200   
                                         GEOM     BASIS   MCVARS    GRID      UKS  

 PROGRAMS   *        TOTAL       UKS       INT
 CPU TIMES  *         2.81      2.43      0.25
 REAL TIME  *         3.39 SEC
 DISK USED  *        34.99 MB      
 **********************************************************************************************************************************


 PROGRAM * Intrinsic Basis Bonding Analysis (IBBA)          Author: G. Knizia

 Molecular orbitals read from record     2200.2  Type=UKS/ALPHA (state 1.1)
 Fock matrix read from record            2200.2  Type=UKS/TOTAL (state 1.1)
 Orbital energies read from record       2200.2  Type=UKS/ALPHA (state 1.1)
 Density matrix read from record         2200.2  Type=UKS/CHARGE (state 1.1)

 Number of core orbitals:           3 (   3 )
 Number of closed-shell orbitals:  10 (  10 )

 Basis set MINAO-AUTO-PP generated.      Number of basis functions:   21 

 Polarized AO type:                A = (O Ot + (1-O)(1-Ot)) P12
 Orthogonalization method:         Symmetric (Loewdin)
 Localization functional:          L = sum[A,i] <i|n_A|i>^4 -> max

 Localization group 1:  13 orbitals, occupancy  2.000
 Iterative localization: IB/PM,    7 iter; Final gradient 0.17E-09

 Bond order analysis:       [THRPRINT= 0.020]

   CEN ATOM   CEN ATOM     WIBERG.BO      RENORM.BO
     1   H  -   2   O       0.926968       0.984887

     2   O  -   3   C       1.027886       1.013275
     2   O  -   1   H       0.926968       0.984887
     2   O  -   7   H       0.032037       0.018649
     2   O  -   6   H       0.032037       0.018649

     3   C  -   2   O       1.027886       1.013275
     3   C  -   4   C       1.016173       1.006208
     3   C  -   6   H       0.940271       0.930907
     3   C  -   7   H       0.940271       0.930907

     4   C  -   3   C       1.016173       1.006208
     4   C  -   5   H       0.963514       0.991077
     4   C  -   8   H       0.961176       0.985910
     4   C  -   9   H       0.961176       0.985910

     5   H  -   4   C       0.963514       0.991077

     6   H  -   3   C       0.940271       0.930907
     6   H  -   2   O       0.032037       0.018649

     7   H  -   3   C       0.940271       0.930907
     7   H  -   2   O       0.032037       0.018649

     8   H  -   4   C       0.961176       0.985910

     9   H  -   4   C       0.961176       0.985910


 Valency analysis:

   CEN ATOM   TOT.VALENCE
     1   H       0.943429
     2   O       2.042366
     3   C       3.929216
     4   C       3.929231
     5   H       0.980812
     6   H       0.987520
     7   H       0.987520
     8   H       0.980267
     9   H       0.980267

 Total charge composition:

   CEN ATOM         s          p       ELECTRONS ->P.CHARGE
     1   H       0.76215                 0.76215    0.23785
     2   O       3.67663    4.65572      8.33235   -0.33235
     3   C       2.98775    3.15342      6.14117   -0.14117
     4   C       2.99852    3.40871      6.40723   -0.40723
     5   H       0.86148                 0.86148    0.13852
     6   H       0.88829                 0.88829    0.11171
     7   H       0.88829                 0.88829    0.11171
     8   H       0.85952                 0.85952    0.14048
     9   H       0.85952                 0.85952    0.14048

 Total charge composition, AO contributions:

   CEN ATOM SHL      SPHERICAL COMPONENTS
     1   H  1s       0.76215

     2   O  1s       1.99729
     2   O  2s       1.67934
     2   O  2p       1.31616    1.38727    1.95229

     3   C  1s       1.99287
     3   C  2s       0.99487
     3   C  2p       1.04761    0.93183    1.17397

     4   C  1s       1.99199
     4   C  2s       1.00653
     4   C  2p       1.05735    1.17227    1.17909

     5   H  1s       0.86148

     6   H  1s       0.88829

     7   H  1s       0.88829

     8   H  1s       0.85952

     9   H  1s       0.85952

 Summary of localized orbital composition:   [THRPRINT= 0.020]

   ORB  GRP  ORB.ENERGY      CENTERS/CHARGES
     1   1   -18.331939      O  2   2.000
     2   1    -9.667097      C  3   2.000
     3   1    -9.612685      C  4   2.000
     4   1    -0.600253      O  2   1.234   H  1   0.755
     5   1    -0.570856      O  2   1.159   C  3   0.836
     6   1    -0.480363      C  3   1.002   C  4   0.987
     7   1    -0.426535      C  3   1.128   H  7   0.865
     8   1    -0.426535      C  3   1.128   H  6   0.865
     9   1    -0.414011      C  4   1.133   H  5   0.855
    10   1    -0.411226      O  2   1.985
    11   1    -0.407303      C  4   1.137   H  9   0.853
    12   1    -0.407303      C  4   1.137   H  8   0.853
    13   1    -0.086913      O  2   1.952   (other: 0.048)

 Localized orbitals saved to record      2200.2  (orbital set 4)


 **********************************************************************************************************************************
 DATASETS  * FILE   NREC   LENGTH (MB)   RECORD NAMES
              1      20       31.20       500      610      700      900      950      970     1000      129      960     1100   
                                          VAR    BASINP    GEOM    SYMINP    ZMAT    AOBASIS   BASIS     P2S    ABASIS      S 
                                         1400     1410     1200     1210     1080     1600     1650     1300     1700     1800   
                                           T        V       H0       H01     AOSYM     SMH    MOLCAS    ERIS     OPER     GRID   

              2       5        2.92       700     1000      520     1800     2200   
                                         GEOM     BASIS   MCVARS    GRID      UKS  

 PROGRAMS   *        TOTAL      IBBA       UKS       INT
 CPU TIMES  *         2.84      0.02      2.43      0.25
 REAL TIME  *         3.48 SEC
 DISK USED  *        34.99 MB      
 **********************************************************************************************************************************
 Molecular orbitals read from record     2200.2  Type=UKS/LOCAL(IBO)  
 Occupation numbers read from record     2200.2  Type=UKS/LOCAL(IBO)  
 Orbital energies read from record       2200.2  Type=UKS/LOCAL(IBO)  
 Redundancy group numbers read from rec  2200.2  Type=UKS/BETA (state 1.1)

 IBBA/STO-3G energy=      0.000000000000

        UKS-SCF 
   -152.94897099
 **********************************************************************************************************************************
 Molpro calculation terminated
