
 Primary working directories    : /tmp/sb13343
 Secondary working directories  : /tmp/sb13343
 Wavefunction directory         : /panfs/panasas01/chem/sb13343/wfu/
 Main file repository           : /tmp/sb13343/

 SHA1      : b4a5b34a9e711420743f49e6833241d17c61fb3c
 NAME      : 2099.9.b4a5b34
 ARCHNAME  : linux/x86_64_openmp
 FC        : /cm/shared/languages/GCC-6.1/bin/gfortran
 BLASLIB   : -lblas
 id        : simonbennie

 Nodes     nprocs
 node32-034    1

 Using customized tuning parameters: mindgm=1; mindgv=20; mindgc=4; mindgr=1; noblas=0; minvec=7
 default implementation of scratch files=df  

 memory,500,m
 geomtyp=xyz
 nosym
 noorient
 geometry={
 H         -1.81763       -0.80620        0.00000
 O         -0.85078       -0.87151        0.00000
 C         -0.32298        0.45206        0.00000
 C          1.19308        0.34760        0.00000
 H          1.64898        1.34394        0.00000
 H         -0.66062        1.01252       -0.88753
 H         -0.66062        1.01252        0.88753
 H          1.53777       -0.19434       -0.88682
 H          1.53777       -0.19434        0.88682
 }
 basis={ default,svp }
 {uks,SOGGA11,direct;wf,26,1,0}
 {ibba,bonds=1}

 Variables initialized (895), CPU time= 0.00 sec
 Commands  initialized (725), CPU time= 0.02 sec, 591 directives.
 Default parameters read. Elapsed time= 0.08 sec

 Checking input...
 Passed
1


                                         ***  PROGRAM SYSTEM MOLPRO  ***
                                       Copyright, TTI GmbH Stuttgart, 2015
                                    Version 2099.9 linked May 26 2017 16:03:21


 **********************************************************************************************************************************
 LABEL *                                                                                 
  64 bit serial version                                                                  DATE: 08-Jun-17          TIME: 12:07:11  
 **********************************************************************************************************************************

 SHA1:             b4a5b34a9e711420743f49e6833241d17c61fb3c
 **********************************************************************************************************************************
 SETTING GEOMTYP        =    XYZ

 Variable memory set to  500000000 words,  buffer space 

 ZSYMEL=NOSYM

 SETTING BASIS          =    SVP


 Recomputing integrals since basis changed


 Using spherical harmonics

 Library entry H      S def2-SVP             selected for orbital group  1
 Library entry H      P def2-SVP             selected for orbital group  1
 Library entry O      S def2-SVP             selected for orbital group  2
 Library entry O      P def2-SVP             selected for orbital group  2
 Library entry O      D def2-SVP             selected for orbital group  2
 Library entry C      S def2-SVP             selected for orbital group  3
 Library entry C      P def2-SVP             selected for orbital group  3
 Library entry C      D def2-SVP             selected for orbital group  3


 PROGRAM * SEWARD (Integral evaluation for generally contracted gaussian basis sets)     Author: Roland Lindh, 1990

 Geometry written to block  1 of record 700


 Point group  C1  



 ATOMIC COORDINATES

 NR  ATOM    CHARGE       X              Y              Z

   1  H       1.00   -3.434822896   -1.523497202    0.000000000
   2  O       8.00   -1.607741192   -1.646915215    0.000000000
   3  C       6.00   -0.610343744    0.854269592    0.000000000
   4  C       6.00    2.254594445    0.656868801    0.000000000
   5  H       1.00    3.116120585    2.539678528    0.000000000
   6  H       1.00   -1.248390872    1.913385496   -1.677188627
   7  H       1.00   -1.248390872    1.913385496    1.677188627
   8  H       1.00    2.905964143   -0.367249375   -1.675846922
   9  H       1.00    2.905964143   -0.367249375    1.675846922

 Bond lengths in Bohr (Angstrom)

 1-2  1.831245357  2-3  2.692717421  3-4  2.871730819  3-6  2.083696794  3-7  2.083696794
     ( 0.969053311)     ( 1.424924694)     ( 1.519654505)     ( 1.102644858)     ( 1.102644858)

 4-5  2.070555423  4-8  2.069193908  4-9  2.069193908
     ( 1.095690744)     ( 1.094970261)     ( 1.094970261)

 Bond angles

  1-2-3  107.87621325   2-3-4  107.79904962   2-3-6  111.02105480   2-3-7  111.02105480

  3-4-5  110.64605443   3-4-8  110.36936729   3-4-9  110.36936729   4-3-6  109.90272099

  4-3-7  109.90272099   5-4-8  108.60711935   5-4-9  108.60711935   6-3-7  107.20315121

  8-4-9  108.17296435

 NUCLEAR CHARGE:                   26
 NUMBER OF PRIMITIVE AOS:         117
 NUMBER OF SYMMETRY AOS:          114
 NUMBER OF CONTRACTIONS:           72   (  72A   )
 NUMBER OF CORE ORBITALS:           3   (   3A   )
 NUMBER OF VALENCE ORBITALS:       18   (  18A   )


 NUCLEAR REPULSION ENERGY   81.60955194


 Eigenvalues of metric

         1 0.375E-02 0.159E-01 0.292E-01 0.324E-01 0.398E-01 0.436E-01 0.556E-01 0.658E-01


 Contracted 2-electron integrals neglected if value below      1.0D-11
 AO integral compression algorithm  1   Integral accuracy      1.0D-11

     14.418 MB (compressed) written to integral file ( 45.7%)


 NUMBER OF SORTED TWO-ELECTRON INTEGRALS:    3454506.     BUFFER LENGTH:  32768
 NUMBER OF SEGMENTS:   1  SEGMENT LENGTH:    3454506      RECORD LENGTH: 524288

 Memory used in sort:       4.01 MW

 SORT1 READ     3945093. AND WROTE     2928993. INTEGRALS IN      9 RECORDS. CPU TIME:     0.05 SEC, REAL TIME:     0.09 SEC
 SORT2 READ     2928993. AND WROTE     3454506. INTEGRALS IN     55 RECORDS. CPU TIME:     0.11 SEC, REAL TIME:     0.14 SEC

 FILE SIZES:   FILE 1:    44.7 MBYTE,  FILE 4:    37.8 MBYTE,   TOTAL:     82.5 MBYTE

 OPERATOR DM      FOR CENTER  0  COORDINATES:    0.000000    0.000000    0.000000


 **********************************************************************************************************************************
 DATASETS  * FILE   NREC   LENGTH (MB)   RECORD NAMES
              1      19       42.60       500      610      700      900      950      970     1000      129      960     1100   
                                          VAR    BASINP    GEOM    SYMINP    ZMAT    AOBASIS   BASIS     P2S    ABASIS      S 
                                         1400     1410     1200     1210     1080     1600     1650     1300     1700   
                                           T        V       H0       H01     AOSYM     SMH    MOLCAS    ERIS     OPER   

 PROGRAMS   *        TOTAL       INT
 CPU TIMES  *         0.86      0.72
 REAL TIME  *         1.27 SEC
 DISK USED  *        82.90 MB      
 **********************************************************************************************************************************

 Density functional group SOGGA11=XC-SOGGA11
 Functional: XC-SOGGA11(via MFM 1.6)                                           Gradient terms: 1
 Use grid at  1800.2

 Functional: XC-SOGGA11                Factor:  1.0000

 Generated new metagrid on record  1800.2 with target accuracy 1.0D-06 and 30796 points in CPU time    0.7
 Computed new grid on record 1800.1 in CPU time    0.7
   61197 words reserved for DFT integration

 PROGRAM * UKS-SCF (Unrestricted Kohn-Sham)     Authors: W. Meyer, H.-J. Werner, P.J. Knowles, 1993

 NUMBER OF ELECTRONS:      13+   13-    SPACE SYMMETRY=1    SPIN SYMMETRY: Singlet 
 CONVERGENCE THRESHOLDS:    1.00E-05 (Density)    1.00E-06 (Energy)
 MAX. NUMBER OF ITERATIONS:       60
 INTERPOLATION TYPE:            DIIS
 INTERPOLATION STEPS:              2 (START)      1 (STEP)
 LEVEL SHIFTS:                 -0.20 (ALPHA)  -0.20 (BETA) 



 Use fine grid record 1800.2 for energy threshold  1.0D-06
 Orbital guess generated from atomic densities. Full valence occupancy:   13

 Molecular orbital dump at record        2200.2

 Initial alpha occupation  13
 Initial beta  occupation  13

 ITERATION    DDIFF          GRAD             ENERGY        2-EL.EN.            DIPOLE MOMENTS         DIIS
    1      0.000D+00      0.000D+00      -154.74141309    324.604735   -0.58758    0.86867   -0.00000    0
    2      0.188D-01      0.846D-02      -154.86707239    308.852072   -0.26543    0.31640   -0.00000    1
    3      0.695D-02      0.519D-02      -154.91980025    314.016737   -0.38170    0.53999    0.00000    2
    4      0.167D-02      0.734D-03      -154.92117476    313.911894   -0.38409    0.48920    0.00000    3
    5      0.180D-02      0.309D-03      -154.92178344    313.837552   -0.39182    0.46979    0.00000    4
    6      0.181D-02      0.148D-03      -154.92201388    313.742661   -0.40461    0.44312    0.00000    5
    7      0.556D-03      0.416D-04      -154.92203105    313.714353   -0.40543    0.43513    0.00000    6
    8      0.144D-03      0.173D-04      -154.92203263    313.715560   -0.40522    0.43317    0.00000    7
    9      0.566D-04      0.615D-05      -154.92203290    313.713126   -0.40512    0.43224    0.00000    8
   10      0.280D-04      0.274D-05      -154.92203295    313.712616   -0.40460    0.43176    0.00000    7
   11      0.144D-04      0.975D-06      -154.92203296    313.713413   -0.40441    0.43162    0.00000    8
   12      0.230D-05      0.357D-06      -154.92203296    313.713029   -0.40436    0.43159    0.00000    8
   13      0.732D-06      0.959D-07      -154.92203296    313.713111   -0.40435    0.43159    0.00000    8

 Final alpha occupancy:  13
 Final beta  occupancy:  13

 !UKS STATE 1.1 Energy               -154.922032959293
 Nuclear energy                        81.60955194
 One-electron energy                 -371.68644034
 Two-electron energy                  156.85655554
 Density functional                   -21.70170010     XC-SOGGA11=-21.70170010
 Virial quotient                       -1.00971382
 !UKS STATE 1.1 Dipole moment          -0.40434931     0.43158630     0.00000000
 Dipole moment /Debye                  -1.02768612     1.09691112     0.00000000

 Orbital energies for positive spin:

         1.1          2.1          3.1          4.1          5.1          6.1          7.1          8.1          9.1         10.1
    -18.741443    -9.945873    -9.893340    -0.896013    -0.660486    -0.533128    -0.454001    -0.405475    -0.346135    -0.331882

        11.1         12.1         13.1         14.1         15.1
     -0.311429    -0.272020    -0.204728     0.052211     0.080457

 Orbital energies for negative spin:

         1.1          2.1          3.1          4.1          5.1          6.1          7.1          8.1          9.1         10.1
    -18.741443    -9.945873    -9.893340    -0.896013    -0.660486    -0.533128    -0.454000    -0.405475    -0.346135    -0.331882

        11.1         12.1         13.1         14.1         15.1
     -0.311429    -0.272020    -0.204728     0.052208     0.080457

 HOMO     13.1    -0.204728 =      -5.5709eV
 LUMO    -14.1     0.052208 =       1.4206eV
 LUMO-HOMO         0.256935 =       6.9916eV

 EXPECTATION VALUE OF S**2:             0.00000000

 Occupation number threshold for canonical orbitals:  1.999000 (occupied),  0.001000 (virtual)

 Number of pseudo-canonical orbitals per symmetry:   13
 Number of active natural orbitals per symmetry:      0

 Natural orbitals saved to record    2200.2 (Orbital set 3)

 Orbital spaces for UNO-CAS (Min. occupation: 0.020  Max. occupation: 1.980):

 Closed:       13
 Active:        0


 **********************************************************************************************************************************
 DATASETS  * FILE   NREC   LENGTH (MB)   RECORD NAMES
              1      20       43.59       500      610      700      900      950      970     1000      129      960     1100   
                                          VAR    BASINP    GEOM    SYMINP    ZMAT    AOBASIS   BASIS     P2S    ABASIS      S 
                                         1400     1410     1200     1210     1080     1600     1650     1300     1700     1800   
                                           T        V       H0       H01     AOSYM     SMH    MOLCAS    ERIS     OPER     GRID   

              2       5        3.11       700     1000      520     1800     2200   
                                         GEOM     BASIS   MCVARS    GRID      UKS  

 PROGRAMS   *        TOTAL       UKS       INT
 CPU TIMES  *         9.24      8.37      0.72
 REAL TIME  *        10.19 SEC
 DISK USED  *        82.90 MB      
 **********************************************************************************************************************************


 PROGRAM * Intrinsic Basis Bonding Analysis (IBBA)          Author: G. Knizia

 Molecular orbitals read from record     2200.2  Type=UKS/ALPHA (state 1.1)
 Fock matrix read from record            2200.2  Type=UKS/TOTAL (state 1.1)
 Orbital energies read from record       2200.2  Type=UKS/ALPHA (state 1.1)
 Density matrix read from record         2200.2  Type=UKS/CHARGE (state 1.1)

 Number of core orbitals:           3 (   3 )
 Number of closed-shell orbitals:  10 (  10 )

 Basis set MINAO-AUTO-PP generated.      Number of basis functions:   21 

 Polarized AO type:                A = (O Ot + (1-O)(1-Ot)) P12
 Orthogonalization method:         Symmetric (Loewdin)
 Localization functional:          L = sum[A,i] <i|n_A|i>^4 -> max

 Localization group 1:  13 orbitals, occupancy  2.000
 Iterative localization: IB/PM,    7 iter; Final gradient 0.18E-09

 Bond order analysis:       [THRPRINT= 0.020]

   CEN ATOM   CEN ATOM     WIBERG.BO      RENORM.BO
     1   H  -   2   O       0.865273       0.986984

     2   O  -   3   C       0.984600       0.998393
     2   O  -   1   H       0.865273       0.986984
     2   O  -   7   H       0.030108       0.017615
     2   O  -   6   H       0.030108       0.017615

     3   C  -   4   C       1.027675       1.015111
     3   C  -   2   O       0.984600       0.998393
     3   C  -   6   H       0.938297       0.931457
     3   C  -   7   H       0.938297       0.931457

     4   C  -   3   C       1.027675       1.015111
     4   C  -   5   H       0.958206       0.988759
     4   C  -   8   H       0.954003       0.980051
     4   C  -   9   H       0.954003       0.980051

     5   H  -   4   C       0.958206       0.988759

     6   H  -   3   C       0.938297       0.931457
     6   H  -   2   O       0.030108       0.017615

     7   H  -   3   C       0.938297       0.931457
     7   H  -   2   O       0.030108       0.017615

     8   H  -   4   C       0.954003       0.980051

     9   H  -   4   C       0.954003       0.980051


 Valency analysis:

   CEN ATOM   TOT.VALENCE
     1   H       0.878603
     2   O       1.945768
     3   C       3.895339
     4   C       3.925035
     5   H       0.979287
     6   H       0.986375
     7   H       0.986375
     8   H       0.977133
     9   H       0.977133

 Total charge composition:

   CEN ATOM         s          p       ELECTRONS ->P.CHARGE
     1   H       0.65158                 0.65158    0.34842
     2   O       3.62078    4.91137      8.53215   -0.53215
     3   C       2.97966    3.07934      6.05901   -0.05901
     4   C       3.01826    3.41881      6.43707   -0.43707
     5   H       0.85608                 0.85608    0.14392
     6   H       0.88328                 0.88328    0.11672
     7   H       0.88328                 0.88328    0.11672
     8   H       0.84878                 0.84878    0.15122
     9   H       0.84878                 0.84878    0.15122

 Total charge composition, AO contributions:

   CEN ATOM SHL      SPHERICAL COMPONENTS
     1   H  1s       0.65158

     2   O  1s       1.99717
     2   O  2s       1.62361
     2   O  2p       1.44016    1.51449    1.95671

     3   C  1s       1.99243
     3   C  2s       0.98723
     3   C  2p       1.03363    0.87346    1.17225

     4   C  1s       1.99145
     4   C  2s       1.02681
     4   C  2p       1.05554    1.17499    1.18828

     5   H  1s       0.85608

     6   H  1s       0.88328

     7   H  1s       0.88328

     8   H  1s       0.84878

     9   H  1s       0.84878

 Summary of localized orbital composition:   [THRPRINT= 0.020]

   ORB  GRP  ORB.ENERGY      CENTERS/CHARGES
     1   1   -18.602228      O  2   2.000
     2   1    -9.845585      C  3   2.000
     3   1    -9.781746      C  4   2.000
     4   1    -0.680060      O  2   1.345   H  1   0.645
     5   1    -0.661397      O  2   1.251   C  3   0.744
     6   1    -0.522548      C  3   1.001   C  4   0.991
     7   1    -0.455892      C  3   1.130   H  7   0.861
     8   1    -0.455892      C  3   1.130   H  6   0.861
     9   1    -0.450923      O  2   1.978   (other: 0.022)
    10   1    -0.441032      C  4   1.135   H  5   0.849
    11   1    -0.434664      C  4   1.148   H  8   0.841
    12   1    -0.434664      C  4   1.148   H  9   0.841
    13   1    -0.229316      O  2   1.957   (other: 0.043)

 Localized orbitals saved to record      2200.2  (orbital set 4)


 **********************************************************************************************************************************
 DATASETS  * FILE   NREC   LENGTH (MB)   RECORD NAMES
              1      20       43.59       500      610      700      900      950      970     1000      129      960     1100   
                                          VAR    BASINP    GEOM    SYMINP    ZMAT    AOBASIS   BASIS     P2S    ABASIS      S 
                                         1400     1410     1200     1210     1080     1600     1650     1300     1700     1800   
                                           T        V       H0       H01     AOSYM     SMH    MOLCAS    ERIS     OPER     GRID   

              2       5        3.15       700     1000      520     1800     2200   
                                         GEOM     BASIS   MCVARS    GRID      UKS  

 PROGRAMS   *        TOTAL      IBBA       UKS       INT
 CPU TIMES  *         9.27      0.03      8.37      0.72
 REAL TIME  *        10.29 SEC
 DISK USED  *        82.90 MB      
 **********************************************************************************************************************************
 Molecular orbitals read from record     2200.2  Type=UKS/LOCAL(IBO)  
 Occupation numbers read from record     2200.2  Type=UKS/LOCAL(IBO)  
 Orbital energies read from record       2200.2  Type=UKS/LOCAL(IBO)  
 Redundancy group numbers read from rec  2200.2  Type=UKS/BETA (state 1.1)

 IBBA/SVP energy=      0.000000000000

        UKS-SCF 
   -154.92203296
 **********************************************************************************************************************************
 Molpro calculation terminated
