
 Primary working directories    : /tmp/sb13343
 Secondary working directories  : /tmp/sb13343
 Wavefunction directory         : /panfs/panasas01/chem/sb13343/wfu/
 Main file repository           : /tmp/sb13343/

 SHA1      : b4a5b34a9e711420743f49e6833241d17c61fb3c
 NAME      : 2099.9.b4a5b34
 ARCHNAME  : linux/x86_64_openmp
 FC        : /cm/shared/languages/GCC-6.1/bin/gfortran
 BLASLIB   : -lblas
 id        : simonbennie

 Nodes     nprocs
 node32-034    1

 Using customized tuning parameters: mindgm=1; mindgv=20; mindgc=4; mindgr=1; noblas=0; minvec=7
 default implementation of scratch files=df  

 memory,500,m
 geomtyp=xyz
 nosym
 noorient
 geometry={
 H         -1.81763       -0.80620        0.00000
 O         -0.85078       -0.87151        0.00000
 C         -0.32298        0.45206        0.00000
 C          1.19308        0.34760        0.00000
 H          1.64898        1.34394        0.00000
 H         -0.66062        1.01252       -0.88753
 H         -0.66062        1.01252        0.88753
 H          1.53777       -0.19434       -0.88682
 H          1.53777       -0.19434        0.88682
 }
 basis={ default,sto-3g }
 {ks,CS,direct;wf,26,1,0}
 {ibba,bonds=1}

 Variables initialized (895), CPU time= 0.01 sec
 Commands  initialized (725), CPU time= 0.01 sec, 591 directives.
 Default parameters read. Elapsed time= 0.07 sec

 Checking input...
 Passed
1


                                         ***  PROGRAM SYSTEM MOLPRO  ***
                                       Copyright, TTI GmbH Stuttgart, 2015
                                    Version 2099.9 linked May 26 2017 16:03:21


 **********************************************************************************************************************************
 LABEL *                                                                                 
  64 bit serial version                                                                  DATE: 08-Jun-17          TIME: 11:30:23  
 **********************************************************************************************************************************

 SHA1:             b4a5b34a9e711420743f49e6833241d17c61fb3c
 **********************************************************************************************************************************
 SETTING GEOMTYP        =    XYZ

 Variable memory set to  500000000 words,  buffer space 

 ZSYMEL=NOSYM

 SETTING BASIS          =    STO-3G


 Recomputing integrals since basis changed


 Using spherical harmonics

 Library entry H      S STO-3G               selected for orbital group  1
 Library entry O      S STO-3G               selected for orbital group  2
 Library entry O      P STO-3G               selected for orbital group  2
 Library entry C      S STO-3G               selected for orbital group  3
 Library entry C      P STO-3G               selected for orbital group  3


 PROGRAM * SEWARD (Integral evaluation for generally contracted gaussian basis sets)     Author: Roland Lindh, 1990

 Geometry written to block  1 of record 700


 Point group  C1  



 ATOMIC COORDINATES

 NR  ATOM    CHARGE       X              Y              Z

   1  H       1.00   -3.434822896   -1.523497202    0.000000000
   2  O       8.00   -1.607741192   -1.646915215    0.000000000
   3  C       6.00   -0.610343744    0.854269592    0.000000000
   4  C       6.00    2.254594445    0.656868801    0.000000000
   5  H       1.00    3.116120585    2.539678528    0.000000000
   6  H       1.00   -1.248390872    1.913385496   -1.677188627
   7  H       1.00   -1.248390872    1.913385496    1.677188627
   8  H       1.00    2.905964143   -0.367249375   -1.675846922
   9  H       1.00    2.905964143   -0.367249375    1.675846922

 Bond lengths in Bohr (Angstrom)

 1-2  1.831245357  2-3  2.692717421  3-4  2.871730819  3-6  2.083696794  3-7  2.083696794
     ( 0.969053311)     ( 1.424924694)     ( 1.519654505)     ( 1.102644858)     ( 1.102644858)

 4-5  2.070555423  4-8  2.069193908  4-9  2.069193908
     ( 1.095690744)     ( 1.094970261)     ( 1.094970261)

 Bond angles

  1-2-3  107.87621325   2-3-4  107.79904962   2-3-6  111.02105480   2-3-7  111.02105480

  3-4-5  110.64605443   3-4-8  110.36936729   3-4-9  110.36936729   4-3-6  109.90272099

  4-3-7  109.90272099   5-4-8  108.60711935   5-4-9  108.60711935   6-3-7  107.20315121

  8-4-9  108.17296435

 NUCLEAR CHARGE:                   26
 NUMBER OF PRIMITIVE AOS:          63
 NUMBER OF SYMMETRY AOS:           63
 NUMBER OF CONTRACTIONS:           21   (  21A   )
 NUMBER OF CORE ORBITALS:           3   (   3A   )
 NUMBER OF VALENCE ORBITALS:       18   (  18A   )


 NUCLEAR REPULSION ENERGY   81.60955194


 Eigenvalues of metric

         1 0.212E+00 0.263E+00 0.352E+00 0.355E+00 0.377E+00 0.393E+00 0.407E+00 0.473E+00


 Contracted 2-electron integrals neglected if value below      1.0D-11
 AO integral compression algorithm  1   Integral accuracy      1.0D-11

     0.262 MB (compressed) written to integral file (100.0%)


 NUMBER OF SORTED TWO-ELECTRON INTEGRALS:      26796.     BUFFER LENGTH:  32768
 NUMBER OF SEGMENTS:   1  SEGMENT LENGTH:      26796      RECORD LENGTH: 524288

 Memory used in sort:       0.58 MW

 SORT1 READ       32379. AND WROTE       21718. INTEGRALS IN      1 RECORDS. CPU TIME:     0.01 SEC, REAL TIME:     0.01 SEC
 SORT2 READ       21718. AND WROTE       26796. INTEGRALS IN      1 RECORDS. CPU TIME:     0.00 SEC, REAL TIME:     0.01 SEC

 FILE SIZES:   FILE 1:    30.4 MBYTE,  FILE 4:     4.2 MBYTE,   TOTAL:     34.6 MBYTE

 OPERATOR DM      FOR CENTER  0  COORDINATES:    0.000000    0.000000    0.000000


 **********************************************************************************************************************************
 DATASETS  * FILE   NREC   LENGTH (MB)   RECORD NAMES
              1      19       30.21       500      610      700      900      950      970     1000      129      960     1100   
                                          VAR    BASINP    GEOM    SYMINP    ZMAT    AOBASIS   BASIS     P2S    ABASIS      S 
                                         1400     1410     1200     1210     1080     1600     1650     1300     1700   
                                           T        V       H0       H01     AOSYM     SMH    MOLCAS    ERIS     OPER   

 PROGRAMS   *        TOTAL       INT
 CPU TIMES  *         0.37      0.23
 REAL TIME  *         0.66 SEC
 DISK USED  *        34.99 MB      
 **********************************************************************************************************************************

 Density functional group CS=CS1
 Functional: CS1(Colle-Salvetti (Gradient form))                               Gradient terms: 1
 Use grid at  1800.2

 Functional: CS1                       Factor:  1.0000

 Generated new metagrid on record  1800.2 with target accuracy 1.0D-06 and 30796 points in CPU time    0.7
 Computed new grid on record 1800.1 in CPU time    0.7
   20895 words reserved for DFT integration

 PROGRAM * RKS-SCF (Restricted closed shell Kohn-Sham)     Authors: W. Meyer, H.-J. Werner, P.J. Knowles, 1993

 NUMBER OF ELECTRONS:      13+   13-    SPACE SYMMETRY=1    SPIN SYMMETRY: Singlet 
 CONVERGENCE THRESHOLDS:    1.00E-05 (Density)    1.00E-06 (Energy)
 MAX. NUMBER OF ITERATIONS:       60
 INTERPOLATION TYPE:            DIIS
 INTERPOLATION STEPS:              2 (START)      1 (STEP)
 LEVEL SHIFTS:                  0.00 (CLOSED)  0.00 (OPEN) 



 Use fine grid record 1800.2 for energy threshold  1.0D-06
 Orbital guess generated from atomic densities. Full valence occupancy:   13

 Molecular orbital dump at record        2100.2

 Initial occupancy:  13

 ITERATION    DDIFF          GRAD             ENERGY        2-EL.EN.            DIPOLE MOMENTS         DIIS   ORB.
    1      0.000D+00      0.000D+00      -132.19993138    311.006976   -0.36446   -0.11484   -0.00000    0    start
    2      0.000D+00      0.159D-01      -132.18105319    306.061113   -0.07885    0.00413   -0.00000    1    diag
    3      0.541D-01      0.209D-01      -132.23009481    308.765474   -0.21663   -0.11931   -0.00000    2    diag
    4      0.305D-01      0.155D-02      -132.23024624    308.967534   -0.24595   -0.06313   -0.00000    3    diag
    5      0.407D-02      0.111D-02      -132.23038512    308.815268   -0.23476   -0.09307   -0.00000    4    diag
    6      0.172D-02      0.119D-03      -132.23038672    308.822525   -0.23295   -0.08951   -0.00000    5    diag
    7      0.255D-03      0.484D-04      -132.23038697    308.823502   -0.23315   -0.08939   -0.00000    6    diag
    8      0.733D-04      0.841D-05      -132.23038698    308.822992   -0.23327   -0.08975   -0.00000    7    diag
    9      0.191D-04      0.565D-06      -132.23038698    308.822957   -0.23326   -0.08973   -0.00000    8    diag
   10      0.148D-05      0.733D-07      -132.23038698    308.822954   -0.23326   -0.08974   -0.00000    0    orth

 Final occupancy:  13

 !RKS STATE 1.1 Energy               -132.230386977696
 Nuclear energy                        81.60955194
 One-electron energy                 -367.41599030
 Two-electron energy                  154.41147685
 Density functional                    -0.83542546     CS1=-0.83542546
 Virial quotient                       -0.89257941
 !RKS STATE 1.1 Dipole moment          -0.23326140    -0.08973702    -0.00000000
 Dipole moment /Debye                  -0.59285252    -0.22807383    -0.00000000

 Orbital energies:

         1.1          2.1          3.1          4.1          5.1          6.1          7.1          8.1          9.1         10.1
    -15.765693    -7.678549    -7.671416    -0.288012    -0.122494     0.012153     0.088284     0.098813     0.185344     0.214080

        11.1         12.1         13.1         14.1         15.1
      0.214780     0.431693     0.520644     0.789826     0.847783

 HOMO     13.1     0.520644 =      14.1674eV
 LUMO     14.1     0.789826 =      21.4923eV
 LUMO-HOMO         0.269182 =       7.3248eV


 **********************************************************************************************************************************
 DATASETS  * FILE   NREC   LENGTH (MB)   RECORD NAMES
              1      20       31.20       500      610      700      900      950      970     1000      129      960     1100   
                                          VAR    BASINP    GEOM    SYMINP    ZMAT    AOBASIS   BASIS     P2S    ABASIS      S 
                                         1400     1410     1200     1210     1080     1600     1650     1300     1700     1800   
                                           T        V       H0       H01     AOSYM     SMH    MOLCAS    ERIS     OPER     GRID   

              2       5        2.90       700     1000      520     1800     2100   
                                         GEOM     BASIS   MCVARS    GRID      RKS  

 PROGRAMS   *        TOTAL        KS       INT
 CPU TIMES  *         2.31      1.94      0.23
 REAL TIME  *         2.68 SEC
 DISK USED  *        34.99 MB      
 **********************************************************************************************************************************


 PROGRAM * Intrinsic Basis Bonding Analysis (IBBA)          Author: G. Knizia

 Molecular orbitals read from record     2100.2  Type=RKS/CANONICAL (state 1.1)
 Fock matrix read from record            2100.2  Type=RKS/TOTAL (state 1.1)
 Orbital energies read from record       2100.2  Type=RKS/CANONICAL (state 1.1)
 Density matrix read from record         2100.2  Type=RKS/CHARGE (state 1.1)

 Number of core orbitals:           3 (   3 )
 Number of closed-shell orbitals:  10 (  10 )

 Basis set MINAO-AUTO-PP generated.      Number of basis functions:   21 

 Polarized AO type:                A = (O Ot + (1-O)(1-Ot)) P12
 Orthogonalization method:         Symmetric (Loewdin)
 Localization functional:          L = sum[A,i] <i|n_A|i>^4 -> max

 Localization group 1:  13 orbitals, occupancy  2.000
 Iterative localization: IB/PM,    7 iter; Final gradient 0.56E-09

 Bond order analysis:       [THRPRINT= 0.020]

   CEN ATOM   CEN ATOM     WIBERG.BO      RENORM.BO
     1   H  -   2   O       0.975820       0.982235

     2   O  -   3   C       1.103661       1.045757
     2   O  -   1   H       0.975820       0.982235
     2   O  -   7   H       0.058427       0.031732
     2   O  -   6   H       0.058427       0.031732

     3   C  -   2   O       1.103661       1.045757
     3   C  -   4   C       1.001634       0.996278
     3   C  -   6   H       0.921849       0.885328
     3   C  -   7   H       0.921849       0.885328

     4   C  -   3   C       1.001634       0.996278
     4   C  -   5   H       0.968680       0.987321
     4   C  -   8   H       0.967740       0.982864
     4   C  -   9   H       0.967740       0.982864

     5   H  -   4   C       0.968680       0.987321

     6   H  -   3   C       0.921849       0.885328
     6   H  -   2   O       0.058427       0.031732

     7   H  -   3   C       0.921849       0.885328
     7   H  -   2   O       0.058427       0.031732

     8   H  -   4   C       0.967740       0.982864

     9   H  -   4   C       0.967740       0.982864


 Valency analysis:

   CEN ATOM   TOT.VALENCE
     1   H       0.996104
     2   O       2.231877
     3   C       3.959091
     4   C       3.947081
     5   H       0.995100
     6   H       0.999583
     7   H       0.999583
     8   H       0.995585
     9   H       0.995585

 Total charge composition:

   CEN ATOM         s          p       ELECTRONS ->P.CHARGE
     1   H       0.93758                 0.93758    0.06242
     2   O       3.58758    4.40553      7.99312    0.00688
     3   C       2.89639    3.19965      6.09604   -0.09604
     4   C       2.88191    3.33510      6.21700   -0.21700
     5   H       0.93000                 0.93000    0.07000
     6   H       0.97958                 0.97958    0.02042
     7   H       0.97958                 0.97958    0.02042
     8   H       0.93356                 0.93356    0.06644
     9   H       0.93356                 0.93356    0.06644

 Total charge composition, AO contributions:

   CEN ATOM SHL      SPHERICAL COMPONENTS
     1   H  1s       0.93758

     2   O  1s       1.99890
     2   O  2s       1.58868
     2   O  2p       1.17290    1.33107    1.90156

     3   C  1s       1.99836
     3   C  2s       0.89803
     3   C  2p       1.06358    0.99469    1.14138

     4   C  1s       1.99815
     4   C  2s       0.88376
     4   C  2p       1.08248    1.12735    1.12526

     5   H  1s       0.93000

     6   H  1s       0.97958

     7   H  1s       0.97958

     8   H  1s       0.93356

     9   H  1s       0.93356

 Summary of localized orbital composition:   [THRPRINT= 0.020]

   ORB  GRP  ORB.ENERGY      CENTERS/CHARGES
     1   1   -15.667725      O  2   2.000
     2   1    -7.596027      C  3   2.000
     3   1    -7.591918      C  4   2.000
     4   1    -0.061636      O  2   1.056   H  1   0.932
     5   1    -0.041787      O  2   1.055   C  3   0.938
     6   1     0.034799      C  4   1.002   C  3   0.984
     7   1     0.073184      C  4   1.063   H  9   0.925
     8   1     0.073184      C  4   1.063   H  8   0.925
     9   1     0.073844      C  4   1.067   H  5   0.922
    10   1     0.081089      C  3   1.049   H  7   0.941
    11   1     0.081089      C  3   1.049   H  6   0.941
    12   1     0.277984      O  2   1.974   (other: 0.026)
    13   1     0.503546      O  2   1.902   C  3   0.042   H  6   0.028   H  7   0.028

 Localized orbitals saved to record      2100.2  (orbital set 2)


 **********************************************************************************************************************************
 DATASETS  * FILE   NREC   LENGTH (MB)   RECORD NAMES
              1      20       31.20       500      610      700      900      950      970     1000      129      960     1100   
                                          VAR    BASINP    GEOM    SYMINP    ZMAT    AOBASIS   BASIS     P2S    ABASIS      S 
                                         1400     1410     1200     1210     1080     1600     1650     1300     1700     1800   
                                           T        V       H0       H01     AOSYM     SMH    MOLCAS    ERIS     OPER     GRID   

              2       5        2.90       700     1000      520     1800     2100   
                                         GEOM     BASIS   MCVARS    GRID      RKS  

 PROGRAMS   *        TOTAL      IBBA        KS       INT
 CPU TIMES  *         2.34      0.03      1.94      0.23
 REAL TIME  *         2.76 SEC
 DISK USED  *        34.99 MB      
 **********************************************************************************************************************************
 Molecular orbitals read from record     2100.2  Type=RKS/LOCAL(IBO)  
 Occupation numbers read from record     2100.2  Type=RKS/LOCAL(IBO)  
 Orbital energies read from record       2100.2  Type=RKS/LOCAL(IBO)  
 Redundancy group numbers read from rec  2100.2  Type=RKS/LOCAL(IBO)  

 IBBA/STO-3G energy=      0.000000000000

        KS-SCF  
   -132.23038698
 **********************************************************************************************************************************
 Molpro calculation terminated
