
 Primary working directories    : /tmp/sb13343
 Secondary working directories  : /tmp/sb13343
 Wavefunction directory         : /panfs/panasas01/chem/sb13343/wfu/
 Main file repository           : /tmp/sb13343/

 SHA1      : b4a5b34a9e711420743f49e6833241d17c61fb3c
 NAME      : 2099.9.b4a5b34
 ARCHNAME  : linux/x86_64_openmp
 FC        : /cm/shared/languages/GCC-6.1/bin/gfortran
 BLASLIB   : -lblas
 id        : simonbennie

 Nodes     nprocs
 node32-012    1

 Using customized tuning parameters: mindgm=1; mindgv=20; mindgc=4; mindgr=1; noblas=0; minvec=7
 default implementation of scratch files=df  

 memory,500,m
 geomtyp=xyz
 nosym
 noorient
 geometry={
 H         -1.81763       -0.80620        0.00000
 O         -0.85078       -0.87151        0.00000
 C         -0.32298        0.45206        0.00000
 C          1.19308        0.34760        0.00000
 H          1.64898        1.34394        0.00000
 H         -0.66062        1.01252       -0.88753
 H         -0.66062        1.01252        0.88753
 H          1.53777       -0.19434       -0.88682
 H          1.53777       -0.19434        0.88682
 }
 basis={ default,svp }
 {ks,M08-SO,direct;wf,26,1,0}
 {ibba,bonds=1}

 Variables initialized (895), CPU time= 0.00 sec
 Commands  initialized (725), CPU time= 0.01 sec, 591 directives.
 Default parameters read. Elapsed time= 0.08 sec

 Checking input...
 Passed
1


                                         ***  PROGRAM SYSTEM MOLPRO  ***
                                       Copyright, TTI GmbH Stuttgart, 2015
                                    Version 2099.9 linked May 26 2017 16:03:21


 **********************************************************************************************************************************
 LABEL *                                                                                 
  64 bit serial version                                                                  DATE: 08-Jun-17          TIME: 12:04:31  
 **********************************************************************************************************************************

 SHA1:             b4a5b34a9e711420743f49e6833241d17c61fb3c
 **********************************************************************************************************************************
 SETTING GEOMTYP        =    XYZ

 Variable memory set to  500000000 words,  buffer space 

 ZSYMEL=NOSYM

 SETTING BASIS          =    SVP


 Recomputing integrals since basis changed


 Using spherical harmonics

 Library entry H      S def2-SVP             selected for orbital group  1
 Library entry H      P def2-SVP             selected for orbital group  1
 Library entry O      S def2-SVP             selected for orbital group  2
 Library entry O      P def2-SVP             selected for orbital group  2
 Library entry O      D def2-SVP             selected for orbital group  2
 Library entry C      S def2-SVP             selected for orbital group  3
 Library entry C      P def2-SVP             selected for orbital group  3
 Library entry C      D def2-SVP             selected for orbital group  3


 PROGRAM * SEWARD (Integral evaluation for generally contracted gaussian basis sets)     Author: Roland Lindh, 1990

 Geometry written to block  1 of record 700


 Point group  C1  



 ATOMIC COORDINATES

 NR  ATOM    CHARGE       X              Y              Z

   1  H       1.00   -3.434822896   -1.523497202    0.000000000
   2  O       8.00   -1.607741192   -1.646915215    0.000000000
   3  C       6.00   -0.610343744    0.854269592    0.000000000
   4  C       6.00    2.254594445    0.656868801    0.000000000
   5  H       1.00    3.116120585    2.539678528    0.000000000
   6  H       1.00   -1.248390872    1.913385496   -1.677188627
   7  H       1.00   -1.248390872    1.913385496    1.677188627
   8  H       1.00    2.905964143   -0.367249375   -1.675846922
   9  H       1.00    2.905964143   -0.367249375    1.675846922

 Bond lengths in Bohr (Angstrom)

 1-2  1.831245357  2-3  2.692717421  3-4  2.871730819  3-6  2.083696794  3-7  2.083696794
     ( 0.969053311)     ( 1.424924694)     ( 1.519654505)     ( 1.102644858)     ( 1.102644858)

 4-5  2.070555423  4-8  2.069193908  4-9  2.069193908
     ( 1.095690744)     ( 1.094970261)     ( 1.094970261)

 Bond angles

  1-2-3  107.87621325   2-3-4  107.79904962   2-3-6  111.02105480   2-3-7  111.02105480

  3-4-5  110.64605443   3-4-8  110.36936729   3-4-9  110.36936729   4-3-6  109.90272099

  4-3-7  109.90272099   5-4-8  108.60711935   5-4-9  108.60711935   6-3-7  107.20315121

  8-4-9  108.17296435

 NUCLEAR CHARGE:                   26
 NUMBER OF PRIMITIVE AOS:         117
 NUMBER OF SYMMETRY AOS:          114
 NUMBER OF CONTRACTIONS:           72   (  72A   )
 NUMBER OF CORE ORBITALS:           3   (   3A   )
 NUMBER OF VALENCE ORBITALS:       18   (  18A   )


 NUCLEAR REPULSION ENERGY   81.60955194


 Eigenvalues of metric

         1 0.375E-02 0.159E-01 0.292E-01 0.324E-01 0.398E-01 0.436E-01 0.556E-01 0.658E-01


 Contracted 2-electron integrals neglected if value below      1.0D-11
 AO integral compression algorithm  1   Integral accuracy      1.0D-11

     14.418 MB (compressed) written to integral file ( 45.7%)


 NUMBER OF SORTED TWO-ELECTRON INTEGRALS:    3454506.     BUFFER LENGTH:  32768
 NUMBER OF SEGMENTS:   1  SEGMENT LENGTH:    3454506      RECORD LENGTH: 524288

 Memory used in sort:       4.01 MW

 SORT1 READ     3945093. AND WROTE     2928993. INTEGRALS IN      9 RECORDS. CPU TIME:     0.04 SEC, REAL TIME:     0.09 SEC
 SORT2 READ     2928993. AND WROTE     3454506. INTEGRALS IN     55 RECORDS. CPU TIME:     0.12 SEC, REAL TIME:     0.15 SEC

 FILE SIZES:   FILE 1:    44.7 MBYTE,  FILE 4:    37.8 MBYTE,   TOTAL:     82.5 MBYTE

 OPERATOR DM      FOR CENTER  0  COORDINATES:    0.000000    0.000000    0.000000


 **********************************************************************************************************************************
 DATASETS  * FILE   NREC   LENGTH (MB)   RECORD NAMES
              1      19       42.60       500      610      700      900      950      970     1000      129      960     1100   
                                          VAR    BASINP    GEOM    SYMINP    ZMAT    AOBASIS   BASIS     P2S    ABASIS      S 
                                         1400     1410     1200     1210     1080     1600     1650     1300     1700   
                                           T        V       H0       H01     AOSYM     SMH    MOLCAS    ERIS     OPER   

 PROGRAMS   *        TOTAL       INT
 CPU TIMES  *         0.87      0.73
 REAL TIME  *         1.31 SEC
 DISK USED  *        82.90 MB      
 **********************************************************************************************************************************

 Density functional group M08-SO=XC-M08-SO
 Functional: XC-M08-SO(via MFM 1.6)                                            Gradient terms: 1
 Use grid at  1800.2


 Exact exchange will be calculated, factor:  0.5679

 Functional: XC-M08-SO                 Factor:  1.0000

 Generated new metagrid on record  1800.2 with target accuracy 1.0D-06 and 30796 points in CPU time    0.7
 Computed new grid on record 1800.1 in CPU time    0.7
   61197 words reserved for DFT integration

 PROGRAM * RKS-SCF (Restricted closed shell Kohn-Sham)     Authors: W. Meyer, H.-J. Werner, P.J. Knowles, 1993

 NUMBER OF ELECTRONS:      13+   13-    SPACE SYMMETRY=1    SPIN SYMMETRY: Singlet 
 CONVERGENCE THRESHOLDS:    1.00E-05 (Density)    1.00E-06 (Energy)
 MAX. NUMBER OF ITERATIONS:       60
 INTERPOLATION TYPE:            DIIS
 INTERPOLATION STEPS:              2 (START)      1 (STEP)
 LEVEL SHIFTS:                  0.00 (CLOSED)  0.00 (OPEN) 



 Use fine grid record 1800.2 for energy threshold  1.0D-06
 Orbital guess generated from atomic densities. Full valence occupancy:   13

 Molecular orbital dump at record        2100.2

 Initial occupancy:  13

 ITERATION    DDIFF          GRAD             ENERGY        2-EL.EN.            DIPOLE MOMENTS         DIIS   ORB.
    1      0.000D+00      0.000D+00      -154.74770560    294.672399   -0.60725    0.85393   -0.00000    0    start
    2      0.000D+00      0.977D-02      -154.76052032    283.592610   -0.24159    0.19862   -0.00000    1    diag
    3      0.160D-01      0.971D-02      -154.81949871    289.034756   -0.36979    0.54261   -0.00000    2    diag
    4      0.774D-02      0.860D-03      -154.81987415    289.014803   -0.37619    0.50726   -0.00000    3    diag
    5      0.823D-03      0.408D-03      -154.81998774    288.967204   -0.37335    0.51764   -0.00000    4    diag
    6      0.348D-03      0.612D-04      -154.81999084    288.987119   -0.37242    0.51765   -0.00000    5    diag
    7      0.667D-04      0.704D-05      -154.81999087    288.984881   -0.37251    0.51745   -0.00000    6    diag
    8      0.985D-05      0.369D-05      -154.81999088    288.986399   -0.37240    0.51750   -0.00000    0    orth

 Final occupancy:  13

 !RKS STATE 1.1 Energy               -154.819990875601
 Nuclear energy                        81.60955194
 One-electron energy                 -371.12264518
 Two-electron energy                  144.49319964
 SCF exchange energy                  -20.67772704     Factor= 0.5679
 Density functional                    -9.80009727     XC-M08-SO=-9.80009727
 Virial quotient                       -1.01140945
 !RKS STATE 1.1 Dipole moment          -0.37240494     0.51750423    -0.00000000
 Dipole moment /Debye                  -0.94649695     1.31527840    -0.00000000

 Orbital energies:

         1.1          2.1          3.1          4.1          5.1          6.1          7.1          8.1          9.1         10.1
    -19.567845   -10.556039   -10.500902    -1.109219    -0.834383    -0.687521    -0.592282    -0.541721    -0.476475    -0.449382

        11.1         12.1         13.1         14.1         15.1
     -0.434875    -0.401562    -0.348581     0.073725     0.109647

 HOMO     13.1    -0.348581 =      -9.4854eV
 LUMO     14.1     0.073725 =       2.0062eV
 LUMO-HOMO         0.422306 =      11.4915eV


 **********************************************************************************************************************************
 DATASETS  * FILE   NREC   LENGTH (MB)   RECORD NAMES
              1      20       43.59       500      610      700      900      950      970     1000      129      960     1100   
                                          VAR    BASINP    GEOM    SYMINP    ZMAT    AOBASIS   BASIS     P2S    ABASIS      S 
                                         1400     1410     1200     1210     1080     1600     1650     1300     1700     1800   
                                           T        V       H0       H01     AOSYM     SMH    MOLCAS    ERIS     OPER     GRID   

              2       5        3.00       700     1000      520     1800     2100   
                                         GEOM     BASIS   MCVARS    GRID      RKS  

 PROGRAMS   *        TOTAL        KS       INT
 CPU TIMES  *         8.38      7.49      0.73
 REAL TIME  *         9.19 SEC
 DISK USED  *        82.90 MB      
 **********************************************************************************************************************************


 PROGRAM * Intrinsic Basis Bonding Analysis (IBBA)          Author: G. Knizia

 Molecular orbitals read from record     2100.2  Type=RKS/CANONICAL (state 1.1)
 Fock matrix read from record            2100.2  Type=RKS/TOTAL (state 1.1)
 Orbital energies read from record       2100.2  Type=RKS/CANONICAL (state 1.1)
 Density matrix read from record         2100.2  Type=RKS/CHARGE (state 1.1)

 Number of core orbitals:           3 (   3 )
 Number of closed-shell orbitals:  10 (  10 )

 Basis set MINAO-AUTO-PP generated.      Number of basis functions:   21 

 Polarized AO type:                A = (O Ot + (1-O)(1-Ot)) P12
 Orthogonalization method:         Symmetric (Loewdin)
 Localization functional:          L = sum[A,i] <i|n_A|i>^4 -> max

 Localization group 1:  13 orbitals, occupancy  2.000
 Iterative localization: IB/PM,    7 iter; Final gradient 0.30E-09

 Bond order analysis:       [THRPRINT= 0.020]

   CEN ATOM   CEN ATOM     WIBERG.BO      RENORM.BO
     1   H  -   2   O       0.874818       0.987230

     2   O  -   3   C       0.973978       1.000257
     2   O  -   1   H       0.874818       0.987230
     2   O  -   7   H       0.025712       0.014778
     2   O  -   6   H       0.025712       0.014778

     3   C  -   4   C       1.025293       1.016902
     3   C  -   2   O       0.973978       1.000257
     3   C  -   6   H       0.946830       0.939322
     3   C  -   7   H       0.946830       0.939322

     4   C  -   3   C       1.025293       1.016902
     4   C  -   5   H       0.964830       0.989668
     4   C  -   8   H       0.961023       0.982516
     4   C  -   9   H       0.961023       0.982516

     5   H  -   4   C       0.964830       0.989668

     6   H  -   3   C       0.946830       0.939322
     6   H  -   2   O       0.025712       0.014778

     7   H  -   3   C       0.946830       0.939322
     7   H  -   2   O       0.025712       0.014778

     8   H  -   4   C       0.961023       0.982516

     9   H  -   4   C       0.961023       0.982516


 Valency analysis:

   CEN ATOM   TOT.VALENCE
     1   H       0.887494
     2   O       1.929402
     3   C       3.898671
     4   C       3.938953
     5   H       0.983607
     6   H       0.989389
     7   H       0.989389
     8   H       0.981989
     9   H       0.981989

 Total charge composition:

   CEN ATOM         s          p       ELECTRONS ->P.CHARGE
     1   H       0.66458                 0.66458    0.33542
     2   O       3.60704    4.93284      8.53988   -0.53988
     3   C       2.96962    3.04591      6.01553   -0.01553
     4   C       3.00583    3.37664      6.38247   -0.38247
     5   H       0.87196                 0.87196    0.12804
     6   H       0.89699                 0.89699    0.10301
     7   H       0.89699                 0.89699    0.10301
     8   H       0.86579                 0.86579    0.13421
     9   H       0.86579                 0.86579    0.13421

 Total charge composition, AO contributions:

   CEN ATOM SHL      SPHERICAL COMPONENTS
     1   H  1s       0.66458

     2   O  1s       1.99703
     2   O  2s       1.61001
     2   O  2p       1.43502    1.53445    1.96337

     3   C  1s       1.99200
     3   C  2s       0.97762
     3   C  2p       1.03165    0.86212    1.15214

     4   C  1s       1.99098
     4   C  2s       1.01486
     4   C  2p       1.04911    1.15859    1.16893

     5   H  1s       0.87196

     6   H  1s       0.89699

     7   H  1s       0.89699

     8   H  1s       0.86579

     9   H  1s       0.86579

 Summary of localized orbital composition:   [THRPRINT= 0.020]

   ORB  GRP  ORB.ENERGY      CENTERS/CHARGES
     1   1   -19.418399      O  2   2.000
     2   1   -10.450709      C  3   2.000
     3   1   -10.383845      C  4   2.000
     4   1    -0.846185      O  2   1.333   H  1   0.658
     5   1    -0.830834      O  2   1.261   C  3   0.734
     6   1    -0.663403      C  3   1.005   C  4   0.987
     7   1    -0.626867      O  2   1.981
     8   1    -0.591531      C  3   1.114   H  7   0.878
     9   1    -0.591531      C  3   1.114   H  6   0.878
    10   1    -0.573438      C  4   1.121   H  5   0.865
    11   1    -0.566840      C  4   1.130   H  8   0.859
    12   1    -0.566840      C  4   1.130   H  9   0.859
    13   1    -0.390363      O  2   1.963   (other: 0.037)

 Localized orbitals saved to record      2100.2  (orbital set 2)


 **********************************************************************************************************************************
 DATASETS  * FILE   NREC   LENGTH (MB)   RECORD NAMES
              1      20       43.59       500      610      700      900      950      970     1000      129      960     1100   
                                          VAR    BASINP    GEOM    SYMINP    ZMAT    AOBASIS   BASIS     P2S    ABASIS      S 
                                         1400     1410     1200     1210     1080     1600     1650     1300     1700     1800   
                                           T        V       H0       H01     AOSYM     SMH    MOLCAS    ERIS     OPER     GRID   

              2       5        3.04       700     1000      520     1800     2100   
                                         GEOM     BASIS   MCVARS    GRID      RKS  

 PROGRAMS   *        TOTAL      IBBA        KS       INT
 CPU TIMES  *         8.40      0.02      7.49      0.73
 REAL TIME  *         9.28 SEC
 DISK USED  *        82.90 MB      
 **********************************************************************************************************************************
 Molecular orbitals read from record     2100.2  Type=RKS/LOCAL(IBO)  
 Occupation numbers read from record     2100.2  Type=RKS/LOCAL(IBO)  
 Orbital energies read from record       2100.2  Type=RKS/LOCAL(IBO)  
 Redundancy group numbers read from rec  2100.2  Type=RKS/LOCAL(IBO)  

 IBBA/SVP energy=      0.000000000000

        KS-SCF  
   -154.81999088
 **********************************************************************************************************************************
 Molpro calculation terminated
