
 Primary working directories    : /tmp/sb13343
 Secondary working directories  : /tmp/sb13343
 Wavefunction directory         : /panfs/panasas01/chem/sb13343/wfu/
 Main file repository           : /tmp/sb13343/

 SHA1      : b4a5b34a9e711420743f49e6833241d17c61fb3c
 NAME      : 2099.9.b4a5b34
 ARCHNAME  : linux/x86_64_openmp
 FC        : /cm/shared/languages/GCC-6.1/bin/gfortran
 BLASLIB   : -lblas
 id        : simonbennie

 Nodes     nprocs
 node33-028    1

 Using customized tuning parameters: mindgm=1; mindgv=20; mindgc=4; mindgr=1; noblas=0; minvec=7
 default implementation of scratch files=df  

 memory,500,m
 geomtyp=xyz
 nosym
 noorient
 geometry={
 H         -1.81763       -0.80620        0.00000
 O         -0.85078       -0.87151        0.00000
 C         -0.32298        0.45206        0.00000
 C          1.19308        0.34760        0.00000
 H          1.64898        1.34394        0.00000
 H         -0.66062        1.01252       -0.88753
 H         -0.66062        1.01252        0.88753
 H          1.53777       -0.19434       -0.88682
 H          1.53777       -0.19434        0.88682
 }
 basis={ default,svp }
 {ks,M08-HX,direct;wf,26,1,0}
 {ibba,bonds=1}

 Variables initialized (895), CPU time= 0.01 sec
 Commands  initialized (725), CPU time= 0.01 sec, 591 directives.
 Default parameters read. Elapsed time= 0.16 sec

 Checking input...
 Passed
1


                                         ***  PROGRAM SYSTEM MOLPRO  ***
                                       Copyright, TTI GmbH Stuttgart, 2015
                                    Version 2099.9 linked May 26 2017 16:03:21


 **********************************************************************************************************************************
 LABEL *                                                                                 
  64 bit serial version                                                                  DATE: 08-Jun-17          TIME: 12:03:59  
 **********************************************************************************************************************************

 SHA1:             b4a5b34a9e711420743f49e6833241d17c61fb3c
 **********************************************************************************************************************************
 SETTING GEOMTYP        =    XYZ

 Variable memory set to  500000000 words,  buffer space 

 ZSYMEL=NOSYM

 SETTING BASIS          =    SVP


 Recomputing integrals since basis changed


 Using spherical harmonics

 Library entry H      S def2-SVP             selected for orbital group  1
 Library entry H      P def2-SVP             selected for orbital group  1
 Library entry O      S def2-SVP             selected for orbital group  2
 Library entry O      P def2-SVP             selected for orbital group  2
 Library entry O      D def2-SVP             selected for orbital group  2
 Library entry C      S def2-SVP             selected for orbital group  3
 Library entry C      P def2-SVP             selected for orbital group  3
 Library entry C      D def2-SVP             selected for orbital group  3


 PROGRAM * SEWARD (Integral evaluation for generally contracted gaussian basis sets)     Author: Roland Lindh, 1990

 Geometry written to block  1 of record 700


 Point group  C1  



 ATOMIC COORDINATES

 NR  ATOM    CHARGE       X              Y              Z

   1  H       1.00   -3.434822896   -1.523497202    0.000000000
   2  O       8.00   -1.607741192   -1.646915215    0.000000000
   3  C       6.00   -0.610343744    0.854269592    0.000000000
   4  C       6.00    2.254594445    0.656868801    0.000000000
   5  H       1.00    3.116120585    2.539678528    0.000000000
   6  H       1.00   -1.248390872    1.913385496   -1.677188627
   7  H       1.00   -1.248390872    1.913385496    1.677188627
   8  H       1.00    2.905964143   -0.367249375   -1.675846922
   9  H       1.00    2.905964143   -0.367249375    1.675846922

 Bond lengths in Bohr (Angstrom)

 1-2  1.831245357  2-3  2.692717421  3-4  2.871730819  3-6  2.083696794  3-7  2.083696794
     ( 0.969053311)     ( 1.424924694)     ( 1.519654505)     ( 1.102644858)     ( 1.102644858)

 4-5  2.070555423  4-8  2.069193908  4-9  2.069193908
     ( 1.095690744)     ( 1.094970261)     ( 1.094970261)

 Bond angles

  1-2-3  107.87621325   2-3-4  107.79904962   2-3-6  111.02105480   2-3-7  111.02105480

  3-4-5  110.64605443   3-4-8  110.36936729   3-4-9  110.36936729   4-3-6  109.90272099

  4-3-7  109.90272099   5-4-8  108.60711935   5-4-9  108.60711935   6-3-7  107.20315121

  8-4-9  108.17296435

 NUCLEAR CHARGE:                   26
 NUMBER OF PRIMITIVE AOS:         117
 NUMBER OF SYMMETRY AOS:          114
 NUMBER OF CONTRACTIONS:           72   (  72A   )
 NUMBER OF CORE ORBITALS:           3   (   3A   )
 NUMBER OF VALENCE ORBITALS:       18   (  18A   )


 NUCLEAR REPULSION ENERGY   81.60955194


 Eigenvalues of metric

         1 0.375E-02 0.159E-01 0.292E-01 0.324E-01 0.398E-01 0.436E-01 0.556E-01 0.658E-01


 Contracted 2-electron integrals neglected if value below      1.0D-11
 AO integral compression algorithm  1   Integral accuracy      1.0D-11

     14.418 MB (compressed) written to integral file ( 45.7%)


 NUMBER OF SORTED TWO-ELECTRON INTEGRALS:    3454506.     BUFFER LENGTH:  32768
 NUMBER OF SEGMENTS:   1  SEGMENT LENGTH:    3454506      RECORD LENGTH: 524288

 Memory used in sort:       4.01 MW

 SORT1 READ     3945093. AND WROTE     2928993. INTEGRALS IN      9 RECORDS. CPU TIME:     0.05 SEC, REAL TIME:     0.09 SEC
 SORT2 READ     2928993. AND WROTE     3454506. INTEGRALS IN     55 RECORDS. CPU TIME:     0.12 SEC, REAL TIME:     0.15 SEC

 FILE SIZES:   FILE 1:    44.7 MBYTE,  FILE 4:    37.8 MBYTE,   TOTAL:     82.5 MBYTE

 OPERATOR DM      FOR CENTER  0  COORDINATES:    0.000000    0.000000    0.000000


 **********************************************************************************************************************************
 DATASETS  * FILE   NREC   LENGTH (MB)   RECORD NAMES
              1      19       42.60       500      610      700      900      950      970     1000      129      960     1100   
                                          VAR    BASINP    GEOM    SYMINP    ZMAT    AOBASIS   BASIS     P2S    ABASIS      S 
                                         1400     1410     1200     1210     1080     1600     1650     1300     1700   
                                           T        V       H0       H01     AOSYM     SMH    MOLCAS    ERIS     OPER   

 PROGRAMS   *        TOTAL       INT
 CPU TIMES  *         0.91      0.77
 REAL TIME  *         1.49 SEC
 DISK USED  *        82.90 MB      
 **********************************************************************************************************************************

 Density functional group M08-HX=XC-M08-HX
 Functional: XC-M08-HX(via MFM 1.6)                                            Gradient terms: 1
 Use grid at  1800.2


 Exact exchange will be calculated, factor:  0.5223

 Functional: XC-M08-HX                 Factor:  1.0000

 Generated new metagrid on record  1800.2 with target accuracy 1.0D-06 and 30796 points in CPU time    0.7
 Computed new grid on record 1800.1 in CPU time    0.8
   61197 words reserved for DFT integration

 PROGRAM * RKS-SCF (Restricted closed shell Kohn-Sham)     Authors: W. Meyer, H.-J. Werner, P.J. Knowles, 1993

 NUMBER OF ELECTRONS:      13+   13-    SPACE SYMMETRY=1    SPIN SYMMETRY: Singlet 
 CONVERGENCE THRESHOLDS:    1.00E-05 (Density)    1.00E-06 (Energy)
 MAX. NUMBER OF ITERATIONS:       60
 INTERPOLATION TYPE:            DIIS
 INTERPOLATION STEPS:              2 (START)      1 (STEP)
 LEVEL SHIFTS:                  0.00 (CLOSED)  0.00 (OPEN) 



 Use fine grid record 1800.2 for energy threshold  1.0D-06
 Orbital guess generated from atomic densities. Full valence occupancy:   13

 Molecular orbital dump at record        2100.2

 Initial occupancy:  13

 ITERATION    DDIFF          GRAD             ENERGY        2-EL.EN.            DIPOLE MOMENTS         DIIS   ORB.
    1      0.000D+00      0.000D+00      -154.80188213    296.097505   -0.60540    0.81689   -0.00000    0    start
    2      0.000D+00      0.927D-02      -154.81254073    285.975309   -0.23938    0.19085   -0.00000    1    diag
    3      0.151D-01      0.914D-02      -154.86443511    291.027968   -0.36860    0.54337   -0.00000    2    diag
    4      0.744D-02      0.837D-03      -154.86478094    290.997062   -0.37474    0.50451   -0.00000    3    diag
    5      0.827D-03      0.408D-03      -154.86489391    290.942379   -0.37100    0.51492   -0.00000    4    diag
    6      0.338D-03      0.602D-04      -154.86489678    290.962304   -0.36993    0.51509   -0.00000    5    diag
    7      0.639D-04      0.690D-05      -154.86489681    290.959833   -0.37007    0.51484   -0.00000    6    diag
    8      0.877D-05      0.350D-05      -154.86489682    290.961410   -0.36998    0.51490   -0.00000    0    orth

 Final occupancy:  13

 !RKS STATE 1.1 Energy               -154.864896816402
 Nuclear energy                        81.60955194
 One-electron energy                 -371.16384036
 Two-electron energy                  145.48070516
 SCF exchange energy                  -20.68723199     Factor= 0.5223
 Density functional                   -10.79131355     XC-M08-HX=-10.79131355
 Virial quotient                       -1.01098341
 !RKS STATE 1.1 Dipole moment          -0.36998046     0.51490013    -0.00000000
 Dipole moment /Debye                  -0.94033494     1.30865988    -0.00000000

 Orbital energies:

         1.1          2.1          3.1          4.1          5.1          6.1          7.1          8.1          9.1         10.1
    -19.611402   -10.585474   -10.530015    -1.111189    -0.836634    -0.687146    -0.587809    -0.535284    -0.471064    -0.444186

        11.1         12.1         13.1         14.1         15.1
     -0.428629    -0.396162    -0.339028     0.066867     0.102951

 HOMO     13.1    -0.339028 =      -9.2254eV
 LUMO     14.1     0.066867 =       1.8195eV
 LUMO-HOMO         0.405895 =      11.0450eV


 **********************************************************************************************************************************
 DATASETS  * FILE   NREC   LENGTH (MB)   RECORD NAMES
              1      20       43.59       500      610      700      900      950      970     1000      129      960     1100   
                                          VAR    BASINP    GEOM    SYMINP    ZMAT    AOBASIS   BASIS     P2S    ABASIS      S 
                                         1400     1410     1200     1210     1080     1600     1650     1300     1700     1800   
                                           T        V       H0       H01     AOSYM     SMH    MOLCAS    ERIS     OPER     GRID   

              2       5        3.00       700     1000      520     1800     2100   
                                         GEOM     BASIS   MCVARS    GRID      RKS  

 PROGRAMS   *        TOTAL        KS       INT
 CPU TIMES  *         9.60      8.69      0.77
 REAL TIME  *        10.71 SEC
 DISK USED  *        82.90 MB      
 **********************************************************************************************************************************


 PROGRAM * Intrinsic Basis Bonding Analysis (IBBA)          Author: G. Knizia

 Molecular orbitals read from record     2100.2  Type=RKS/CANONICAL (state 1.1)
 Fock matrix read from record            2100.2  Type=RKS/TOTAL (state 1.1)
 Orbital energies read from record       2100.2  Type=RKS/CANONICAL (state 1.1)
 Density matrix read from record         2100.2  Type=RKS/CHARGE (state 1.1)

 Number of core orbitals:           3 (   3 )
 Number of closed-shell orbitals:  10 (  10 )

 Basis set MINAO-AUTO-PP generated.      Number of basis functions:   21 

 Polarized AO type:                A = (O Ot + (1-O)(1-Ot)) P12
 Orthogonalization method:         Symmetric (Loewdin)
 Localization functional:          L = sum[A,i] <i|n_A|i>^4 -> max

 Localization group 1:  13 orbitals, occupancy  2.000
 Iterative localization: IB/PM,    7 iter; Final gradient 0.38E-09

 Bond order analysis:       [THRPRINT= 0.020]

   CEN ATOM   CEN ATOM     WIBERG.BO      RENORM.BO
     1   H  -   2   O       0.873201       0.987332

     2   O  -   3   C       0.977208       1.000554
     2   O  -   1   H       0.873201       0.987332
     2   O  -   7   H       0.026331       0.015208
     2   O  -   6   H       0.026331       0.015208

     3   C  -   4   C       1.026513       1.017210
     3   C  -   2   O       0.977208       1.000554
     3   C  -   6   H       0.945394       0.937865
     3   C  -   7   H       0.945394       0.937865

     4   C  -   3   C       1.026513       1.017210
     4   C  -   5   H       0.963886       0.989754
     4   C  -   8   H       0.959635       0.982187
     4   C  -   9   H       0.959635       0.982187

     5   H  -   4   C       0.963886       0.989754

     6   H  -   3   C       0.945394       0.937865
     6   H  -   2   O       0.026331       0.015208

     7   H  -   3   C       0.945394       0.937865
     7   H  -   2   O       0.026331       0.015208

     8   H  -   4   C       0.959635       0.982187

     9   H  -   4   C       0.959635       0.982187


 Valency analysis:

   CEN ATOM   TOT.VALENCE
     1   H       0.885810
     2   O       1.932248
     3   C       3.899911
     4   C       3.936091
     5   H       0.982174
     6   H       0.988604
     7   H       0.988604
     8   H       0.980417
     9   H       0.980417

 Total charge composition:

   CEN ATOM         s          p       ELECTRONS ->P.CHARGE
     1   H       0.66208                 0.66208    0.33792
     2   O       3.61207    4.92422      8.53629   -0.53629
     3   C       2.98043    3.04821      6.02864   -0.02864
     4   C       3.01708    3.38282      6.39989   -0.39989
     5   H       0.86648                 0.86648    0.13352
     6   H       0.89325                 0.89325    0.10675
     7   H       0.89325                 0.89325    0.10675
     8   H       0.86006                 0.86006    0.13994
     9   H       0.86006                 0.86006    0.13994

 Total charge composition, AO contributions:

   CEN ATOM SHL      SPHERICAL COMPONENTS
     1   H  1s       0.66208

     2   O  1s       1.99697
     2   O  2s       1.61510
     2   O  2p       1.43472    1.52702    1.96248

     3   C  1s       1.99175
     3   C  2s       0.98868
     3   C  2p       1.03064    0.86416    1.15341

     4   C  1s       1.99070
     4   C  2s       1.02637
     4   C  2p       1.04916    1.16139    1.17227

     5   H  1s       0.86648

     6   H  1s       0.89325

     7   H  1s       0.89325

     8   H  1s       0.86006

     9   H  1s       0.86006

 Summary of localized orbital composition:   [THRPRINT= 0.020]

   ORB  GRP  ORB.ENERGY      CENTERS/CHARGES
     1   1   -19.459207      O  2   2.000
     2   1   -10.478462      C  3   2.000
     3   1   -10.410959      C  4   2.000
     4   1    -0.846022      O  2   1.335   H  1   0.656
     5   1    -0.826199      O  2   1.256   C  3   0.739
     6   1    -0.664410      C  3   1.005   C  4   0.988
     7   1    -0.625961      O  2   1.981
     8   1    -0.588128      C  3   1.118   H  7   0.874
     9   1    -0.588128      C  3   1.118   H  6   0.874
    10   1    -0.569919      C  4   1.126   H  5   0.860
    11   1    -0.563603      C  4   1.136   H  8   0.854
    12   1    -0.563603      C  4   1.136   H  9   0.854
    13   1    -0.379418      O  2   1.962   (other: 0.038)

 Localized orbitals saved to record      2100.2  (orbital set 2)


 **********************************************************************************************************************************
 DATASETS  * FILE   NREC   LENGTH (MB)   RECORD NAMES
              1      20       43.59       500      610      700      900      950      970     1000      129      960     1100   
                                          VAR    BASINP    GEOM    SYMINP    ZMAT    AOBASIS   BASIS     P2S    ABASIS      S 
                                         1400     1410     1200     1210     1080     1600     1650     1300     1700     1800   
                                           T        V       H0       H01     AOSYM     SMH    MOLCAS    ERIS     OPER     GRID   

              2       5        3.04       700     1000      520     1800     2100   
                                         GEOM     BASIS   MCVARS    GRID      RKS  

 PROGRAMS   *        TOTAL      IBBA        KS       INT
 CPU TIMES  *         9.62      0.01      8.69      0.77
 REAL TIME  *        10.80 SEC
 DISK USED  *        82.90 MB      
 **********************************************************************************************************************************
 Molecular orbitals read from record     2100.2  Type=RKS/LOCAL(IBO)  
 Occupation numbers read from record     2100.2  Type=RKS/LOCAL(IBO)  
 Orbital energies read from record       2100.2  Type=RKS/LOCAL(IBO)  
 Redundancy group numbers read from rec  2100.2  Type=RKS/LOCAL(IBO)  

 IBBA/SVP energy=      0.000000000000

        KS-SCF  
   -154.86489682
 **********************************************************************************************************************************
 Molpro calculation terminated
