
 Primary working directories    : /tmp/sb13343
 Secondary working directories  : /tmp/sb13343
 Wavefunction directory         : /panfs/panasas01/chem/sb13343/wfu/
 Main file repository           : /tmp/sb13343/

 SHA1      : b4a5b34a9e711420743f49e6833241d17c61fb3c
 NAME      : 2099.9.b4a5b34
 ARCHNAME  : linux/x86_64_openmp
 FC        : /cm/shared/languages/GCC-6.1/bin/gfortran
 BLASLIB   : -lblas
 id        : simonbennie

 Nodes     nprocs
 node33-019    1

 Using customized tuning parameters: mindgm=1; mindgv=20; mindgc=4; mindgr=1; noblas=0; minvec=7
 default implementation of scratch files=df  

 memory,500,m
 geomtyp=xyz
 nosym
 noorient
 geometry={
 H         -1.81763       -0.80620        0.00000
 O         -0.85078       -0.87151        0.00000
 C         -0.32298        0.45206        0.00000
 C          1.19308        0.34760        0.00000
 H          1.64898        1.34394        0.00000
 H         -0.66062        1.01252       -0.88753
 H         -0.66062        1.01252        0.88753
 H          1.53777       -0.19434       -0.88682
 H          1.53777       -0.19434        0.88682
 }
 basis={ default,sto-3g }
 {ks,SOGGA11-X,direct;wf,26,1,0}
 {ibba,bonds=1}

 Variables initialized (895), CPU time= 0.00 sec
 Commands  initialized (725), CPU time= 0.02 sec, 591 directives.
 Default parameters read. Elapsed time= 0.08 sec

 Checking input...
 Passed
1


                                         ***  PROGRAM SYSTEM MOLPRO  ***
                                       Copyright, TTI GmbH Stuttgart, 2015
                                    Version 2099.9 linked May 26 2017 16:03:21


 **********************************************************************************************************************************
 LABEL *                                                                                 
  64 bit serial version                                                                  DATE: 08-Jun-17          TIME: 11:51:43  
 **********************************************************************************************************************************

 SHA1:             b4a5b34a9e711420743f49e6833241d17c61fb3c
 **********************************************************************************************************************************
 SETTING GEOMTYP        =    XYZ

 Variable memory set to  500000000 words,  buffer space 

 ZSYMEL=NOSYM

 SETTING BASIS          =    STO-3G


 Recomputing integrals since basis changed


 Using spherical harmonics

 Library entry H      S STO-3G               selected for orbital group  1
 Library entry O      S STO-3G               selected for orbital group  2
 Library entry O      P STO-3G               selected for orbital group  2
 Library entry C      S STO-3G               selected for orbital group  3
 Library entry C      P STO-3G               selected for orbital group  3


 PROGRAM * SEWARD (Integral evaluation for generally contracted gaussian basis sets)     Author: Roland Lindh, 1990

 Geometry written to block  1 of record 700


 Point group  C1  



 ATOMIC COORDINATES

 NR  ATOM    CHARGE       X              Y              Z

   1  H       1.00   -3.434822896   -1.523497202    0.000000000
   2  O       8.00   -1.607741192   -1.646915215    0.000000000
   3  C       6.00   -0.610343744    0.854269592    0.000000000
   4  C       6.00    2.254594445    0.656868801    0.000000000
   5  H       1.00    3.116120585    2.539678528    0.000000000
   6  H       1.00   -1.248390872    1.913385496   -1.677188627
   7  H       1.00   -1.248390872    1.913385496    1.677188627
   8  H       1.00    2.905964143   -0.367249375   -1.675846922
   9  H       1.00    2.905964143   -0.367249375    1.675846922

 Bond lengths in Bohr (Angstrom)

 1-2  1.831245357  2-3  2.692717421  3-4  2.871730819  3-6  2.083696794  3-7  2.083696794
     ( 0.969053311)     ( 1.424924694)     ( 1.519654505)     ( 1.102644858)     ( 1.102644858)

 4-5  2.070555423  4-8  2.069193908  4-9  2.069193908
     ( 1.095690744)     ( 1.094970261)     ( 1.094970261)

 Bond angles

  1-2-3  107.87621325   2-3-4  107.79904962   2-3-6  111.02105480   2-3-7  111.02105480

  3-4-5  110.64605443   3-4-8  110.36936729   3-4-9  110.36936729   4-3-6  109.90272099

  4-3-7  109.90272099   5-4-8  108.60711935   5-4-9  108.60711935   6-3-7  107.20315121

  8-4-9  108.17296435

 NUCLEAR CHARGE:                   26
 NUMBER OF PRIMITIVE AOS:          63
 NUMBER OF SYMMETRY AOS:           63
 NUMBER OF CONTRACTIONS:           21   (  21A   )
 NUMBER OF CORE ORBITALS:           3   (   3A   )
 NUMBER OF VALENCE ORBITALS:       18   (  18A   )


 NUCLEAR REPULSION ENERGY   81.60955194


 Eigenvalues of metric

         1 0.212E+00 0.263E+00 0.352E+00 0.355E+00 0.377E+00 0.393E+00 0.407E+00 0.473E+00


 Contracted 2-electron integrals neglected if value below      1.0D-11
 AO integral compression algorithm  1   Integral accuracy      1.0D-11

     0.262 MB (compressed) written to integral file (100.0%)


 NUMBER OF SORTED TWO-ELECTRON INTEGRALS:      26796.     BUFFER LENGTH:  32768
 NUMBER OF SEGMENTS:   1  SEGMENT LENGTH:      26796      RECORD LENGTH: 524288

 Memory used in sort:       0.58 MW

 SORT1 READ       32379. AND WROTE       21718. INTEGRALS IN      1 RECORDS. CPU TIME:     0.00 SEC, REAL TIME:     0.01 SEC
 SORT2 READ       21718. AND WROTE       26796. INTEGRALS IN      1 RECORDS. CPU TIME:     0.01 SEC, REAL TIME:     0.01 SEC

 FILE SIZES:   FILE 1:    30.4 MBYTE,  FILE 4:     4.2 MBYTE,   TOTAL:     34.6 MBYTE

 OPERATOR DM      FOR CENTER  0  COORDINATES:    0.000000    0.000000    0.000000


 **********************************************************************************************************************************
 DATASETS  * FILE   NREC   LENGTH (MB)   RECORD NAMES
              1      19       30.21       500      610      700      900      950      970     1000      129      960     1100   
                                          VAR    BASINP    GEOM    SYMINP    ZMAT    AOBASIS   BASIS     P2S    ABASIS      S 
                                         1400     1410     1200     1210     1080     1600     1650     1300     1700   
                                           T        V       H0       H01     AOSYM     SMH    MOLCAS    ERIS     OPER   

 PROGRAMS   *        TOTAL       INT
 CPU TIMES  *         0.38      0.23
 REAL TIME  *         0.71 SEC
 DISK USED  *        34.99 MB      
 **********************************************************************************************************************************

 Density functional group SOGGA11-X=XC-SOGGA11-X
 Functional: XC-SOGGA11-X(via MFM 1.6)                                         Gradient terms: 1
 Use grid at  1800.2


 Exact exchange will be calculated, factor:  0.4015

 Functional: XC-SOGGA11-X              Factor:  1.0000

 Generated new metagrid on record  1800.2 with target accuracy 1.0D-06 and 30796 points in CPU time    0.7
 Computed new grid on record 1800.1 in CPU time    0.8
   20895 words reserved for DFT integration

 PROGRAM * RKS-SCF (Restricted closed shell Kohn-Sham)     Authors: W. Meyer, H.-J. Werner, P.J. Knowles, 1993

 NUMBER OF ELECTRONS:      13+   13-    SPACE SYMMETRY=1    SPIN SYMMETRY: Singlet 
 CONVERGENCE THRESHOLDS:    1.00E-05 (Density)    1.00E-06 (Energy)
 MAX. NUMBER OF ITERATIONS:       60
 INTERPOLATION TYPE:            DIIS
 INTERPOLATION STEPS:              2 (START)      1 (STEP)
 LEVEL SHIFTS:                  0.00 (CLOSED)  0.00 (OPEN) 



 Use fine grid record 1800.2 for energy threshold  1.0D-06
 Orbital guess generated from atomic densities. Full valence occupancy:   13

 Molecular orbital dump at record        2100.2

 Initial occupancy:  13

 ITERATION    DDIFF          GRAD             ENERGY        2-EL.EN.            DIPOLE MOMENTS         DIIS   ORB.
    1      0.000D+00      0.000D+00      -152.89349234    304.286972   -0.58277    1.04992    0.00000    0    start
    2      0.000D+00      0.303D-01      -152.98776637    293.653577   -0.11341   -0.00677   -0.00000    1    diag
    3      0.839D-01      0.176D-01      -153.02993398    297.247170   -0.30548    0.42859   -0.00000    2    diag
    4      0.306D-01      0.120D-02      -153.03010435    297.309180   -0.29953    0.41752   -0.00000    3    diag
    5      0.233D-02      0.304D-03      -153.03011626    297.287031   -0.29912    0.41902   -0.00000    4    diag
    6      0.476D-03      0.215D-04      -153.03011632    297.288108   -0.29922    0.41861   -0.00000    5    diag
    7      0.507D-04      0.875D-05      -153.03011633    297.288033   -0.29928    0.41877   -0.00000    6    diag
    8      0.154D-04      0.610D-06      -153.03011633    297.288015   -0.29928    0.41875   -0.00000    7    diag
    9      0.144D-05      0.320D-07      -153.03011633    297.288014   -0.29928    0.41875   -0.00000    0    orth

 Final occupancy:  13

 !RKS STATE 1.1 Energy               -153.030116333703
 Nuclear energy                        81.60955194
 One-electron energy                 -369.88563205
 Two-electron energy                  148.64400709
 SCF exchange energy                  -20.87905110     Factor= 0.4015
 Density functional                   -13.39804331     XC-SOGGA11-X=-13.39804331
 Virial quotient                       -1.01447684
 !RKS STATE 1.1 Dipole moment          -0.29927988     0.41875313    -0.00000000
 Dipole moment /Debye                  -0.76064375     1.06429458    -0.00000000

 Orbital energies:

         1.1          2.1          3.1          4.1          5.1          6.1          7.1          8.1          9.1         10.1
    -19.200783   -10.305710   -10.257831    -1.047955    -0.786700    -0.637956    -0.503513    -0.477642    -0.398179    -0.378281

        11.1         12.1         13.1         14.1         15.1
     -0.370076    -0.273554    -0.194375     0.373166     0.456137

 HOMO     13.1    -0.194375 =      -5.2892eV
 LUMO     14.1     0.373166 =      10.1544eV
 LUMO-HOMO         0.567541 =      15.4436eV


 **********************************************************************************************************************************
 DATASETS  * FILE   NREC   LENGTH (MB)   RECORD NAMES
              1      20       31.20       500      610      700      900      950      970     1000      129      960     1100   
                                          VAR    BASINP    GEOM    SYMINP    ZMAT    AOBASIS   BASIS     P2S    ABASIS      S 
                                         1400     1410     1200     1210     1080     1600     1650     1300     1700     1800   
                                           T        V       H0       H01     AOSYM     SMH    MOLCAS    ERIS     OPER     GRID   

              2       5        2.90       700     1000      520     1800     2100   
                                         GEOM     BASIS   MCVARS    GRID      RKS  

 PROGRAMS   *        TOTAL        KS       INT
 CPU TIMES  *         2.77      2.39      0.23
 REAL TIME  *         3.19 SEC
 DISK USED  *        34.99 MB      
 **********************************************************************************************************************************


 PROGRAM * Intrinsic Basis Bonding Analysis (IBBA)          Author: G. Knizia

 Molecular orbitals read from record     2100.2  Type=RKS/CANONICAL (state 1.1)
 Fock matrix read from record            2100.2  Type=RKS/TOTAL (state 1.1)
 Orbital energies read from record       2100.2  Type=RKS/CANONICAL (state 1.1)
 Density matrix read from record         2100.2  Type=RKS/CHARGE (state 1.1)

 Number of core orbitals:           3 (   3 )
 Number of closed-shell orbitals:  10 (  10 )

 Basis set MINAO-AUTO-PP generated.      Number of basis functions:   21 

 Polarized AO type:                A = (O Ot + (1-O)(1-Ot)) P12
 Orthogonalization method:         Symmetric (Loewdin)
 Localization functional:          L = sum[A,i] <i|n_A|i>^4 -> max

 Localization group 1:  13 orbitals, occupancy  2.000
 Iterative localization: IB/PM,    7 iter; Final gradient 0.18E-09

 Bond order analysis:       [THRPRINT= 0.020]

   CEN ATOM   CEN ATOM     WIBERG.BO      RENORM.BO
     1   H  -   2   O       0.930360       0.986379

     2   O  -   3   C       1.016564       1.010272
     2   O  -   1   H       0.930360       0.986379
     2   O  -   7   H       0.024537       0.014173
     2   O  -   6   H       0.024537       0.014173

     3   C  -   2   O       1.016564       1.010272
     3   C  -   4   C       1.016010       1.008538
     3   C  -   6   H       0.949401       0.944254
     3   C  -   7   H       0.949401       0.944254

     4   C  -   3   C       1.016010       1.008538
     4   C  -   5   H       0.967347       0.991813
     4   C  -   8   H       0.964461       0.987127
     4   C  -   9   H       0.964461       0.987127

     5   H  -   4   C       0.967347       0.991813

     6   H  -   3   C       0.949401       0.944254
     6   H  -   2   O       0.024537       0.014173

     7   H  -   3   C       0.949401       0.944254
     7   H  -   2   O       0.024537       0.014173

     8   H  -   4   C       0.964461       0.987127

     9   H  -   4   C       0.964461       0.987127


 Valency analysis:

   CEN ATOM   TOT.VALENCE
     1   H       0.945110
     2   O       2.015088
     3   C       3.935326
     4   C       3.935177
     5   H       0.982657
     6   H       0.988164
     7   H       0.988164
     8   H       0.981946
     9   H       0.981946

 Total charge composition:

   CEN ATOM         s          p       ELECTRONS ->P.CHARGE
     1   H       0.76571                 0.76571    0.23429
     2   O       3.66910    4.67388      8.34298   -0.34298
     3   C       2.98663    3.13496      6.12159   -0.12159
     4   C       2.99819    3.38954      6.38773   -0.38773
     5   H       0.86831                 0.86831    0.13169
     6   H       0.89121                 0.89121    0.10879
     7   H       0.89121                 0.89121    0.10879
     8   H       0.86563                 0.86563    0.13437
     9   H       0.86563                 0.86563    0.13437

 Total charge composition, AO contributions:

   CEN ATOM SHL      SPHERICAL COMPONENTS
     1   H  1s       0.76571

     2   O  1s       1.99716
     2   O  2s       1.67194
     2   O  2p       1.31644    1.39317    1.96427

     3   C  1s       1.99224
     3   C  2s       0.99439
     3   C  2p       1.04341    0.92969    1.16186

     4   C  1s       1.99129
     4   C  2s       1.00690
     4   C  2p       1.05287    1.16512    1.17156

     5   H  1s       0.86831

     6   H  1s       0.89121

     7   H  1s       0.89121

     8   H  1s       0.86563

     9   H  1s       0.86563

 Summary of localized orbital composition:   [THRPRINT= 0.020]

   ORB  GRP  ORB.ENERGY      CENTERS/CHARGES
     1   1   -19.021669      O  2   2.000
     2   1   -10.199297      C  3   2.000
     3   1   -10.141094      C  4   2.000
     4   1    -0.728882      O  2   1.231   H  1   0.759
     5   1    -0.701611      O  2   1.157   C  3   0.838
     6   1    -0.599349      C  3   1.003   C  4   0.987
     7   1    -0.585178      O  2   1.988
     8   1    -0.539293      C  3   1.121   H  7   0.873
     9   1    -0.539293      C  3   1.121   H  6   0.873
    10   1    -0.523804      C  4   1.128   H  5   0.863
    11   1    -0.517319      C  4   1.131   H  9   0.860
    12   1    -0.517319      C  4   1.131   H  8   0.860
    13   1    -0.218449      O  2   1.964   (other: 0.036)

 Localized orbitals saved to record      2100.2  (orbital set 2)


 **********************************************************************************************************************************
 DATASETS  * FILE   NREC   LENGTH (MB)   RECORD NAMES
              1      20       31.20       500      610      700      900      950      970     1000      129      960     1100   
                                          VAR    BASINP    GEOM    SYMINP    ZMAT    AOBASIS   BASIS     P2S    ABASIS      S 
                                         1400     1410     1200     1210     1080     1600     1650     1300     1700     1800   
                                           T        V       H0       H01     AOSYM     SMH    MOLCAS    ERIS     OPER     GRID   

              2       5        2.90       700     1000      520     1800     2100   
                                         GEOM     BASIS   MCVARS    GRID      RKS  

 PROGRAMS   *        TOTAL      IBBA        KS       INT
 CPU TIMES  *         2.80      0.03      2.39      0.23
 REAL TIME  *         3.27 SEC
 DISK USED  *        34.99 MB      
 **********************************************************************************************************************************
 Molecular orbitals read from record     2100.2  Type=RKS/LOCAL(IBO)  
 Occupation numbers read from record     2100.2  Type=RKS/LOCAL(IBO)  
 Orbital energies read from record       2100.2  Type=RKS/LOCAL(IBO)  
 Redundancy group numbers read from rec  2100.2  Type=RKS/LOCAL(IBO)  

 IBBA/STO-3G energy=      0.000000000000

        KS-SCF  
   -153.03011633
 **********************************************************************************************************************************
 Molpro calculation terminated
