
 Primary working directories    : /tmp/sb13343
 Secondary working directories  : /tmp/sb13343
 Wavefunction directory         : /panfs/panasas01/chem/sb13343/wfu/
 Main file repository           : /tmp/sb13343/

 SHA1      : b4a5b34a9e711420743f49e6833241d17c61fb3c
 NAME      : 2099.9.b4a5b34
 ARCHNAME  : linux/x86_64_openmp
 FC        : /cm/shared/languages/GCC-6.1/bin/gfortran
 BLASLIB   : -lblas
 id        : simonbennie

 Nodes     nprocs
 node32-007    1

 Using customized tuning parameters: mindgm=1; mindgv=20; mindgc=4; mindgr=1; noblas=0; minvec=7
 default implementation of scratch files=df  

 memory,500,m
 geomtyp=xyz
 nosym
 noorient
 geometry={
 H         -1.81763       -0.80620        0.00000
 O         -0.85078       -0.87151        0.00000
 C         -0.32298        0.45206        0.00000
 C          1.19308        0.34760        0.00000
 H          1.64898        1.34394        0.00000
 H         -0.66062        1.01252       -0.88753
 H         -0.66062        1.01252        0.88753
 H          1.53777       -0.19434       -0.88682
 H          1.53777       -0.19434        0.88682
 }
 basis={ default,sto-3g }
 {uks,SOGGA,direct;wf,26,1,0}
 {ibba,bonds=1}

 Variables initialized (895), CPU time= 0.00 sec
 Commands  initialized (725), CPU time= 0.02 sec, 591 directives.
 Default parameters read. Elapsed time= 0.09 sec

 Checking input...
 Passed
1


                                         ***  PROGRAM SYSTEM MOLPRO  ***
                                       Copyright, TTI GmbH Stuttgart, 2015
                                    Version 2099.9 linked May 26 2017 16:03:21


 **********************************************************************************************************************************
 LABEL *                                                                                 
  64 bit serial version                                                                  DATE: 08-Jun-17          TIME: 11:47:27  
 **********************************************************************************************************************************

 SHA1:             b4a5b34a9e711420743f49e6833241d17c61fb3c
 **********************************************************************************************************************************
 SETTING GEOMTYP        =    XYZ

 Variable memory set to  500000000 words,  buffer space 

 ZSYMEL=NOSYM

 SETTING BASIS          =    STO-3G


 Recomputing integrals since basis changed


 Using spherical harmonics

 Library entry H      S STO-3G               selected for orbital group  1
 Library entry O      S STO-3G               selected for orbital group  2
 Library entry O      P STO-3G               selected for orbital group  2
 Library entry C      S STO-3G               selected for orbital group  3
 Library entry C      P STO-3G               selected for orbital group  3


 PROGRAM * SEWARD (Integral evaluation for generally contracted gaussian basis sets)     Author: Roland Lindh, 1990

 Geometry written to block  1 of record 700


 Point group  C1  



 ATOMIC COORDINATES

 NR  ATOM    CHARGE       X              Y              Z

   1  H       1.00   -3.434822896   -1.523497202    0.000000000
   2  O       8.00   -1.607741192   -1.646915215    0.000000000
   3  C       6.00   -0.610343744    0.854269592    0.000000000
   4  C       6.00    2.254594445    0.656868801    0.000000000
   5  H       1.00    3.116120585    2.539678528    0.000000000
   6  H       1.00   -1.248390872    1.913385496   -1.677188627
   7  H       1.00   -1.248390872    1.913385496    1.677188627
   8  H       1.00    2.905964143   -0.367249375   -1.675846922
   9  H       1.00    2.905964143   -0.367249375    1.675846922

 Bond lengths in Bohr (Angstrom)

 1-2  1.831245357  2-3  2.692717421  3-4  2.871730819  3-6  2.083696794  3-7  2.083696794
     ( 0.969053311)     ( 1.424924694)     ( 1.519654505)     ( 1.102644858)     ( 1.102644858)

 4-5  2.070555423  4-8  2.069193908  4-9  2.069193908
     ( 1.095690744)     ( 1.094970261)     ( 1.094970261)

 Bond angles

  1-2-3  107.87621325   2-3-4  107.79904962   2-3-6  111.02105480   2-3-7  111.02105480

  3-4-5  110.64605443   3-4-8  110.36936729   3-4-9  110.36936729   4-3-6  109.90272099

  4-3-7  109.90272099   5-4-8  108.60711935   5-4-9  108.60711935   6-3-7  107.20315121

  8-4-9  108.17296435

 NUCLEAR CHARGE:                   26
 NUMBER OF PRIMITIVE AOS:          63
 NUMBER OF SYMMETRY AOS:           63
 NUMBER OF CONTRACTIONS:           21   (  21A   )
 NUMBER OF CORE ORBITALS:           3   (   3A   )
 NUMBER OF VALENCE ORBITALS:       18   (  18A   )


 NUCLEAR REPULSION ENERGY   81.60955194


 Eigenvalues of metric

         1 0.212E+00 0.263E+00 0.352E+00 0.355E+00 0.377E+00 0.393E+00 0.407E+00 0.473E+00


 Contracted 2-electron integrals neglected if value below      1.0D-11
 AO integral compression algorithm  1   Integral accuracy      1.0D-11

     0.262 MB (compressed) written to integral file (100.0%)


 NUMBER OF SORTED TWO-ELECTRON INTEGRALS:      26796.     BUFFER LENGTH:  32768
 NUMBER OF SEGMENTS:   1  SEGMENT LENGTH:      26796      RECORD LENGTH: 524288

 Memory used in sort:       0.58 MW

 SORT1 READ       32379. AND WROTE       21718. INTEGRALS IN      1 RECORDS. CPU TIME:     0.00 SEC, REAL TIME:     0.01 SEC
 SORT2 READ       21718. AND WROTE       26796. INTEGRALS IN      1 RECORDS. CPU TIME:     0.01 SEC, REAL TIME:     0.01 SEC

 FILE SIZES:   FILE 1:    30.4 MBYTE,  FILE 4:     4.2 MBYTE,   TOTAL:     34.6 MBYTE

 OPERATOR DM      FOR CENTER  0  COORDINATES:    0.000000    0.000000    0.000000


 **********************************************************************************************************************************
 DATASETS  * FILE   NREC   LENGTH (MB)   RECORD NAMES
              1      19       30.21       500      610      700      900      950      970     1000      129      960     1100   
                                          VAR    BASINP    GEOM    SYMINP    ZMAT    AOBASIS   BASIS     P2S    ABASIS      S 
                                         1400     1410     1200     1210     1080     1600     1650     1300     1700   
                                           T        V       H0       H01     AOSYM     SMH    MOLCAS    ERIS     OPER   

 PROGRAMS   *        TOTAL       INT
 CPU TIMES  *         0.45      0.29
 REAL TIME  *         1.44 SEC
 DISK USED  *        34.99 MB      
 **********************************************************************************************************************************

 Density functional group SOGGA=XC-SOGGA
 Functional: XC-SOGGA(via MFM 1.6)                                             Gradient terms: 1
 Use grid at  1800.2

 Functional: XC-SOGGA                  Factor:  1.0000

 Generated new metagrid on record  1800.2 with target accuracy 1.0D-06 and 30796 points in CPU time    0.7
 Computed new grid on record 1800.1 in CPU time    0.8
   20895 words reserved for DFT integration

 PROGRAM * UKS-SCF (Unrestricted Kohn-Sham)     Authors: W. Meyer, H.-J. Werner, P.J. Knowles, 1993

 NUMBER OF ELECTRONS:      13+   13-    SPACE SYMMETRY=1    SPIN SYMMETRY: Singlet 
 CONVERGENCE THRESHOLDS:    1.00E-05 (Density)    1.00E-06 (Energy)
 MAX. NUMBER OF ITERATIONS:       60
 INTERPOLATION TYPE:            DIIS
 INTERPOLATION STEPS:              2 (START)      1 (STEP)
 LEVEL SHIFTS:                 -0.20 (ALPHA)  -0.20 (BETA) 



 Use fine grid record 1800.2 for energy threshold  1.0D-06
 Orbital guess generated from atomic densities. Full valence occupancy:   13

 Molecular orbital dump at record        2200.2

 Initial alpha occupation  13
 Initial beta  occupation  13

 ITERATION    DDIFF          GRAD             ENERGY        2-EL.EN.            DIPOLE MOMENTS         DIIS
    1      0.000D+00      0.000D+00      -151.90566454    322.696798   -0.59332    1.01795    0.00000    0
    2      0.730D-01      0.234D-01      -152.07226970    312.740639   -0.24136    0.25729    0.00000    1
    3      0.127D-01      0.548D-02      -152.08037089    314.333519   -0.30828    0.38618   -0.00000    2
    4      0.168D-02      0.538D-03      -152.08048950    314.324336   -0.30680    0.38426   -0.00000    3
    5      0.763D-03      0.198D-03      -152.08051033    314.317611   -0.30765    0.38456   -0.00000    4
    6      0.250D-03      0.465D-04      -152.08051197    314.317253   -0.30774    0.38304   -0.00000    5
    7      0.516D-04      0.176D-04      -152.08051207    314.317586   -0.30780    0.38368   -0.00000    6
    8      0.136D-04      0.417D-05      -152.08051208    314.317548   -0.30775    0.38356   -0.00000    6
    9      0.210D-05      0.376D-06      -152.08051208    314.317567   -0.30775    0.38356   -0.00000    6
   10      0.245D-06      0.435D-07      -152.08051208    314.317561   -0.30775    0.38356   -0.00000    5

 Final alpha occupancy:  13
 Final beta  occupancy:  13

 !UKS STATE 1.1 Energy               -152.080512077580
 Nuclear energy                        81.60955194
 One-electron energy                 -370.02524690
 Two-electron energy                  157.15878068
 Density functional                   -20.82359779     XC-SOGGA=-20.82359779
 Virial quotient                       -1.00898674
 !UKS STATE 1.1 Dipole moment          -0.30774873     0.38355635    -0.00000000
 Dipole moment /Debye                  -0.78216802     0.97483915    -0.00000000

 Orbital energies for positive spin:

         1.1          2.1          3.1          4.1          5.1          6.1          7.1          8.1          9.1         10.1
    -18.375176    -9.673146    -9.627946    -0.847479    -0.622794    -0.492760    -0.386902    -0.357541    -0.286039    -0.273947

        11.1         12.1         13.1         14.1         15.1
     -0.259182    -0.144178    -0.053070     0.282518     0.369994

 Orbital energies for negative spin:

         1.1          2.1          3.1          4.1          5.1          6.1          7.1          8.1          9.1         10.1
    -18.375176    -9.673146    -9.627946    -0.847479    -0.622794    -0.492760    -0.386902    -0.357541    -0.286039    -0.273947

        11.1         12.1         13.1         14.1         15.1
     -0.259182    -0.144178    -0.053070     0.282518     0.369994

 HOMO     13.1    -0.053070 =      -1.4441eV
 LUMO     14.1     0.282518 =       7.6877eV
 LUMO-HOMO         0.335588 =       9.1318eV

 EXPECTATION VALUE OF S**2:            -0.00000000

 Natural orbitals saved to record    2200.2 (Orbital set 3)

 Orbital spaces for UNO-CAS (Min. occupation: 0.020  Max. occupation: 1.980):

 Closed:       13
 Active:        0


 **********************************************************************************************************************************
 DATASETS  * FILE   NREC   LENGTH (MB)   RECORD NAMES
              1      20       31.20       500      610      700      900      950      970     1000      129      960     1100   
                                          VAR    BASINP    GEOM    SYMINP    ZMAT    AOBASIS   BASIS     P2S    ABASIS      S 
                                         1400     1410     1200     1210     1080     1600     1650     1300     1700     1800   
                                           T        V       H0       H01     AOSYM     SMH    MOLCAS    ERIS     OPER     GRID   

              2       5        2.91       700     1000      520     1800     2200   
                                         GEOM     BASIS   MCVARS    GRID      UKS  

 PROGRAMS   *        TOTAL       UKS       INT
 CPU TIMES  *         3.17      2.72      0.29
 REAL TIME  *         4.33 SEC
 DISK USED  *        34.99 MB      
 **********************************************************************************************************************************


 PROGRAM * Intrinsic Basis Bonding Analysis (IBBA)          Author: G. Knizia

 Molecular orbitals read from record     2200.2  Type=UKS/ALPHA (state 1.1)
 Fock matrix read from record            2200.2  Type=UKS/TOTAL (state 1.1)
 Orbital energies read from record       2200.2  Type=UKS/ALPHA (state 1.1)
 Density matrix read from record         2200.2  Type=UKS/CHARGE (state 1.1)

 Number of core orbitals:           3 (   3 )
 Number of closed-shell orbitals:  10 (  10 )

 Basis set MINAO-AUTO-PP generated.      Number of basis functions:   21 

 Polarized AO type:                A = (O Ot + (1-O)(1-Ot)) P12
 Orthogonalization method:         Symmetric (Loewdin)
 Localization functional:          L = sum[A,i] <i|n_A|i>^4 -> max

 Localization group 1:  13 orbitals, occupancy  2.000
 Iterative localization: IB/PM,    7 iter; Final gradient 0.20E-09

 Bond order analysis:       [THRPRINT= 0.020]

   CEN ATOM   CEN ATOM     WIBERG.BO      RENORM.BO
     1   H  -   2   O       0.925927       0.984865

     2   O  -   3   C       1.029174       1.012551
     2   O  -   1   H       0.925927       0.984865
     2   O  -   7   H       0.032542       0.019057
     2   O  -   6   H       0.032542       0.019057

     3   C  -   2   O       1.029174       1.012551
     3   C  -   4   C       1.016080       1.005798
     3   C  -   6   H       0.938227       0.930146
     3   C  -   7   H       0.938227       0.930146

     4   C  -   3   C       1.016080       1.005798
     4   C  -   5   H       0.961350       0.991020
     4   C  -   8   H       0.959066       0.985716
     4   C  -   9   H       0.959066       0.985716

     5   H  -   4   C       0.961350       0.991020

     6   H  -   3   C       0.938227       0.930146
     6   H  -   2   O       0.032542       0.019057

     7   H  -   3   C       0.938227       0.930146
     7   H  -   2   O       0.032542       0.019057

     8   H  -   4   C       0.959066       0.985716

     9   H  -   4   C       0.959066       0.985716


 Valency analysis:

   CEN ATOM   TOT.VALENCE
     1   H       0.942405
     2   O       2.044392
     3   C       3.926652
     4   C       3.923527
     5   H       0.979255
     6   H       0.986320
     7   H       0.986320
     8   H       0.978745
     9   H       0.978745

 Total charge composition:

   CEN ATOM         s          p       ELECTRONS ->P.CHARGE
     1   H       0.76001                 0.76001    0.23999
     2   O       3.67317    4.65635      8.32952   -0.32952
     3   C       2.98751    3.16930      6.15681   -0.15681
     4   C       2.99782    3.42536      6.42319   -0.42319
     5   H       0.85597                 0.85597    0.14403
     6   H       0.88304                 0.88304    0.11696
     7   H       0.88304                 0.88304    0.11696
     8   H       0.85421                 0.85421    0.14579
     9   H       0.85421                 0.85421    0.14579

 Total charge composition, AO contributions:

   CEN ATOM SHL      SPHERICAL COMPONENTS
     1   H  1s       0.76001

     2   O  1s       1.99736
     2   O  2s       1.67581
     2   O  2p       1.31908    1.38560    1.95167

     3   C  1s       1.99314
     3   C  2s       0.99437
     3   C  2p       1.05049    0.93766    1.18116

     4   C  1s       1.99228
     4   C  2s       1.00554
     4   C  2p       1.06050    1.17900    1.18586

     5   H  1s       0.85597

     6   H  1s       0.88304

     7   H  1s       0.88304

     8   H  1s       0.85421

     9   H  1s       0.85421

 Summary of localized orbital composition:   [THRPRINT= 0.020]

   ORB  GRP  ORB.ENERGY      CENTERS/CHARGES
     1   1   -18.219003      O  2   2.000
     2   1    -9.572986      C  3   2.000
     3   1    -9.518438      C  4   2.000
     4   1    -0.589296      O  2   1.236   H  1   0.753
     5   1    -0.561429      O  2   1.154   C  3   0.840
     6   1    -0.468742      C  3   1.002   C  4   0.987
     7   1    -0.412283      C  3   1.133   H  7   0.859
     8   1    -0.412283      C  3   1.133   H  6   0.859
     9   1    -0.399673      C  4   1.139   H  5   0.849
    10   1    -0.392704      C  4   1.143   H  9   0.848
    11   1    -0.392704      C  4   1.143   H  8   0.848
    12   1    -0.390319      O  2   1.984
    13   1    -0.070302      O  2   1.952   (other: 0.048)

 Localized orbitals saved to record      2200.2  (orbital set 4)


 **********************************************************************************************************************************
 DATASETS  * FILE   NREC   LENGTH (MB)   RECORD NAMES
              1      20       31.20       500      610      700      900      950      970     1000      129      960     1100   
                                          VAR    BASINP    GEOM    SYMINP    ZMAT    AOBASIS   BASIS     P2S    ABASIS      S 
                                         1400     1410     1200     1210     1080     1600     1650     1300     1700     1800   
                                           T        V       H0       H01     AOSYM     SMH    MOLCAS    ERIS     OPER     GRID   

              2       5        2.92       700     1000      520     1800     2200   
                                         GEOM     BASIS   MCVARS    GRID      UKS  

 PROGRAMS   *        TOTAL      IBBA       UKS       INT
 CPU TIMES  *         3.20      0.03      2.72      0.29
 REAL TIME  *         4.41 SEC
 DISK USED  *        34.99 MB      
 **********************************************************************************************************************************
 Molecular orbitals read from record     2200.2  Type=UKS/LOCAL(IBO)  
 Occupation numbers read from record     2200.2  Type=UKS/LOCAL(IBO)  
 Orbital energies read from record       2200.2  Type=UKS/LOCAL(IBO)  
 Redundancy group numbers read from rec  2200.2  Type=UKS/BETA (state 1.1)

 IBBA/STO-3G energy=      0.000000000000

        UKS-SCF 
   -152.08051208
 **********************************************************************************************************************************
 Molpro calculation terminated
