
 Primary working directories    : /tmp/sb13343
 Secondary working directories  : /tmp/sb13343
 Wavefunction directory         : /panfs/panasas01/chem/sb13343/wfu/
 Main file repository           : /tmp/sb13343/

 SHA1      : b4a5b34a9e711420743f49e6833241d17c61fb3c
 NAME      : 2099.9.b4a5b34
 ARCHNAME  : linux/x86_64_openmp
 FC        : /cm/shared/languages/GCC-6.1/bin/gfortran
 BLASLIB   : -lblas
 id        : simonbennie

 Nodes     nprocs
 node44-015    1

 Using customized tuning parameters: mindgm=1; mindgv=20; mindgc=4; mindgr=1; noblas=0; minvec=7
 default implementation of scratch files=df  

 memory,500,m
 geomtyp=xyz
 nosym
 noorient
 geometry={
 H         -1.81763       -0.80620        0.00000
 O         -0.85078       -0.87151        0.00000
 C         -0.32298        0.45206        0.00000
 C          1.19308        0.34760        0.00000
 H          1.64898        1.34394        0.00000
 H         -0.66062        1.01252       -0.88753
 H         -0.66062        1.01252        0.88753
 H          1.53777       -0.19434       -0.88682
 H          1.53777       -0.19434        0.88682
 }
 basis={ default,svp }
 {ks,PBEREV,direct;wf,26,1,0}
 {ibba,bonds=1}

 Variables initialized (895), CPU time= 0.00 sec
 Commands  initialized (725), CPU time= 0.02 sec, 591 directives.
 Default parameters read. Elapsed time= 0.09 sec

 Checking input...
 Passed
1


                                         ***  PROGRAM SYSTEM MOLPRO  ***
                                       Copyright, TTI GmbH Stuttgart, 2015
                                    Version 2099.9 linked May 26 2017 16:03:21


 **********************************************************************************************************************************
 LABEL *                                                                                 
  64 bit serial version                                                                  DATE: 08-Jun-17          TIME: 12:00:15  
 **********************************************************************************************************************************

 SHA1:             b4a5b34a9e711420743f49e6833241d17c61fb3c
 **********************************************************************************************************************************
 SETTING GEOMTYP        =    XYZ

 Variable memory set to  500000000 words,  buffer space 

 ZSYMEL=NOSYM

 SETTING BASIS          =    SVP


 Recomputing integrals since basis changed


 Using spherical harmonics

 Library entry H      S def2-SVP             selected for orbital group  1
 Library entry H      P def2-SVP             selected for orbital group  1
 Library entry O      S def2-SVP             selected for orbital group  2
 Library entry O      P def2-SVP             selected for orbital group  2
 Library entry O      D def2-SVP             selected for orbital group  2
 Library entry C      S def2-SVP             selected for orbital group  3
 Library entry C      P def2-SVP             selected for orbital group  3
 Library entry C      D def2-SVP             selected for orbital group  3


 PROGRAM * SEWARD (Integral evaluation for generally contracted gaussian basis sets)     Author: Roland Lindh, 1990

 Geometry written to block  1 of record 700


 Point group  C1  



 ATOMIC COORDINATES

 NR  ATOM    CHARGE       X              Y              Z

   1  H       1.00   -3.434822896   -1.523497202    0.000000000
   2  O       8.00   -1.607741192   -1.646915215    0.000000000
   3  C       6.00   -0.610343744    0.854269592    0.000000000
   4  C       6.00    2.254594445    0.656868801    0.000000000
   5  H       1.00    3.116120585    2.539678528    0.000000000
   6  H       1.00   -1.248390872    1.913385496   -1.677188627
   7  H       1.00   -1.248390872    1.913385496    1.677188627
   8  H       1.00    2.905964143   -0.367249375   -1.675846922
   9  H       1.00    2.905964143   -0.367249375    1.675846922

 Bond lengths in Bohr (Angstrom)

 1-2  1.831245357  2-3  2.692717421  3-4  2.871730819  3-6  2.083696794  3-7  2.083696794
     ( 0.969053311)     ( 1.424924694)     ( 1.519654505)     ( 1.102644858)     ( 1.102644858)

 4-5  2.070555423  4-8  2.069193908  4-9  2.069193908
     ( 1.095690744)     ( 1.094970261)     ( 1.094970261)

 Bond angles

  1-2-3  107.87621325   2-3-4  107.79904962   2-3-6  111.02105480   2-3-7  111.02105480

  3-4-5  110.64605443   3-4-8  110.36936729   3-4-9  110.36936729   4-3-6  109.90272099

  4-3-7  109.90272099   5-4-8  108.60711935   5-4-9  108.60711935   6-3-7  107.20315121

  8-4-9  108.17296435

 NUCLEAR CHARGE:                   26
 NUMBER OF PRIMITIVE AOS:         117
 NUMBER OF SYMMETRY AOS:          114
 NUMBER OF CONTRACTIONS:           72   (  72A   )
 NUMBER OF CORE ORBITALS:           3   (   3A   )
 NUMBER OF VALENCE ORBITALS:       18   (  18A   )


 NUCLEAR REPULSION ENERGY   81.60955194


 Eigenvalues of metric

         1 0.375E-02 0.159E-01 0.292E-01 0.324E-01 0.398E-01 0.436E-01 0.556E-01 0.658E-01


 Contracted 2-electron integrals neglected if value below      1.0D-11
 AO integral compression algorithm  1   Integral accuracy      1.0D-11

     14.418 MB (compressed) written to integral file ( 45.7%)


 NUMBER OF SORTED TWO-ELECTRON INTEGRALS:    3454506.     BUFFER LENGTH:  32768
 NUMBER OF SEGMENTS:   1  SEGMENT LENGTH:    3454506      RECORD LENGTH: 524288

 Memory used in sort:       4.01 MW

 SORT1 READ     3945093. AND WROTE     2928993. INTEGRALS IN      9 RECORDS. CPU TIME:     0.03 SEC, REAL TIME:     0.08 SEC
 SORT2 READ     2928993. AND WROTE     3454506. INTEGRALS IN     55 RECORDS. CPU TIME:     0.12 SEC, REAL TIME:     0.13 SEC

 FILE SIZES:   FILE 1:    44.7 MBYTE,  FILE 4:    37.8 MBYTE,   TOTAL:     82.5 MBYTE

 OPERATOR DM      FOR CENTER  0  COORDINATES:    0.000000    0.000000    0.000000


 **********************************************************************************************************************************
 DATASETS  * FILE   NREC   LENGTH (MB)   RECORD NAMES
              1      19       42.60       500      610      700      900      950      970     1000      129      960     1100   
                                          VAR    BASINP    GEOM    SYMINP    ZMAT    AOBASIS   BASIS     P2S    ABASIS      S 
                                         1400     1410     1200     1210     1080     1600     1650     1300     1700   
                                           T        V       H0       H01     AOSYM     SMH    MOLCAS    ERIS     OPER   

 PROGRAMS   *        TOTAL       INT
 CPU TIMES  *         0.88      0.74
 REAL TIME  *         1.94 SEC
 DISK USED  *        82.90 MB      
 **********************************************************************************************************************************

 Density functional group PBEREV=PBEXREV+PBEC
 Functional: PBEXREV(Automatically generated (new) PBEXREV)                    Gradient terms: 1
 Functional: PBEC(Automatically generated (new) PBEC)                          Gradient terms: 1
 Use grid at  1800.2

 Functional: PBEXREV                   Factor:  1.0000
 Functional: PBEC                      Factor:  1.0000

 Generated new metagrid on record  1800.2 with target accuracy 1.0D-06 and 30796 points in CPU time    0.7
 Computed new grid on record 1800.1 in CPU time    0.7
   61197 words reserved for DFT integration

 PROGRAM * RKS-SCF (Restricted closed shell Kohn-Sham)     Authors: W. Meyer, H.-J. Werner, P.J. Knowles, 1993

 NUMBER OF ELECTRONS:      13+   13-    SPACE SYMMETRY=1    SPIN SYMMETRY: Singlet 
 CONVERGENCE THRESHOLDS:    1.00E-05 (Density)    1.00E-06 (Energy)
 MAX. NUMBER OF ITERATIONS:       60
 INTERPOLATION TYPE:            DIIS
 INTERPOLATION STEPS:              2 (START)      1 (STEP)
 LEVEL SHIFTS:                  0.00 (CLOSED)  0.00 (OPEN) 



 Use fine grid record 1800.2 for energy threshold  1.0D-06
 Orbital guess generated from atomic densities. Full valence occupancy:   13

 Molecular orbital dump at record        2100.2

 Initial occupancy:  13

 ITERATION    DDIFF          GRAD             ENERGY        2-EL.EN.            DIPOLE MOMENTS         DIIS   ORB.
    1      0.000D+00      0.000D+00      -154.71650916    322.773313   -0.58891    0.82031   -0.00000    0    start
    2      0.000D+00      0.140D-01      -154.49371426    297.504915   -0.02884   -0.42849    0.00000    1    diag
    3      0.358D-01      0.224D-01      -154.86737491    313.116865   -0.37126    0.57098   -0.00000    2    diag
    4      0.243D-01      0.206D-02      -154.86945244    312.913303   -0.37060    0.41308   -0.00000    3    diag
    5      0.220D-02      0.102D-02      -154.87011513    312.821068   -0.36361    0.44040   -0.00000    4    diag
    6      0.784D-03      0.139D-03      -154.87012635    312.842667   -0.36472    0.44597   -0.00000    5    diag
    7      0.127D-03      0.470D-04      -154.87012782    312.837368   -0.36535    0.44530   -0.00000    6    diag
    8      0.459D-04      0.148D-04      -154.87012799    312.842390   -0.36500    0.44505   -0.00000    7    diag
    9      0.140D-04      0.239D-05      -154.87012799    312.842513   -0.36510    0.44528   -0.00000    8    diag
   10      0.256D-05      0.201D-06      -154.87012799    312.842349   -0.36509    0.44522   -0.00000    0    orth

 Final occupancy:  13

 !RKS STATE 1.1 Energy               -154.870127991056
 Nuclear energy                        81.60955194
 One-electron energy                 -371.28101252
 Two-electron energy                  156.42117456
 Density functional                   -21.61984197     PBEXREV=-20.77014047 PBEC= -0.84970150
 Virial quotient                       -1.00988474
 !RKS STATE 1.1 Dipole moment          -0.36509044     0.44522220    -0.00000000
 Dipole moment /Debye                  -0.92790656     1.13156784    -0.00000000

 Orbital energies:

         1.1          2.1          3.1          4.1          5.1          6.1          7.1          8.1          9.1         10.1
    -18.754938    -9.945368    -9.893923    -0.908772    -0.666509    -0.537233    -0.456604    -0.406020    -0.346875    -0.332714

        11.1         12.1         13.1         14.1         15.1
     -0.312350    -0.275308    -0.209036     0.032616     0.066949

 HOMO     13.1    -0.209036 =      -5.6882eV
 LUMO     14.1     0.032616 =       0.8875eV
 LUMO-HOMO         0.241652 =       6.5757eV


 **********************************************************************************************************************************
 DATASETS  * FILE   NREC   LENGTH (MB)   RECORD NAMES
              1      20       43.59       500      610      700      900      950      970     1000      129      960     1100   
                                          VAR    BASINP    GEOM    SYMINP    ZMAT    AOBASIS   BASIS     P2S    ABASIS      S 
                                         1400     1410     1200     1210     1080     1600     1650     1300     1700     1800   
                                           T        V       H0       H01     AOSYM     SMH    MOLCAS    ERIS     OPER     GRID   

              2       5        3.00       700     1000      520     1800     2100   
                                         GEOM     BASIS   MCVARS    GRID      RKS  

 PROGRAMS   *        TOTAL        KS       INT
 CPU TIMES  *         4.88      3.99      0.74
 REAL TIME  *         6.45 SEC
 DISK USED  *        82.90 MB      
 **********************************************************************************************************************************


 PROGRAM * Intrinsic Basis Bonding Analysis (IBBA)          Author: G. Knizia

 Molecular orbitals read from record     2100.2  Type=RKS/CANONICAL (state 1.1)
 Fock matrix read from record            2100.2  Type=RKS/TOTAL (state 1.1)
 Orbital energies read from record       2100.2  Type=RKS/CANONICAL (state 1.1)
 Density matrix read from record         2100.2  Type=RKS/CHARGE (state 1.1)

 Number of core orbitals:           3 (   3 )
 Number of closed-shell orbitals:  10 (  10 )

 Basis set MINAO-AUTO-PP generated.      Number of basis functions:   21 

 Polarized AO type:                A = (O Ot + (1-O)(1-Ot)) P12
 Orthogonalization method:         Symmetric (Loewdin)
 Localization functional:          L = sum[A,i] <i|n_A|i>^4 -> max

 Localization group 1:  13 orbitals, occupancy  2.000
 Iterative localization: IB/PM,    7 iter; Final gradient 0.22E-09

 Bond order analysis:       [THRPRINT= 0.020]

   CEN ATOM   CEN ATOM     WIBERG.BO      RENORM.BO
     1   H  -   2   O       0.874751       0.985062

     2   O  -   3   C       0.984532       0.999847
     2   O  -   1   H       0.874751       0.985062
     2   O  -   7   H       0.030594       0.017710
     2   O  -   6   H       0.030594       0.017710

     3   C  -   4   C       1.030705       1.019204
     3   C  -   2   O       0.984532       0.999847
     3   C  -   6   H       0.939625       0.928707
     3   C  -   7   H       0.939625       0.928707

     4   C  -   3   C       1.030705       1.019204
     4   C  -   5   H       0.961225       0.988147
     4   C  -   8   H       0.957796       0.979095
     4   C  -   9   H       0.957796       0.979095

     5   H  -   4   C       0.961225       0.988147

     6   H  -   3   C       0.939625       0.928707
     6   H  -   2   O       0.030594       0.017710

     7   H  -   3   C       0.939625       0.928707
     7   H  -   2   O       0.030594       0.017710

     8   H  -   4   C       0.957796       0.979095

     9   H  -   4   C       0.957796       0.979095


 Valency analysis:

   CEN ATOM   TOT.VALENCE
     1   H       0.889589
     2   O       1.955972
     3   C       3.900489
     4   C       3.938689
     5   H       0.982154
     6   H       0.988909
     7   H       0.988909
     8   H       0.980884
     9   H       0.980884

 Total charge composition:

   CEN ATOM         s          p       ELECTRONS ->P.CHARGE
     1   H       0.66772                 0.66772    0.33228
     2   O       3.62942    4.89044      8.51985   -0.51985
     3   C       2.98630    3.04849      6.03479   -0.03479
     4   C       3.02413    3.37425      6.39838   -0.39838
     5   H       0.86641                 0.86641    0.13359
     6   H       0.89468                 0.89468    0.10532
     7   H       0.89468                 0.89468    0.10532
     8   H       0.86174                 0.86174    0.13826
     9   H       0.86174                 0.86174    0.13826

 Total charge composition, AO contributions:

   CEN ATOM SHL      SPHERICAL COMPONENTS
     1   H  1s       0.66772

     2   O  1s       1.99705
     2   O  2s       1.63237
     2   O  2p       1.42173    1.51358    1.95513

     3   C  1s       1.99207
     3   C  2s       0.99424
     3   C  2p       1.02850    0.86469    1.15530

     4   C  1s       1.99102
     4   C  2s       1.03311
     4   C  2p       1.04762    1.15761    1.16902

     5   H  1s       0.86641

     6   H  1s       0.89468

     7   H  1s       0.89468

     8   H  1s       0.86174

     9   H  1s       0.86174

 Summary of localized orbital composition:   [THRPRINT= 0.020]

   ORB  GRP  ORB.ENERGY      CENTERS/CHARGES
     1   1   -18.611920      O  2   2.000
     2   1    -9.844236      C  3   2.000
     3   1    -9.781293      C  4   2.000
     4   1    -0.683292      O  2   1.329   H  1   0.660
     5   1    -0.664338      O  2   1.255   C  3   0.739
     6   1    -0.522891      C  3   1.003   C  4   0.990
     7   1    -0.470457      O  2   1.978   (other: 0.022)
     8   1    -0.457717      C  3   1.118   H  7   0.872
     9   1    -0.457717      C  3   1.118   H  6   0.872
    10   1    -0.443221      C  4   1.124   H  5   0.859
    11   1    -0.436986      C  4   1.134   H  9   0.854
    12   1    -0.436986      C  4   1.134   H  8   0.854
    13   1    -0.234597      O  2   1.955   (other: 0.045)

 Localized orbitals saved to record      2100.2  (orbital set 2)


 **********************************************************************************************************************************
 DATASETS  * FILE   NREC   LENGTH (MB)   RECORD NAMES
              1      20       43.59       500      610      700      900      950      970     1000      129      960     1100   
                                          VAR    BASINP    GEOM    SYMINP    ZMAT    AOBASIS   BASIS     P2S    ABASIS      S 
                                         1400     1410     1200     1210     1080     1600     1650     1300     1700     1800   
                                           T        V       H0       H01     AOSYM     SMH    MOLCAS    ERIS     OPER     GRID   

              2       5        3.04       700     1000      520     1800     2100   
                                         GEOM     BASIS   MCVARS    GRID      RKS  

 PROGRAMS   *        TOTAL      IBBA        KS       INT
 CPU TIMES  *         4.91      0.04      3.99      0.74
 REAL TIME  *         6.55 SEC
 DISK USED  *        82.90 MB      
 **********************************************************************************************************************************
 Molecular orbitals read from record     2100.2  Type=RKS/LOCAL(IBO)  
 Occupation numbers read from record     2100.2  Type=RKS/LOCAL(IBO)  
 Orbital energies read from record       2100.2  Type=RKS/LOCAL(IBO)  
 Redundancy group numbers read from rec  2100.2  Type=RKS/LOCAL(IBO)  

 IBBA/SVP energy=      0.000000000000

        KS-SCF  
   -154.87012799
 **********************************************************************************************************************************
 Molpro calculation terminated
