
 Primary working directories    : /tmp/sb13343
 Secondary working directories  : /tmp/sb13343
 Wavefunction directory         : /panfs/panasas01/chem/sb13343/wfu/
 Main file repository           : /tmp/sb13343/

 SHA1      : b4a5b34a9e711420743f49e6833241d17c61fb3c
 NAME      : 2099.9.b4a5b34
 ARCHNAME  : linux/x86_64_openmp
 FC        : /cm/shared/languages/GCC-6.1/bin/gfortran
 BLASLIB   : -lblas
 id        : simonbennie

 Nodes     nprocs
 node35-012    1

 Using customized tuning parameters: mindgm=1; mindgv=20; mindgc=4; mindgr=1; noblas=0; minvec=7
 default implementation of scratch files=df  

 memory,500,m
 geomtyp=xyz
 nosym
 noorient
 geometry={
 H         -1.81763       -0.80620        0.00000
 O         -0.85078       -0.87151        0.00000
 C         -0.32298        0.45206        0.00000
 C          1.19308        0.34760        0.00000
 H          1.64898        1.34394        0.00000
 H         -0.66062        1.01252       -0.88753
 H         -0.66062        1.01252        0.88753
 H          1.53777       -0.19434       -0.88682
 H          1.53777       -0.19434        0.88682
 }
 basis={ default,svp }
 {ks,B-LYP,direct;wf,26,1,0}
 {ibba,bonds=1}

 Variables initialized (895), CPU time= 0.00 sec
 Commands  initialized (725), CPU time= 0.02 sec, 591 directives.
 Default parameters read. Elapsed time= 0.08 sec

 Checking input...
 Passed
1


                                         ***  PROGRAM SYSTEM MOLPRO  ***
                                       Copyright, TTI GmbH Stuttgart, 2015
                                    Version 2099.9 linked May 26 2017 16:03:21


 **********************************************************************************************************************************
 LABEL *                                                                                 
  64 bit serial version                                                                  DATE: 08-Jun-17          TIME: 11:50:39  
 **********************************************************************************************************************************

 SHA1:             b4a5b34a9e711420743f49e6833241d17c61fb3c
 **********************************************************************************************************************************
 SETTING GEOMTYP        =    XYZ

 Variable memory set to  500000000 words,  buffer space 

 ZSYMEL=NOSYM

 SETTING BASIS          =    SVP


 Recomputing integrals since basis changed


 Using spherical harmonics

 Library entry H      S def2-SVP             selected for orbital group  1
 Library entry H      P def2-SVP             selected for orbital group  1
 Library entry O      S def2-SVP             selected for orbital group  2
 Library entry O      P def2-SVP             selected for orbital group  2
 Library entry O      D def2-SVP             selected for orbital group  2
 Library entry C      S def2-SVP             selected for orbital group  3
 Library entry C      P def2-SVP             selected for orbital group  3
 Library entry C      D def2-SVP             selected for orbital group  3


 PROGRAM * SEWARD (Integral evaluation for generally contracted gaussian basis sets)     Author: Roland Lindh, 1990

 Geometry written to block  1 of record 700


 Point group  C1  



 ATOMIC COORDINATES

 NR  ATOM    CHARGE       X              Y              Z

   1  H       1.00   -3.434822896   -1.523497202    0.000000000
   2  O       8.00   -1.607741192   -1.646915215    0.000000000
   3  C       6.00   -0.610343744    0.854269592    0.000000000
   4  C       6.00    2.254594445    0.656868801    0.000000000
   5  H       1.00    3.116120585    2.539678528    0.000000000
   6  H       1.00   -1.248390872    1.913385496   -1.677188627
   7  H       1.00   -1.248390872    1.913385496    1.677188627
   8  H       1.00    2.905964143   -0.367249375   -1.675846922
   9  H       1.00    2.905964143   -0.367249375    1.675846922

 Bond lengths in Bohr (Angstrom)

 1-2  1.831245357  2-3  2.692717421  3-4  2.871730819  3-6  2.083696794  3-7  2.083696794
     ( 0.969053311)     ( 1.424924694)     ( 1.519654505)     ( 1.102644858)     ( 1.102644858)

 4-5  2.070555423  4-8  2.069193908  4-9  2.069193908
     ( 1.095690744)     ( 1.094970261)     ( 1.094970261)

 Bond angles

  1-2-3  107.87621325   2-3-4  107.79904962   2-3-6  111.02105480   2-3-7  111.02105480

  3-4-5  110.64605443   3-4-8  110.36936729   3-4-9  110.36936729   4-3-6  109.90272099

  4-3-7  109.90272099   5-4-8  108.60711935   5-4-9  108.60711935   6-3-7  107.20315121

  8-4-9  108.17296435

 NUCLEAR CHARGE:                   26
 NUMBER OF PRIMITIVE AOS:         117
 NUMBER OF SYMMETRY AOS:          114
 NUMBER OF CONTRACTIONS:           72   (  72A   )
 NUMBER OF CORE ORBITALS:           3   (   3A   )
 NUMBER OF VALENCE ORBITALS:       18   (  18A   )


 NUCLEAR REPULSION ENERGY   81.60955194


 Eigenvalues of metric

         1 0.375E-02 0.159E-01 0.292E-01 0.324E-01 0.398E-01 0.436E-01 0.556E-01 0.658E-01


 Contracted 2-electron integrals neglected if value below      1.0D-11
 AO integral compression algorithm  1   Integral accuracy      1.0D-11

     14.418 MB (compressed) written to integral file ( 45.7%)


 NUMBER OF SORTED TWO-ELECTRON INTEGRALS:    3454506.     BUFFER LENGTH:  32768
 NUMBER OF SEGMENTS:   1  SEGMENT LENGTH:    3454506      RECORD LENGTH: 524288

 Memory used in sort:       4.01 MW

 SORT1 READ     3945093. AND WROTE     2928993. INTEGRALS IN      9 RECORDS. CPU TIME:     0.04 SEC, REAL TIME:     0.09 SEC
 SORT2 READ     2928993. AND WROTE     3454506. INTEGRALS IN     55 RECORDS. CPU TIME:     0.12 SEC, REAL TIME:     0.15 SEC

 FILE SIZES:   FILE 1:    44.7 MBYTE,  FILE 4:    37.8 MBYTE,   TOTAL:     82.5 MBYTE

 OPERATOR DM      FOR CENTER  0  COORDINATES:    0.000000    0.000000    0.000000


 **********************************************************************************************************************************
 DATASETS  * FILE   NREC   LENGTH (MB)   RECORD NAMES
              1      19       42.60       500      610      700      900      950      970     1000      129      960     1100   
                                          VAR    BASINP    GEOM    SYMINP    ZMAT    AOBASIS   BASIS     P2S    ABASIS      S 
                                         1400     1410     1200     1210     1080     1600     1650     1300     1700   
                                           T        V       H0       H01     AOSYM     SMH    MOLCAS    ERIS     OPER   

 PROGRAMS   *        TOTAL       INT
 CPU TIMES  *         0.94      0.79
 REAL TIME  *         1.38 SEC
 DISK USED  *        82.90 MB      
 **********************************************************************************************************************************

 Density functional group B-LYP=B88+LYP
 Functional: B88(Automatically generated (new) B88)                            Gradient terms: 1
 Functional: LYP(Automatically generated (new) LYP)                            Gradient terms: 1
 Use grid at  1800.2

 Functional: B88                       Factor:  1.0000
 Functional: LYP                       Factor:  1.0000

 Generated new metagrid on record  1800.2 with target accuracy 1.0D-06 and 30796 points in CPU time    0.7
 Computed new grid on record 1800.1 in CPU time    0.8
   61197 words reserved for DFT integration

 PROGRAM * RKS-SCF (Restricted closed shell Kohn-Sham)     Authors: W. Meyer, H.-J. Werner, P.J. Knowles, 1993

 NUMBER OF ELECTRONS:      13+   13-    SPACE SYMMETRY=1    SPIN SYMMETRY: Singlet 
 CONVERGENCE THRESHOLDS:    1.00E-05 (Density)    1.00E-06 (Energy)
 MAX. NUMBER OF ITERATIONS:       60
 INTERPOLATION TYPE:            DIIS
 INTERPOLATION STEPS:              2 (START)      1 (STEP)
 LEVEL SHIFTS:                  0.00 (CLOSED)  0.00 (OPEN) 



 Use fine grid record 1800.2 for energy threshold  1.0D-06
 Orbital guess generated from atomic densities. Full valence occupancy:   13

 Molecular orbital dump at record        2100.2

 Initial occupancy:  13

 ITERATION    DDIFF          GRAD             ENERGY        2-EL.EN.            DIPOLE MOMENTS         DIIS   ORB.
    1      0.000D+00      0.000D+00      -154.66416333    323.825747   -0.59741    0.85206   -0.00000    0    start
    2      0.000D+00      0.154D-01      -154.35769966    295.301320   -0.00453   -0.58157    0.00000    1    diag
    3      0.414D-01      0.256D-01      -154.84347098    313.214146   -0.37625    0.57999   -0.00000    2    diag
    4      0.292D-01      0.241D-02      -154.84618442    313.016130   -0.37384    0.40053   -0.00000    3    diag
    5      0.267D-02      0.127D-02      -154.84721408    312.887843   -0.36555    0.43166   -0.00000    4    diag
    6      0.987D-03      0.173D-03      -154.84723203    312.921713   -0.36767    0.43913   -0.00000    5    diag
    7      0.159D-03      0.572D-04      -154.84723426    312.916741   -0.36844    0.43863   -0.00000    6    diag
    8      0.538D-04      0.161D-04      -154.84723446    312.922914   -0.36808    0.43832   -0.00000    7    diag
    9      0.152D-04      0.232D-05      -154.84723446    312.923302   -0.36817    0.43855   -0.00000    8    diag
   10      0.260D-05      0.177D-06      -154.84723446    312.923175   -0.36816    0.43850   -0.00000    0    orth

 Final occupancy:  13

 !RKS STATE 1.1 Energy               -154.847234461022
 Nuclear energy                        81.60955194
 One-electron energy                 -371.31566137
 Two-electron energy                  156.46158749
 Density functional                   -21.60271252     B88=-20.74899090 LYP= -0.85372162
 Virial quotient                       -1.00935318
 !RKS STATE 1.1 Dipole moment          -0.36816048     0.43850130    -0.00000000
 Dipole moment /Debye                  -0.93570931     1.11448613    -0.00000000

 Orbital energies:

         1.1          2.1          3.1          4.1          5.1          6.1          7.1          8.1          9.1         10.1
    -18.766643    -9.962162    -9.910457    -0.898153    -0.657905    -0.530628    -0.451234    -0.402050    -0.341774    -0.329307

        11.1         12.1         13.1         14.1         15.1
     -0.309305    -0.271098    -0.206069     0.028578     0.062881

 HOMO     13.1    -0.206069 =      -5.6074eV
 LUMO     14.1     0.028578 =       0.7776eV
 LUMO-HOMO         0.234647 =       6.3851eV


 **********************************************************************************************************************************
 DATASETS  * FILE   NREC   LENGTH (MB)   RECORD NAMES
              1      20       43.59       500      610      700      900      950      970     1000      129      960     1100   
                                          VAR    BASINP    GEOM    SYMINP    ZMAT    AOBASIS   BASIS     P2S    ABASIS      S 
                                         1400     1410     1200     1210     1080     1600     1650     1300     1700     1800   
                                           T        V       H0       H01     AOSYM     SMH    MOLCAS    ERIS     OPER     GRID   

              2       5        3.00       700     1000      520     1800     2100   
                                         GEOM     BASIS   MCVARS    GRID      RKS  

 PROGRAMS   *        TOTAL        KS       INT
 CPU TIMES  *         5.22      4.28      0.79
 REAL TIME  *         6.41 SEC
 DISK USED  *        82.90 MB      
 **********************************************************************************************************************************


 PROGRAM * Intrinsic Basis Bonding Analysis (IBBA)          Author: G. Knizia

 Molecular orbitals read from record     2100.2  Type=RKS/CANONICAL (state 1.1)
 Fock matrix read from record            2100.2  Type=RKS/TOTAL (state 1.1)
 Orbital energies read from record       2100.2  Type=RKS/CANONICAL (state 1.1)
 Density matrix read from record         2100.2  Type=RKS/CHARGE (state 1.1)

 Number of core orbitals:           3 (   3 )
 Number of closed-shell orbitals:  10 (  10 )

 Basis set MINAO-AUTO-PP generated.      Number of basis functions:   21 

 Polarized AO type:                A = (O Ot + (1-O)(1-Ot)) P12
 Orthogonalization method:         Symmetric (Loewdin)
 Localization functional:          L = sum[A,i] <i|n_A|i>^4 -> max

 Localization group 1:  13 orbitals, occupancy  2.000
 Iterative localization: IB/PM,    7 iter; Final gradient 0.19E-09

 Bond order analysis:       [THRPRINT= 0.020]

   CEN ATOM   CEN ATOM     WIBERG.BO      RENORM.BO
     1   H  -   2   O       0.877330       0.985058

     2   O  -   3   C       0.982476       1.000182
     2   O  -   1   H       0.877330       0.985058
     2   O  -   7   H       0.030270       0.017433
     2   O  -   6   H       0.030270       0.017433

     3   C  -   4   C       1.029570       1.018866
     3   C  -   2   O       0.982476       1.000182
     3   C  -   6   H       0.941263       0.929755
     3   C  -   7   H       0.941263       0.929755

     4   C  -   3   C       1.029570       1.018866
     4   C  -   5   H       0.962692       0.988088
     4   C  -   8   H       0.959483       0.979324
     4   C  -   9   H       0.959483       0.979324

     5   H  -   4   C       0.962692       0.988088

     6   H  -   3   C       0.941263       0.929755
     6   H  -   2   O       0.030270       0.017433

     7   H  -   3   C       0.941263       0.929755
     7   H  -   2   O       0.030270       0.017433

     8   H  -   4   C       0.959483       0.979324

     9   H  -   4   C       0.959483       0.979324


 Valency analysis:

   CEN ATOM   TOT.VALENCE
     1   H       0.892089
     2   O       1.955990
     3   C       3.900679
     4   C       3.942464
     5   H       0.983593
     6   H       0.989857
     7   H       0.989857
     8   H       0.982368
     9   H       0.982368

 Total charge composition:

   CEN ATOM         s          p       ELECTRONS ->P.CHARGE
     1   H       0.67150                 0.67150    0.32850
     2   O       3.62635    4.89399      8.52034   -0.52034
     3   C       2.98016    3.04138      6.02154   -0.02154
     4   C       3.01810    3.36360      6.38171   -0.38171
     5   H       0.87191                 0.87191    0.12809
     6   H       0.89929                 0.89929    0.10071
     7   H       0.89929                 0.89929    0.10071
     8   H       0.86721                 0.86721    0.13279
     9   H       0.86721                 0.86721    0.13279

 Total charge composition, AO contributions:

   CEN ATOM SHL      SPHERICAL COMPONENTS
     1   H  1s       0.67150

     2   O  1s       1.99707
     2   O  2s       1.62928
     2   O  2p       1.41983    1.51851    1.95564

     3   C  1s       1.99221
     3   C  2s       0.98795
     3   C  2p       1.02897    0.86064    1.15176

     4   C  1s       1.99119
     4   C  2s       1.02692
     4   C  2p       1.04586    1.15305    1.16469

     5   H  1s       0.87191

     6   H  1s       0.89929

     7   H  1s       0.89929

     8   H  1s       0.86721

     9   H  1s       0.86721

 Summary of localized orbital composition:   [THRPRINT= 0.020]

   ORB  GRP  ORB.ENERGY      CENTERS/CHARGES
     1   1   -18.625072      O  2   2.000
     2   1    -9.861568      C  3   2.000
     3   1    -9.798478      C  4   2.000
     4   1    -0.676777      O  2   1.326   H  1   0.664
     5   1    -0.657883      O  2   1.259   C  3   0.735
     6   1    -0.515934      C  3   1.003   C  4   0.989
     7   1    -0.459798      O  2   1.978   (other: 0.022)
     8   1    -0.453447      C  3   1.114   H  6   0.877
     9   1    -0.453447      C  3   1.114   H  7   0.877
    10   1    -0.438622      C  4   1.119   H  5   0.865
    11   1    -0.432460      C  4   1.129   H  8   0.860
    12   1    -0.432460      C  4   1.129   H  9   0.860
    13   1    -0.230840      O  2   1.956   (other: 0.044)

 Localized orbitals saved to record      2100.2  (orbital set 2)


 **********************************************************************************************************************************
 DATASETS  * FILE   NREC   LENGTH (MB)   RECORD NAMES
              1      20       43.59       500      610      700      900      950      970     1000      129      960     1100   
                                          VAR    BASINP    GEOM    SYMINP    ZMAT    AOBASIS   BASIS     P2S    ABASIS      S 
                                         1400     1410     1200     1210     1080     1600     1650     1300     1700     1800   
                                           T        V       H0       H01     AOSYM     SMH    MOLCAS    ERIS     OPER     GRID   

              2       5        3.04       700     1000      520     1800     2100   
                                         GEOM     BASIS   MCVARS    GRID      RKS  

 PROGRAMS   *        TOTAL      IBBA        KS       INT
 CPU TIMES  *         5.25      0.03      4.28      0.79
 REAL TIME  *         6.49 SEC
 DISK USED  *        82.90 MB      
 **********************************************************************************************************************************
 Molecular orbitals read from record     2100.2  Type=RKS/LOCAL(IBO)  
 Occupation numbers read from record     2100.2  Type=RKS/LOCAL(IBO)  
 Orbital energies read from record       2100.2  Type=RKS/LOCAL(IBO)  
 Redundancy group numbers read from rec  2100.2  Type=RKS/LOCAL(IBO)  

 IBBA/SVP energy=      0.000000000000

        KS-SCF  
   -154.84723446
 **********************************************************************************************************************************
 Molpro calculation terminated
