
 Primary working directories    : /tmp/sb13343
 Secondary working directories  : /tmp/sb13343
 Wavefunction directory         : /panfs/panasas01/chem/sb13343/wfu/
 Main file repository           : /tmp/sb13343/

 SHA1      : b4a5b34a9e711420743f49e6833241d17c61fb3c
 NAME      : 2099.9.b4a5b34
 ARCHNAME  : linux/x86_64_openmp
 FC        : /cm/shared/languages/GCC-6.1/bin/gfortran
 BLASLIB   : -lblas
 id        : simonbennie

 Nodes     nprocs
 node32-020    1

 Using customized tuning parameters: mindgm=1; mindgv=20; mindgc=4; mindgr=1; noblas=0; minvec=7
 default implementation of scratch files=df  

 memory,500,m
 geomtyp=xyz
 nosym
 noorient
 geometry={
 H         -1.81763       -0.80620        0.00000
 O         -0.85078       -0.87151        0.00000
 C         -0.32298        0.45206        0.00000
 C          1.19308        0.34760        0.00000
 H          1.64898        1.34394        0.00000
 H         -0.66062        1.01252       -0.88753
 H         -0.66062        1.01252        0.88753
 H          1.53777       -0.19434       -0.88682
 H          1.53777       -0.19434        0.88682
 }
 basis={ default,sto-3g }
 {uks,MM06,direct;wf,26,1,0}
 {ibba,bonds=1}

 Variables initialized (895), CPU time= 0.00 sec
 Commands  initialized (725), CPU time= 0.02 sec, 591 directives.
 Default parameters read. Elapsed time= 0.09 sec

 Checking input...
 Passed
1


                                         ***  PROGRAM SYSTEM MOLPRO  ***
                                       Copyright, TTI GmbH Stuttgart, 2015
                                    Version 2099.9 linked May 26 2017 16:03:21


 **********************************************************************************************************************************
 LABEL *                                                                                 
  64 bit serial version                                                                  DATE: 08-Jun-17          TIME: 11:39:27  
 **********************************************************************************************************************************

 SHA1:             b4a5b34a9e711420743f49e6833241d17c61fb3c
 **********************************************************************************************************************************
 SETTING GEOMTYP        =    XYZ

 Variable memory set to  500000000 words,  buffer space 

 ZSYMEL=NOSYM

 SETTING BASIS          =    STO-3G


 Recomputing integrals since basis changed


 Using spherical harmonics

 Library entry H      S STO-3G               selected for orbital group  1
 Library entry O      S STO-3G               selected for orbital group  2
 Library entry O      P STO-3G               selected for orbital group  2
 Library entry C      S STO-3G               selected for orbital group  3
 Library entry C      P STO-3G               selected for orbital group  3


 PROGRAM * SEWARD (Integral evaluation for generally contracted gaussian basis sets)     Author: Roland Lindh, 1990

 Geometry written to block  1 of record 700


 Point group  C1  



 ATOMIC COORDINATES

 NR  ATOM    CHARGE       X              Y              Z

   1  H       1.00   -3.434822896   -1.523497202    0.000000000
   2  O       8.00   -1.607741192   -1.646915215    0.000000000
   3  C       6.00   -0.610343744    0.854269592    0.000000000
   4  C       6.00    2.254594445    0.656868801    0.000000000
   5  H       1.00    3.116120585    2.539678528    0.000000000
   6  H       1.00   -1.248390872    1.913385496   -1.677188627
   7  H       1.00   -1.248390872    1.913385496    1.677188627
   8  H       1.00    2.905964143   -0.367249375   -1.675846922
   9  H       1.00    2.905964143   -0.367249375    1.675846922

 Bond lengths in Bohr (Angstrom)

 1-2  1.831245357  2-3  2.692717421  3-4  2.871730819  3-6  2.083696794  3-7  2.083696794
     ( 0.969053311)     ( 1.424924694)     ( 1.519654505)     ( 1.102644858)     ( 1.102644858)

 4-5  2.070555423  4-8  2.069193908  4-9  2.069193908
     ( 1.095690744)     ( 1.094970261)     ( 1.094970261)

 Bond angles

  1-2-3  107.87621325   2-3-4  107.79904962   2-3-6  111.02105480   2-3-7  111.02105480

  3-4-5  110.64605443   3-4-8  110.36936729   3-4-9  110.36936729   4-3-6  109.90272099

  4-3-7  109.90272099   5-4-8  108.60711935   5-4-9  108.60711935   6-3-7  107.20315121

  8-4-9  108.17296435

 NUCLEAR CHARGE:                   26
 NUMBER OF PRIMITIVE AOS:          63
 NUMBER OF SYMMETRY AOS:           63
 NUMBER OF CONTRACTIONS:           21   (  21A   )
 NUMBER OF CORE ORBITALS:           3   (   3A   )
 NUMBER OF VALENCE ORBITALS:       18   (  18A   )


 NUCLEAR REPULSION ENERGY   81.60955194


 Eigenvalues of metric

         1 0.212E+00 0.263E+00 0.352E+00 0.355E+00 0.377E+00 0.393E+00 0.407E+00 0.473E+00


 Contracted 2-electron integrals neglected if value below      1.0D-11
 AO integral compression algorithm  1   Integral accuracy      1.0D-11

     0.262 MB (compressed) written to integral file (100.0%)


 NUMBER OF SORTED TWO-ELECTRON INTEGRALS:      26796.     BUFFER LENGTH:  32768
 NUMBER OF SEGMENTS:   1  SEGMENT LENGTH:      26796      RECORD LENGTH: 524288

 Memory used in sort:       0.58 MW

 SORT1 READ       32379. AND WROTE       21718. INTEGRALS IN      1 RECORDS. CPU TIME:     0.00 SEC, REAL TIME:     0.01 SEC
 SORT2 READ       21718. AND WROTE       26796. INTEGRALS IN      1 RECORDS. CPU TIME:     0.00 SEC, REAL TIME:     0.01 SEC

 FILE SIZES:   FILE 1:    30.4 MBYTE,  FILE 4:     4.2 MBYTE,   TOTAL:     34.6 MBYTE

 OPERATOR DM      FOR CENTER  0  COORDINATES:    0.000000    0.000000    0.000000


 **********************************************************************************************************************************
 DATASETS  * FILE   NREC   LENGTH (MB)   RECORD NAMES
              1      19       30.21       500      610      700      900      950      970     1000      129      960     1100   
                                          VAR    BASINP    GEOM    SYMINP    ZMAT    AOBASIS   BASIS     P2S    ABASIS      S 
                                         1400     1410     1200     1210     1080     1600     1650     1300     1700   
                                           T        V       H0       H01     AOSYM     SMH    MOLCAS    ERIS     OPER   

 PROGRAMS   *        TOTAL       INT
 CPU TIMES  *         0.41      0.26
 REAL TIME  *         0.81 SEC
 DISK USED  *        34.99 MB      
 **********************************************************************************************************************************

 Density functional group MM06=M06X+M06C
 Functional: M06X(Automatically generated (new) M06X)                          Gradient terms: 2
 Functional: M06C(Automatically generated (new) M06C)                          Gradient terms: 2
 Use grid at  1800.2


 Exact exchange will be calculated, factor:  0.2700

 Functional: M06X                      Factor:  0.7300
 Functional: M06C                      Factor:  1.0000

 Generated new metagrid on record  1800.2 with target accuracy 1.0D-06 and 30796 points in CPU time    0.8
 Computed new grid on record 1800.1 in CPU time    0.9
   36897 words reserved for DFT integration

 PROGRAM * UKS-SCF (Unrestricted Kohn-Sham)     Authors: W. Meyer, H.-J. Werner, P.J. Knowles, 1993

 NUMBER OF ELECTRONS:      13+   13-    SPACE SYMMETRY=1    SPIN SYMMETRY: Singlet 
 CONVERGENCE THRESHOLDS:    1.00E-05 (Density)    1.00E-06 (Energy)
 MAX. NUMBER OF ITERATIONS:       60
 INTERPOLATION TYPE:            DIIS
 INTERPOLATION STEPS:              2 (START)      1 (STEP)
 LEVEL SHIFTS:                 -0.20 (ALPHA)  -0.20 (BETA) 



 Use fine grid record 1800.2 for energy threshold  1.0D-06
 Orbital guess generated from atomic densities. Full valence occupancy:   13

 Molecular orbital dump at record        2200.2

 Initial alpha occupation  13
 Initial beta  occupation  13

 ITERATION    DDIFF          GRAD             ENERGY        2-EL.EN.            DIPOLE MOMENTS         DIIS
    1      0.000D+00      0.000D+00      -148.72072256    308.813197   -0.56933    0.89835    0.00000    0
    2      0.576D-01      0.204D-01      -148.85060787    301.180279   -0.26946    0.26174   -0.00000    1
    3      0.654D-02      0.304D-02      -148.85299760    301.847658   -0.29937    0.33052   -0.00000    2
    4      0.176D-02      0.532D-03      -148.85312425    301.838599   -0.29846    0.33012   -0.00000    3
    5      0.721D-03      0.179D-03      -148.85314096    301.834433   -0.29918    0.33070   -0.00000    4
    6      0.228D-03      0.423D-04      -148.85314240    301.833712   -0.29930    0.32983   -0.00000    5
    7      0.523D-04      0.120D-04      -148.85314247    301.833948   -0.29937    0.33015   -0.00000    5
    8      0.123D-04      0.428D-05      -148.85314247    301.833767   -0.29933    0.33000   -0.00000    6
    9      0.195D-05      0.433D-06      -148.85314247    301.833813   -0.29933    0.33000   -0.00000    6
   10      0.216D-06      0.623D-07      -148.85314247    301.833792   -0.29933    0.33000   -0.00000    6

 Final alpha occupancy:  13
 Final beta  occupancy:  13

 !UKS STATE 1.1 Energy               -148.853142474440
 Nuclear energy                        81.60955194
 One-electron energy                 -369.44726048
 Two-electron energy                  150.91689592
 Density functional                   -11.93232985     M06X=-14.90785088 M06C= -1.04959871
 Virial quotient                       -0.99032893
 !UKS STATE 1.1 Dipole moment          -0.29932616     0.33000288    -0.00000000
 Dipole moment /Debye                  -0.76076138     0.83872872    -0.00000000

 Orbital energies for positive spin:

         1.1          2.1          3.1          4.1          5.1          6.1          7.1          8.1          9.1         10.1
    -18.421353    -9.713948    -9.676488    -0.852409    -0.622166    -0.482723    -0.367569    -0.345471    -0.267320    -0.248029

        11.1         12.1         13.1         14.1         15.1
     -0.240589    -0.114425    -0.027037     0.430568     0.508080

 Orbital energies for negative spin:

         1.1          2.1          3.1          4.1          5.1          6.1          7.1          8.1          9.1         10.1
    -18.421353    -9.713948    -9.676488    -0.852409    -0.622166    -0.482723    -0.367569    -0.345471    -0.267320    -0.248029

        11.1         12.1         13.1         14.1         15.1
     -0.240589    -0.114425    -0.027037     0.430568     0.508080

 HOMO     13.1    -0.027037 =      -0.7357eV
 LUMO     14.1     0.430568 =      11.7164eV
 LUMO-HOMO         0.457605 =      12.4521eV

 EXPECTATION VALUE OF S**2:             0.00000000

 Natural orbitals saved to record    2200.2 (Orbital set 3)

 Orbital spaces for UNO-CAS (Min. occupation: 0.020  Max. occupation: 1.980):

 Closed:       13
 Active:        0


 **********************************************************************************************************************************
 DATASETS  * FILE   NREC   LENGTH (MB)   RECORD NAMES
              1      20       31.20       500      610      700      900      950      970     1000      129      960     1100   
                                          VAR    BASINP    GEOM    SYMINP    ZMAT    AOBASIS   BASIS     P2S    ABASIS      S 
                                         1400     1410     1200     1210     1080     1600     1650     1300     1700     1800   
                                           T        V       H0       H01     AOSYM     SMH    MOLCAS    ERIS     OPER     GRID   

              2       5        2.91       700     1000      520     1800     2200   
                                         GEOM     BASIS   MCVARS    GRID      UKS  

 PROGRAMS   *        TOTAL       UKS       INT
 CPU TIMES  *         5.96      5.55      0.26
 REAL TIME  *         7.60 SEC
 DISK USED  *        34.99 MB      
 **********************************************************************************************************************************


 PROGRAM * Intrinsic Basis Bonding Analysis (IBBA)          Author: G. Knizia

 Molecular orbitals read from record     2200.2  Type=UKS/ALPHA (state 1.1)
 Fock matrix read from record            2200.2  Type=UKS/TOTAL (state 1.1)
 Orbital energies read from record       2200.2  Type=UKS/ALPHA (state 1.1)
 Density matrix read from record         2200.2  Type=UKS/CHARGE (state 1.1)

 Number of core orbitals:           3 (   3 )
 Number of closed-shell orbitals:  10 (  10 )

 Basis set MINAO-AUTO-PP generated.      Number of basis functions:   21 

 Polarized AO type:                A = (O Ot + (1-O)(1-Ot)) P12
 Orthogonalization method:         Symmetric (Loewdin)
 Localization functional:          L = sum[A,i] <i|n_A|i>^4 -> max

 Localization group 1:  13 orbitals, occupancy  2.000
 Iterative localization: IB/PM,    7 iter; Final gradient 0.27E-09

 Bond order analysis:       [THRPRINT= 0.020]

   CEN ATOM   CEN ATOM     WIBERG.BO      RENORM.BO
     1   H  -   2   O       0.941538       0.985756

     2   O  -   3   C       1.033804       1.016111
     2   O  -   1   H       0.941538       0.985756
     2   O  -   7   H       0.031124       0.017734
     2   O  -   6   H       0.031124       0.017734

     3   C  -   2   O       1.033804       1.016111
     3   C  -   4   C       1.012482       1.005254
     3   C  -   7   H       0.945105       0.933211
     3   C  -   6   H       0.945105       0.933211

     4   C  -   3   C       1.012482       1.005254
     4   C  -   5   H       0.968344       0.991206
     4   C  -   8   H       0.966048       0.986532
     4   C  -   9   H       0.966048       0.986532

     5   H  -   4   C       0.968344       0.991206

     6   H  -   3   C       0.945105       0.933211
     6   H  -   2   O       0.031124       0.017734

     7   H  -   3   C       0.945105       0.933211
     7   H  -   2   O       0.031124       0.017734

     8   H  -   4   C       0.966048       0.986532

     9   H  -   4   C       0.966048       0.986532


 Valency analysis:

   CEN ATOM   TOT.VALENCE
     1   H       0.957294
     2   O       2.059920
     3   C       3.941617
     4   C       3.939727
     5   H       0.985848
     6   H       0.991435
     7   H       0.991435
     8   H       0.985574
     9   H       0.985574

 Total charge composition:

   CEN ATOM         s          p       ELECTRONS ->P.CHARGE
     1   H       0.79335                 0.79335    0.20665
     2   O       3.65315    4.63047      8.28362   -0.28362
     3   C       2.96266    3.15301      6.11567   -0.11567
     4   C       2.96923    3.38241      6.35164   -0.35164
     5   H       0.88104                 0.88104    0.11896
     6   H       0.90745                 0.90745    0.09255
     7   H       0.90745                 0.90745    0.09255
     8   H       0.87989                 0.87989    0.12011
     9   H       0.87989                 0.87989    0.12011

 Total charge composition, AO contributions:

   CEN ATOM SHL      SPHERICAL COMPONENTS
     1   H  1s       0.79335

     2   O  1s       1.99757
     2   O  2s       1.65557
     2   O  2p       1.29432    1.38333    1.95283

     3   C  1s       1.99391
     3   C  2s       0.96875
     3   C  2p       1.04985    0.94198    1.16118

     4   C  1s       1.99314
     4   C  2s       0.97609
     4   C  2p       1.06001    1.15881    1.16360

     5   H  1s       0.88104

     6   H  1s       0.90745

     7   H  1s       0.90745

     8   H  1s       0.87989

     9   H  1s       0.87989

 Summary of localized orbital composition:   [THRPRINT= 0.020]

   ORB  GRP  ORB.ENERGY      CENTERS/CHARGES
     1   1   -18.268023      O  2   2.000
     2   1    -9.615253      C  3   2.000
     3   1    -9.568757      C  4   2.000
     4   1    -0.572799      O  2   1.203   H  1   0.787
     5   1    -0.548718      O  2   1.140   C  3   0.855
     6   1    -0.452901      C  3   0.999   C  4   0.990
     7   1    -0.397423      C  3   1.108   H  6   0.885
     8   1    -0.397423      C  3   1.108   H  7   0.885
     9   1    -0.385504      C  4   1.115   H  5   0.875
    10   1    -0.379919      C  4   1.117   H  9   0.874
    11   1    -0.379919      C  4   1.117   H  8   0.874
    12   1    -0.365951      O  2   1.985
    13   1    -0.046943      O  2   1.953   (other: 0.047)

 Localized orbitals saved to record      2200.2  (orbital set 4)


 **********************************************************************************************************************************
 DATASETS  * FILE   NREC   LENGTH (MB)   RECORD NAMES
              1      20       31.20       500      610      700      900      950      970     1000      129      960     1100   
                                          VAR    BASINP    GEOM    SYMINP    ZMAT    AOBASIS   BASIS     P2S    ABASIS      S 
                                         1400     1410     1200     1210     1080     1600     1650     1300     1700     1800   
                                           T        V       H0       H01     AOSYM     SMH    MOLCAS    ERIS     OPER     GRID   

              2       5        2.92       700     1000      520     1800     2200   
                                         GEOM     BASIS   MCVARS    GRID      UKS  

 PROGRAMS   *        TOTAL      IBBA       UKS       INT
 CPU TIMES  *         5.99      0.03      5.55      0.26
 REAL TIME  *         7.70 SEC
 DISK USED  *        34.99 MB      
 **********************************************************************************************************************************
 Molecular orbitals read from record     2200.2  Type=UKS/LOCAL(IBO)  
 Occupation numbers read from record     2200.2  Type=UKS/LOCAL(IBO)  
 Orbital energies read from record       2200.2  Type=UKS/LOCAL(IBO)  
 Redundancy group numbers read from rec  2200.2  Type=UKS/BETA (state 1.1)

 IBBA/STO-3G energy=      0.000000000000

        UKS-SCF 
   -148.85314247
 **********************************************************************************************************************************
 Molpro calculation terminated
