
 Primary working directories    : /tmp/sb13343
 Secondary working directories  : /tmp/sb13343
 Wavefunction directory         : /panfs/panasas01/chem/sb13343/wfu/
 Main file repository           : /tmp/sb13343/

 SHA1      : b4a5b34a9e711420743f49e6833241d17c61fb3c
 NAME      : 2099.9.b4a5b34
 ARCHNAME  : linux/x86_64_openmp
 FC        : /cm/shared/languages/GCC-6.1/bin/gfortran
 BLASLIB   : -lblas
 id        : simonbennie

 Nodes     nprocs
 node34-032    1

 Using customized tuning parameters: mindgm=1; mindgv=20; mindgc=4; mindgr=1; noblas=0; minvec=7
 default implementation of scratch files=df  

 memory,500,m
 geomtyp=xyz
 nosym
 noorient
 geometry={
 H         -1.81763       -0.80620        0.00000
 O         -0.85078       -0.87151        0.00000
 C         -0.32298        0.45206        0.00000
 C          1.19308        0.34760        0.00000
 H          1.64898        1.34394        0.00000
 H         -0.66062        1.01252       -0.88753
 H         -0.66062        1.01252        0.88753
 H          1.53777       -0.19434       -0.88682
 H          1.53777       -0.19434        0.88682
 }
 basis={ default,svp }
 {uks,M06,direct;wf,26,1,0}
 {ibba,bonds=1}

 Variables initialized (895), CPU time= 0.00 sec
 Commands  initialized (725), CPU time= 0.02 sec, 591 directives.
 Default parameters read. Elapsed time= 0.08 sec

 Checking input...
 Passed
1


                                         ***  PROGRAM SYSTEM MOLPRO  ***
                                       Copyright, TTI GmbH Stuttgart, 2015
                                    Version 2099.9 linked May 26 2017 16:03:21


 **********************************************************************************************************************************
 LABEL *                                                                                 
  64 bit serial version                                                                  DATE: 08-Jun-17          TIME: 12:01:19  
 **********************************************************************************************************************************

 SHA1:             b4a5b34a9e711420743f49e6833241d17c61fb3c
 **********************************************************************************************************************************
 SETTING GEOMTYP        =    XYZ

 Variable memory set to  500000000 words,  buffer space 

 ZSYMEL=NOSYM

 SETTING BASIS          =    SVP


 Recomputing integrals since basis changed


 Using spherical harmonics

 Library entry H      S def2-SVP             selected for orbital group  1
 Library entry H      P def2-SVP             selected for orbital group  1
 Library entry O      S def2-SVP             selected for orbital group  2
 Library entry O      P def2-SVP             selected for orbital group  2
 Library entry O      D def2-SVP             selected for orbital group  2
 Library entry C      S def2-SVP             selected for orbital group  3
 Library entry C      P def2-SVP             selected for orbital group  3
 Library entry C      D def2-SVP             selected for orbital group  3


 PROGRAM * SEWARD (Integral evaluation for generally contracted gaussian basis sets)     Author: Roland Lindh, 1990

 Geometry written to block  1 of record 700


 Point group  C1  



 ATOMIC COORDINATES

 NR  ATOM    CHARGE       X              Y              Z

   1  H       1.00   -3.434822896   -1.523497202    0.000000000
   2  O       8.00   -1.607741192   -1.646915215    0.000000000
   3  C       6.00   -0.610343744    0.854269592    0.000000000
   4  C       6.00    2.254594445    0.656868801    0.000000000
   5  H       1.00    3.116120585    2.539678528    0.000000000
   6  H       1.00   -1.248390872    1.913385496   -1.677188627
   7  H       1.00   -1.248390872    1.913385496    1.677188627
   8  H       1.00    2.905964143   -0.367249375   -1.675846922
   9  H       1.00    2.905964143   -0.367249375    1.675846922

 Bond lengths in Bohr (Angstrom)

 1-2  1.831245357  2-3  2.692717421  3-4  2.871730819  3-6  2.083696794  3-7  2.083696794
     ( 0.969053311)     ( 1.424924694)     ( 1.519654505)     ( 1.102644858)     ( 1.102644858)

 4-5  2.070555423  4-8  2.069193908  4-9  2.069193908
     ( 1.095690744)     ( 1.094970261)     ( 1.094970261)

 Bond angles

  1-2-3  107.87621325   2-3-4  107.79904962   2-3-6  111.02105480   2-3-7  111.02105480

  3-4-5  110.64605443   3-4-8  110.36936729   3-4-9  110.36936729   4-3-6  109.90272099

  4-3-7  109.90272099   5-4-8  108.60711935   5-4-9  108.60711935   6-3-7  107.20315121

  8-4-9  108.17296435

 NUCLEAR CHARGE:                   26
 NUMBER OF PRIMITIVE AOS:         117
 NUMBER OF SYMMETRY AOS:          114
 NUMBER OF CONTRACTIONS:           72   (  72A   )
 NUMBER OF CORE ORBITALS:           3   (   3A   )
 NUMBER OF VALENCE ORBITALS:       18   (  18A   )


 NUCLEAR REPULSION ENERGY   81.60955194


 Eigenvalues of metric

         1 0.375E-02 0.159E-01 0.292E-01 0.324E-01 0.398E-01 0.436E-01 0.556E-01 0.658E-01


 Contracted 2-electron integrals neglected if value below      1.0D-11
 AO integral compression algorithm  1   Integral accuracy      1.0D-11

     14.418 MB (compressed) written to integral file ( 45.7%)


 NUMBER OF SORTED TWO-ELECTRON INTEGRALS:    3454506.     BUFFER LENGTH:  32768
 NUMBER OF SEGMENTS:   1  SEGMENT LENGTH:    3454506      RECORD LENGTH: 524288

 Memory used in sort:       4.01 MW

 SORT1 READ     3945093. AND WROTE     2928993. INTEGRALS IN      9 RECORDS. CPU TIME:     0.05 SEC, REAL TIME:     0.09 SEC
 SORT2 READ     2928993. AND WROTE     3454506. INTEGRALS IN     55 RECORDS. CPU TIME:     0.11 SEC, REAL TIME:     0.15 SEC

 FILE SIZES:   FILE 1:    44.7 MBYTE,  FILE 4:    37.8 MBYTE,   TOTAL:     82.5 MBYTE

 OPERATOR DM      FOR CENTER  0  COORDINATES:    0.000000    0.000000    0.000000


 **********************************************************************************************************************************
 DATASETS  * FILE   NREC   LENGTH (MB)   RECORD NAMES
              1      19       42.60       500      610      700      900      950      970     1000      129      960     1100   
                                          VAR    BASINP    GEOM    SYMINP    ZMAT    AOBASIS   BASIS     P2S    ABASIS      S 
                                         1400     1410     1200     1210     1080     1600     1650     1300     1700   
                                           T        V       H0       H01     AOSYM     SMH    MOLCAS    ERIS     OPER   

 PROGRAMS   *        TOTAL       INT
 CPU TIMES  *         0.92      0.78
 REAL TIME  *         1.35 SEC
 DISK USED  *        82.90 MB      
 **********************************************************************************************************************************

 Density functional group M06=XC-M06
 Functional: XC-M06(via MFM 1.6)                                               Gradient terms: 1
 Use grid at  1800.2


 Exact exchange will be calculated, factor:  0.2700

 Functional: XC-M06                    Factor:  1.0000

 Generated new metagrid on record  1800.2 with target accuracy 1.0D-06 and 30796 points in CPU time    0.7
 Computed new grid on record 1800.1 in CPU time    0.8
   61197 words reserved for DFT integration

 PROGRAM * UKS-SCF (Unrestricted Kohn-Sham)     Authors: W. Meyer, H.-J. Werner, P.J. Knowles, 1993

 NUMBER OF ELECTRONS:      13+   13-    SPACE SYMMETRY=1    SPIN SYMMETRY: Singlet 
 CONVERGENCE THRESHOLDS:    1.00E-05 (Density)    1.00E-06 (Energy)
 MAX. NUMBER OF ITERATIONS:       60
 INTERPOLATION TYPE:            DIIS
 INTERPOLATION STEPS:              2 (START)      1 (STEP)
 LEVEL SHIFTS:                 -0.20 (ALPHA)  -0.20 (BETA) 



 Use fine grid record 1800.2 for energy threshold  1.0D-06
 Orbital guess generated from atomic densities. Full valence occupancy:   13

 Molecular orbital dump at record        2200.2

 Initial alpha occupation  13
 Initial beta  occupation  13

 ITERATION    DDIFF          GRAD             ENERGY        2-EL.EN.            DIPOLE MOMENTS         DIIS
    1      0.000D+00      0.000D+00      -154.70143689    309.989983   -0.58471    0.90238   -0.00000    0
    2      0.134D-01      0.668D-02      -154.79536743    298.931545   -0.31213    0.43146   -0.00000    1
    3      0.434D-02      0.338D-02      -154.81652925    301.989942   -0.37080    0.55580   -0.00000    2
    4      0.105D-02      0.442D-03      -154.81714929    301.865134   -0.36745    0.51858   -0.00000    3
    5      0.728D-03      0.183D-03      -154.81732937    301.824093   -0.36511    0.50951   -0.00000    4
    6      0.411D-03      0.554D-04      -154.81735649    301.810451   -0.36449    0.50459   -0.00000    5
    7      0.732D-04      0.990D-05      -154.81735731    301.806096   -0.36410    0.50381   -0.00000    6
    8      0.127D-04      0.342D-05      -154.81735736    301.807348   -0.36398    0.50382   -0.00000    6
    9      0.507D-05      0.117D-05      -154.81735737    301.806964   -0.36397    0.50381   -0.00000    6
   10      0.163D-05      0.294D-06      -154.81735737    301.807016   -0.36395    0.50379   -0.00000    7

 Final alpha occupancy:  13
 Final beta  occupancy:  13

 !UKS STATE 1.1 Energy               -154.817357367320
 Nuclear energy                        81.60955194
 One-electron energy                 -371.34718449
 Two-electron energy                  150.90350797
 Density functional                   -15.98323278     XC-M06=-15.98323278
 Virial quotient                       -1.00994906
 !UKS STATE 1.1 Dipole moment          -0.36395235     0.50379018    -0.00000000
 Dipole moment /Debye                  -0.92501401     1.28042304    -0.00000000

 Orbital energies for positive spin:

         1.1          2.1          3.1          4.1          5.1          6.1          7.1          8.1          9.1         10.1
    -19.202962   -10.291203   -10.234880    -1.022136    -0.748495    -0.608920    -0.523560    -0.469756    -0.412333    -0.388824

        11.1         12.1         13.1         14.1         15.1
     -0.370423    -0.340828    -0.280578     0.053329     0.090574

 Orbital energies for negative spin:

         1.1          2.1          3.1          4.1          5.1          6.1          7.1          8.1          9.1         10.1
    -19.202962   -10.291203   -10.234880    -1.022136    -0.748495    -0.608920    -0.523560    -0.469756    -0.412333    -0.388824

        11.1         12.1         13.1         14.1         15.1
     -0.370423    -0.340828    -0.280578     0.053329     0.090574

 HOMO     13.1    -0.280578 =      -7.6349eV
 LUMO     14.1     0.053329 =       1.4511eV
 LUMO-HOMO         0.333907 =       9.0861eV

 EXPECTATION VALUE OF S**2:            -0.00000000

 Natural orbitals saved to record    2200.2 (Orbital set 3)

 Orbital spaces for UNO-CAS (Min. occupation: 0.020  Max. occupation: 1.980):

 Closed:       13
 Active:        0


 **********************************************************************************************************************************
 DATASETS  * FILE   NREC   LENGTH (MB)   RECORD NAMES
              1      20       43.59       500      610      700      900      950      970     1000      129      960     1100   
                                          VAR    BASINP    GEOM    SYMINP    ZMAT    AOBASIS   BASIS     P2S    ABASIS      S 
                                         1400     1410     1200     1210     1080     1600     1650     1300     1700     1800   
                                           T        V       H0       H01     AOSYM     SMH    MOLCAS    ERIS     OPER     GRID   

              2       5        3.11       700     1000      520     1800     2200   
                                         GEOM     BASIS   MCVARS    GRID      UKS  

 PROGRAMS   *        TOTAL       UKS       INT
 CPU TIMES  *        18.60     17.68      0.78
 REAL TIME  *        19.20 SEC
 DISK USED  *        82.90 MB      
 **********************************************************************************************************************************


 PROGRAM * Intrinsic Basis Bonding Analysis (IBBA)          Author: G. Knizia

 Molecular orbitals read from record     2200.2  Type=UKS/ALPHA (state 1.1)
 Fock matrix read from record            2200.2  Type=UKS/TOTAL (state 1.1)
 Orbital energies read from record       2200.2  Type=UKS/ALPHA (state 1.1)
 Density matrix read from record         2200.2  Type=UKS/CHARGE (state 1.1)

 Number of core orbitals:           3 (   3 )
 Number of closed-shell orbitals:  10 (  10 )

 Basis set MINAO-AUTO-PP generated.      Number of basis functions:   21 

 Polarized AO type:                A = (O Ot + (1-O)(1-Ot)) P12
 Orthogonalization method:         Symmetric (Loewdin)
 Localization functional:          L = sum[A,i] <i|n_A|i>^4 -> max

 Localization group 1:  13 orbitals, occupancy  2.000
 Iterative localization: IB/PM,    7 iter; Final gradient 0.43E-09

 Bond order analysis:       [THRPRINT= 0.020]

   CEN ATOM   CEN ATOM     WIBERG.BO      RENORM.BO
     1   H  -   2   O       0.867705       0.986326

     2   O  -   3   C       0.972524       1.000335
     2   O  -   1   H       0.867705       0.986326
     2   O  -   7   H       0.028335       0.016368
     2   O  -   6   H       0.028335       0.016368

     3   C  -   4   C       1.028145       1.019107
     3   C  -   2   O       0.972524       1.000335
     3   C  -   6   H       0.942552       0.933337
     3   C  -   7   H       0.942552       0.933337

     4   C  -   3   C       1.028145       1.019107
     4   C  -   5   H       0.963059       0.989490
     4   C  -   8   H       0.958843       0.980992
     4   C  -   9   H       0.958843       0.980992

     5   H  -   4   C       0.963059       0.989490

     6   H  -   3   C       0.942552       0.933337
     6   H  -   2   O       0.028335       0.016368

     7   H  -   3   C       0.942552       0.933337
     7   H  -   2   O       0.028335       0.016368

     8   H  -   4   C       0.958843       0.980992

     9   H  -   4   C       0.958843       0.980992


 Valency analysis:

   CEN ATOM   TOT.VALENCE
     1   H       0.881136
     2   O       1.927487
     3   C       3.891772
     4   C       3.936921
     5   H       0.982092
     6   H       0.988788
     7   H       0.988788
     8   H       0.980643
     9   H       0.980643

 Total charge composition:

   CEN ATOM         s          p       ELECTRONS ->P.CHARGE
     1   H       0.65523                 0.65523    0.34477
     2   O       3.62834    4.92612      8.55446   -0.55446
     3   C       2.97563    3.04015      6.01579   -0.01579
     4   C       3.01755    3.38082      6.39837   -0.39837
     5   H       0.86618                 0.86618    0.13382
     6   H       0.89411                 0.89411    0.10589
     7   H       0.89411                 0.89411    0.10589
     8   H       0.86087                 0.86087    0.13913
     9   H       0.86087                 0.86087    0.13913

 Total charge composition, AO contributions:

   CEN ATOM SHL      SPHERICAL COMPONENTS
     1   H  1s       0.65523

     2   O  1s       1.99705
     2   O  2s       1.63129
     2   O  2p       1.43687    1.53048    1.95877

     3   C  1s       1.99222
     3   C  2s       0.98341
     3   C  2p       1.03148    0.85618    1.15249

     4   C  1s       1.99118
     4   C  2s       1.02637
     4   C  2p       1.05106    1.15969    1.17008

     5   H  1s       0.86618

     6   H  1s       0.89411

     7   H  1s       0.89411

     8   H  1s       0.86087

     9   H  1s       0.86087

 Summary of localized orbital composition:   [THRPRINT= 0.020]

   ORB  GRP  ORB.ENERGY      CENTERS/CHARGES
     1   1   -19.051279      O  2   2.000
     2   1   -10.187689      C  3   2.000
     3   1   -10.119373      C  4   2.000
     4   1    -0.770243      O  2   1.342   H  1   0.649
     5   1    -0.750529      O  2   1.271   C  3   0.724
     6   1    -0.594886      C  3   1.004   C  4   0.988
     7   1    -0.564311      O  2   1.981
     8   1    -0.520250      C  3   1.118   H  7   0.873
     9   1    -0.520250      C  3   1.118   H  6   0.873
    10   1    -0.504743      C  4   1.126   H  5   0.860
    11   1    -0.498145      C  4   1.135   H  8   0.854
    12   1    -0.498145      C  4   1.135   H  9   0.854
    13   1    -0.315051      O  2   1.959   (other: 0.041)

 Localized orbitals saved to record      2200.2  (orbital set 4)


 **********************************************************************************************************************************
 DATASETS  * FILE   NREC   LENGTH (MB)   RECORD NAMES
              1      20       43.59       500      610      700      900      950      970     1000      129      960     1100   
                                          VAR    BASINP    GEOM    SYMINP    ZMAT    AOBASIS   BASIS     P2S    ABASIS      S 
                                         1400     1410     1200     1210     1080     1600     1650     1300     1700     1800   
                                           T        V       H0       H01     AOSYM     SMH    MOLCAS    ERIS     OPER     GRID   

              2       5        3.15       700     1000      520     1800     2200   
                                         GEOM     BASIS   MCVARS    GRID      UKS  

 PROGRAMS   *        TOTAL      IBBA       UKS       INT
 CPU TIMES  *        18.63      0.02     17.68      0.78
 REAL TIME  *        19.29 SEC
 DISK USED  *        82.90 MB      
 **********************************************************************************************************************************
 Molecular orbitals read from record     2200.2  Type=UKS/LOCAL(IBO)  
 Occupation numbers read from record     2200.2  Type=UKS/LOCAL(IBO)  
 Orbital energies read from record       2200.2  Type=UKS/LOCAL(IBO)  
 Redundancy group numbers read from rec  2200.2  Type=UKS/BETA (state 1.1)

 IBBA/SVP energy=      0.000000000000

        UKS-SCF 
   -154.81735737
 **********************************************************************************************************************************
 Molpro calculation terminated
