
 Primary working directories    : /tmp/sb13343
 Secondary working directories  : /tmp/sb13343
 Wavefunction directory         : /panfs/panasas01/chem/sb13343/wfu/
 Main file repository           : /tmp/sb13343/

 SHA1      : b4a5b34a9e711420743f49e6833241d17c61fb3c
 NAME      : 2099.9.b4a5b34
 ARCHNAME  : linux/x86_64_openmp
 FC        : /cm/shared/languages/GCC-6.1/bin/gfortran
 BLASLIB   : -lblas
 id        : simonbennie

 Nodes     nprocs
 node34-014    1

 Using customized tuning parameters: mindgm=1; mindgv=20; mindgc=4; mindgr=1; noblas=0; minvec=7
 default implementation of scratch files=df  

 memory,500,m
 geomtyp=xyz
 nosym
 noorient
 geometry={
 H         -1.81763       -0.80620        0.00000
 O         -0.85078       -0.87151        0.00000
 C         -0.32298        0.45206        0.00000
 C          1.19308        0.34760        0.00000
 H          1.64898        1.34394        0.00000
 H         -0.66062        1.01252       -0.88753
 H         -0.66062        1.01252        0.88753
 H          1.53777       -0.19434       -0.88682
 H          1.53777       -0.19434        0.88682
 }
 basis={ default,svp }
 {uks,B-VWN,direct;wf,26,1,0}
 {ibba,bonds=1}

 Variables initialized (895), CPU time= 0.01 sec
 Commands  initialized (725), CPU time= 0.01 sec, 591 directives.
 Default parameters read. Elapsed time= 0.09 sec

 Checking input...
 Passed
1


                                         ***  PROGRAM SYSTEM MOLPRO  ***
                                       Copyright, TTI GmbH Stuttgart, 2015
                                    Version 2099.9 linked May 26 2017 16:03:21


 **********************************************************************************************************************************
 LABEL *                                                                                 
  64 bit serial version                                                                  DATE: 08-Jun-17          TIME: 11:52:15  
 **********************************************************************************************************************************

 SHA1:             b4a5b34a9e711420743f49e6833241d17c61fb3c
 **********************************************************************************************************************************
 SETTING GEOMTYP        =    XYZ

 Variable memory set to  500000000 words,  buffer space 

 ZSYMEL=NOSYM

 SETTING BASIS          =    SVP


 Recomputing integrals since basis changed


 Using spherical harmonics

 Library entry H      S def2-SVP             selected for orbital group  1
 Library entry H      P def2-SVP             selected for orbital group  1
 Library entry O      S def2-SVP             selected for orbital group  2
 Library entry O      P def2-SVP             selected for orbital group  2
 Library entry O      D def2-SVP             selected for orbital group  2
 Library entry C      S def2-SVP             selected for orbital group  3
 Library entry C      P def2-SVP             selected for orbital group  3
 Library entry C      D def2-SVP             selected for orbital group  3


 PROGRAM * SEWARD (Integral evaluation for generally contracted gaussian basis sets)     Author: Roland Lindh, 1990

 Geometry written to block  1 of record 700


 Point group  C1  



 ATOMIC COORDINATES

 NR  ATOM    CHARGE       X              Y              Z

   1  H       1.00   -3.434822896   -1.523497202    0.000000000
   2  O       8.00   -1.607741192   -1.646915215    0.000000000
   3  C       6.00   -0.610343744    0.854269592    0.000000000
   4  C       6.00    2.254594445    0.656868801    0.000000000
   5  H       1.00    3.116120585    2.539678528    0.000000000
   6  H       1.00   -1.248390872    1.913385496   -1.677188627
   7  H       1.00   -1.248390872    1.913385496    1.677188627
   8  H       1.00    2.905964143   -0.367249375   -1.675846922
   9  H       1.00    2.905964143   -0.367249375    1.675846922

 Bond lengths in Bohr (Angstrom)

 1-2  1.831245357  2-3  2.692717421  3-4  2.871730819  3-6  2.083696794  3-7  2.083696794
     ( 0.969053311)     ( 1.424924694)     ( 1.519654505)     ( 1.102644858)     ( 1.102644858)

 4-5  2.070555423  4-8  2.069193908  4-9  2.069193908
     ( 1.095690744)     ( 1.094970261)     ( 1.094970261)

 Bond angles

  1-2-3  107.87621325   2-3-4  107.79904962   2-3-6  111.02105480   2-3-7  111.02105480

  3-4-5  110.64605443   3-4-8  110.36936729   3-4-9  110.36936729   4-3-6  109.90272099

  4-3-7  109.90272099   5-4-8  108.60711935   5-4-9  108.60711935   6-3-7  107.20315121

  8-4-9  108.17296435

 NUCLEAR CHARGE:                   26
 NUMBER OF PRIMITIVE AOS:         117
 NUMBER OF SYMMETRY AOS:          114
 NUMBER OF CONTRACTIONS:           72   (  72A   )
 NUMBER OF CORE ORBITALS:           3   (   3A   )
 NUMBER OF VALENCE ORBITALS:       18   (  18A   )


 NUCLEAR REPULSION ENERGY   81.60955194


 Eigenvalues of metric

         1 0.375E-02 0.159E-01 0.292E-01 0.324E-01 0.398E-01 0.436E-01 0.556E-01 0.658E-01


 Contracted 2-electron integrals neglected if value below      1.0D-11
 AO integral compression algorithm  1   Integral accuracy      1.0D-11

     14.418 MB (compressed) written to integral file ( 45.7%)


 NUMBER OF SORTED TWO-ELECTRON INTEGRALS:    3454506.     BUFFER LENGTH:  32768
 NUMBER OF SEGMENTS:   1  SEGMENT LENGTH:    3454506      RECORD LENGTH: 524288

 Memory used in sort:       4.01 MW

 SORT1 READ     3945093. AND WROTE     2928993. INTEGRALS IN      9 RECORDS. CPU TIME:     0.04 SEC, REAL TIME:     0.09 SEC
 SORT2 READ     2928993. AND WROTE     3454506. INTEGRALS IN     55 RECORDS. CPU TIME:     0.12 SEC, REAL TIME:     0.15 SEC

 FILE SIZES:   FILE 1:    44.7 MBYTE,  FILE 4:    37.8 MBYTE,   TOTAL:     82.5 MBYTE

 OPERATOR DM      FOR CENTER  0  COORDINATES:    0.000000    0.000000    0.000000


 **********************************************************************************************************************************
 DATASETS  * FILE   NREC   LENGTH (MB)   RECORD NAMES
              1      19       42.60       500      610      700      900      950      970     1000      129      960     1100   
                                          VAR    BASINP    GEOM    SYMINP    ZMAT    AOBASIS   BASIS     P2S    ABASIS      S 
                                         1400     1410     1200     1210     1080     1600     1650     1300     1700   
                                           T        V       H0       H01     AOSYM     SMH    MOLCAS    ERIS     OPER   

 PROGRAMS   *        TOTAL       INT
 CPU TIMES  *         0.97      0.83
 REAL TIME  *         1.40 SEC
 DISK USED  *        82.90 MB      
 **********************************************************************************************************************************

 Density functional group B-VWN=B88+VWN5
 Functional: B88(Automatically generated (new) B88)                            Gradient terms: 1
 Functional: VWN5(Automatically generated (new) VWN5)                          Gradient terms: 0
 Use grid at  1800.2

 Functional: B88                       Factor:  1.0000
 Functional: VWN5                      Factor:  1.0000

 Generated new metagrid on record  1800.2 with target accuracy 1.0D-06 and 30796 points in CPU time    0.7
 Computed new grid on record 1800.1 in CPU time    0.8
   61197 words reserved for DFT integration

 PROGRAM * UKS-SCF (Unrestricted Kohn-Sham)     Authors: W. Meyer, H.-J. Werner, P.J. Knowles, 1993

 NUMBER OF ELECTRONS:      13+   13-    SPACE SYMMETRY=1    SPIN SYMMETRY: Singlet 
 CONVERGENCE THRESHOLDS:    1.00E-05 (Density)    1.00E-06 (Energy)
 MAX. NUMBER OF ITERATIONS:       60
 INTERPOLATION TYPE:            DIIS
 INTERPOLATION STEPS:              2 (START)      1 (STEP)
 LEVEL SHIFTS:                 -0.20 (ALPHA)  -0.20 (BETA) 



 Use fine grid record 1800.2 for energy threshold  1.0D-06
 Orbital guess generated from atomic densities. Full valence occupancy:   13

 Molecular orbital dump at record        2200.2

 Initial alpha occupation  13
 Initial beta  occupation  13

 ITERATION    DDIFF          GRAD             ENERGY        2-EL.EN.            DIPOLE MOMENTS         DIIS
    1      0.000D+00      0.000D+00      -155.47216249    324.137716   -0.59318    0.86008   -0.00000    0
    2      0.187D-01      0.833D-02      -155.59897302    308.352554   -0.25551    0.31670   -0.00000    1
    3      0.687D-02      0.525D-02      -155.65193091    313.529821   -0.36499    0.52682   -0.00000    2
    4      0.145D-02      0.702D-03      -155.65313327    313.365052   -0.36180    0.47230   -0.00000    3
    5      0.987D-03      0.240D-03      -155.65339922    313.306987   -0.36071    0.46103   -0.00000    4
    6      0.628D-03      0.699D-04      -155.65344252    313.284065   -0.36205    0.45175   -0.00000    5
    7      0.121D-03      0.159D-04      -155.65344421    313.279848   -0.36155    0.45055   -0.00000    6
    8      0.243D-04      0.647D-05      -155.65344436    313.281682   -0.36143    0.45046   -0.00000    7
    9      0.907D-05      0.210D-05      -155.65344438    313.280790   -0.36150    0.45041   -0.00000    6
   10      0.256D-05      0.414D-06      -155.65344438    313.281089   -0.36147    0.45039   -0.00000    7

 Final alpha occupancy:  13
 Final beta  occupancy:  13

 !UKS STATE 1.1 Energy               -155.653444377522
 Nuclear energy                        81.60955194
 One-electron energy                 -371.46011465
 Two-electron energy                  156.64054465
 Density functional                   -22.44342631     B88=-20.78259869 VWN5= -1.66082762
 Virial quotient                       -1.01332108
 !UKS STATE 1.1 Dipole moment          -0.36146811     0.45038659    -0.00000000
 Dipole moment /Debye                  -0.91870012     1.14469354    -0.00000000

 Orbital energies for positive spin:

         1.1          2.1          3.1          4.1          5.1          6.1          7.1          8.1          9.1         10.1
    -18.803490   -10.002423    -9.950410    -0.917313    -0.676720    -0.550111    -0.469135    -0.420060    -0.359555    -0.348380

        11.1         12.1         13.1         14.1         15.1
     -0.328935    -0.290085    -0.225290     0.022295     0.055668

 Orbital energies for negative spin:

         1.1          2.1          3.1          4.1          5.1          6.1          7.1          8.1          9.1         10.1
    -18.803490   -10.002423    -9.950410    -0.917313    -0.676720    -0.550111    -0.469135    -0.420060    -0.359555    -0.348380

        11.1         12.1         13.1         14.1         15.1
     -0.328935    -0.290085    -0.225290     0.022295     0.055668

 HOMO     13.1    -0.225290 =      -6.1305eV
 LUMO    -14.1     0.022295 =       0.6067eV
 LUMO-HOMO         0.247585 =       6.7371eV

 EXPECTATION VALUE OF S**2:             0.00000000

 Natural orbitals saved to record    2200.2 (Orbital set 3)

 Orbital spaces for UNO-CAS (Min. occupation: 0.020  Max. occupation: 1.980):

 Closed:       13
 Active:        0


 **********************************************************************************************************************************
 DATASETS  * FILE   NREC   LENGTH (MB)   RECORD NAMES
              1      20       43.59       500      610      700      900      950      970     1000      129      960     1100   
                                          VAR    BASINP    GEOM    SYMINP    ZMAT    AOBASIS   BASIS     P2S    ABASIS      S 
                                         1400     1410     1200     1210     1080     1600     1650     1300     1700     1800   
                                           T        V       H0       H01     AOSYM     SMH    MOLCAS    ERIS     OPER     GRID   

              2       5        3.11       700     1000      520     1800     2200   
                                         GEOM     BASIS   MCVARS    GRID      UKS  

 PROGRAMS   *        TOTAL       UKS       INT
 CPU TIMES  *         7.55      6.58      0.83
 REAL TIME  *         8.42 SEC
 DISK USED  *        82.90 MB      
 **********************************************************************************************************************************


 PROGRAM * Intrinsic Basis Bonding Analysis (IBBA)          Author: G. Knizia

 Molecular orbitals read from record     2200.2  Type=UKS/ALPHA (state 1.1)
 Fock matrix read from record            2200.2  Type=UKS/TOTAL (state 1.1)
 Orbital energies read from record       2200.2  Type=UKS/ALPHA (state 1.1)
 Density matrix read from record         2200.2  Type=UKS/CHARGE (state 1.1)

 Number of core orbitals:           3 (   3 )
 Number of closed-shell orbitals:  10 (  10 )

 Basis set MINAO-AUTO-PP generated.      Number of basis functions:   21 

 Polarized AO type:                A = (O Ot + (1-O)(1-Ot)) P12
 Orthogonalization method:         Symmetric (Loewdin)
 Localization functional:          L = sum[A,i] <i|n_A|i>^4 -> max

 Localization group 1:  13 orbitals, occupancy  2.000
 Iterative localization: IB/PM,    7 iter; Final gradient 0.17E-09

 Bond order analysis:       [THRPRINT= 0.020]

   CEN ATOM   CEN ATOM     WIBERG.BO      RENORM.BO
     1   H  -   2   O       0.877058       0.985537

     2   O  -   3   C       0.980387       1.001226
     2   O  -   1   H       0.877058       0.985537
     2   O  -   7   H       0.029722       0.017075
     2   O  -   6   H       0.029722       0.017075

     3   C  -   4   C       1.028729       1.018631
     3   C  -   2   O       0.980387       1.001226
     3   C  -   6   H       0.942644       0.930911
     3   C  -   7   H       0.942644       0.930911

     4   C  -   3   C       1.028729       1.018631
     4   C  -   5   H       0.964528       0.988553
     4   C  -   8   H       0.961131       0.980230
     4   C  -   9   H       0.961131       0.980230

     5   H  -   4   C       0.964528       0.988553

     6   H  -   3   C       0.942644       0.930911
     6   H  -   2   O       0.029722       0.017075

     7   H  -   3   C       0.942644       0.930911
     7   H  -   2   O       0.029722       0.017075

     8   H  -   4   C       0.961131       0.980230

     9   H  -   4   C       0.961131       0.980230


 Valency analysis:

   CEN ATOM   TOT.VALENCE
     1   H       0.891380
     2   O       1.950402
     3   C       3.900063
     4   C       3.945187
     5   H       0.984367
     6   H       0.990140
     7   H       0.990140
     8   H       0.982984
     9   H       0.982984

 Total charge composition:

   CEN ATOM         s          p       ELECTRONS ->P.CHARGE
     1   H       0.67042                 0.67042    0.32958
     2   O       3.62814    4.89805      8.52619   -0.52619
     3   C       2.98209    3.03262      6.01471   -0.01471
     4   C       3.02008    3.35311      6.37320   -0.37320
     5   H       0.87497                 0.87497    0.12503
     6   H       0.90070                 0.90070    0.09930
     7   H       0.90070                 0.90070    0.09930
     8   H       0.86955                 0.86955    0.13045
     9   H       0.86955                 0.86955    0.13045

 Total charge composition, AO contributions:

   CEN ATOM SHL      SPHERICAL COMPONENTS
     1   H  1s       0.67042

     2   O  1s       1.99705
     2   O  2s       1.63109
     2   O  2p       1.42064    1.52091    1.95651

     3   C  1s       1.99209
     3   C  2s       0.99000
     3   C  2p       1.02728    0.85708    1.14826

     4   C  1s       1.99105
     4   C  2s       1.02903
     4   C  2p       1.04362    1.14902    1.16047

     5   H  1s       0.87497

     6   H  1s       0.90070

     7   H  1s       0.90070

     8   H  1s       0.86955

     9   H  1s       0.86955

 Summary of localized orbital composition:   [THRPRINT= 0.020]

   ORB  GRP  ORB.ENERGY      CENTERS/CHARGES
     1   1   -18.660097      O  2   2.000
     2   1    -9.901323      C  3   2.000
     3   1    -9.837811      C  4   2.000
     4   1    -0.696238      O  2   1.327   H  1   0.663
     5   1    -0.675372      O  2   1.262   C  3   0.732
     6   1    -0.533171      C  3   1.004   C  4   0.989
     7   1    -0.480623      O  2   1.979   (other: 0.021)
     8   1    -0.473111      C  3   1.112   H  6   0.879
     9   1    -0.473111      C  3   1.112   H  7   0.879
    10   1    -0.457995      C  4   1.116   H  5   0.868
    11   1    -0.451870      C  4   1.126   H  8   0.863
    12   1    -0.451870      C  4   1.126   H  9   0.863
    13   1    -0.249263      O  2   1.956   (other: 0.044)

 Localized orbitals saved to record      2200.2  (orbital set 4)


 **********************************************************************************************************************************
 DATASETS  * FILE   NREC   LENGTH (MB)   RECORD NAMES
              1      20       43.59       500      610      700      900      950      970     1000      129      960     1100   
                                          VAR    BASINP    GEOM    SYMINP    ZMAT    AOBASIS   BASIS     P2S    ABASIS      S 
                                         1400     1410     1200     1210     1080     1600     1650     1300     1700     1800   
                                           T        V       H0       H01     AOSYM     SMH    MOLCAS    ERIS     OPER     GRID   

              2       5        3.15       700     1000      520     1800     2200   
                                         GEOM     BASIS   MCVARS    GRID      UKS  

 PROGRAMS   *        TOTAL      IBBA       UKS       INT
 CPU TIMES  *         7.58      0.03      6.58      0.83
 REAL TIME  *         8.51 SEC
 DISK USED  *        82.90 MB      
 **********************************************************************************************************************************
 Molecular orbitals read from record     2200.2  Type=UKS/LOCAL(IBO)  
 Occupation numbers read from record     2200.2  Type=UKS/LOCAL(IBO)  
 Orbital energies read from record       2200.2  Type=UKS/LOCAL(IBO)  
 Redundancy group numbers read from rec  2200.2  Type=UKS/BETA (state 1.1)

 IBBA/SVP energy=      0.000000000000

        UKS-SCF 
   -155.65344438
 **********************************************************************************************************************************
 Molpro calculation terminated
