
 Primary working directories    : /tmp/sb13343
 Secondary working directories  : /tmp/sb13343
 Wavefunction directory         : /panfs/panasas01/chem/sb13343/wfu/
 Main file repository           : /tmp/sb13343/

 SHA1      : b4a5b34a9e711420743f49e6833241d17c61fb3c
 NAME      : 2099.9.b4a5b34
 ARCHNAME  : linux/x86_64_openmp
 FC        : /cm/shared/languages/GCC-6.1/bin/gfortran
 BLASLIB   : -lblas
 id        : simonbennie

 Nodes     nprocs
 node34-020    1

 Using customized tuning parameters: mindgm=1; mindgv=20; mindgc=4; mindgr=1; noblas=0; minvec=7
 default implementation of scratch files=df  

 memory,500,m
 geomtyp=xyz
 nosym
 noorient
 geometry={
 H         -1.81763       -0.80620        0.00000
 O         -0.85078       -0.87151        0.00000
 C         -0.32298        0.45206        0.00000
 C          1.19308        0.34760        0.00000
 H          1.64898        1.34394        0.00000
 H         -0.66062        1.01252       -0.88753
 H         -0.66062        1.01252        0.88753
 H          1.53777       -0.19434       -0.88682
 H          1.53777       -0.19434        0.88682
 }
 basis={ default,svp }
 {ks,M06-2X,direct;wf,26,1,0}
 {ibba,bonds=1}

 Variables initialized (895), CPU time= 0.00 sec
 Commands  initialized (725), CPU time= 0.01 sec, 591 directives.
 Default parameters read. Elapsed time= 0.07 sec

 Checking input...
 Passed
1


                                         ***  PROGRAM SYSTEM MOLPRO  ***
                                       Copyright, TTI GmbH Stuttgart, 2015
                                    Version 2099.9 linked May 26 2017 16:03:21


 **********************************************************************************************************************************
 LABEL *                                                                                 
  64 bit serial version                                                                  DATE: 08-Jun-17          TIME: 12:01:51  
 **********************************************************************************************************************************

 SHA1:             b4a5b34a9e711420743f49e6833241d17c61fb3c
 **********************************************************************************************************************************
 SETTING GEOMTYP        =    XYZ

 Variable memory set to  500000000 words,  buffer space 

 ZSYMEL=NOSYM

 SETTING BASIS          =    SVP


 Recomputing integrals since basis changed


 Using spherical harmonics

 Library entry H      S def2-SVP             selected for orbital group  1
 Library entry H      P def2-SVP             selected for orbital group  1
 Library entry O      S def2-SVP             selected for orbital group  2
 Library entry O      P def2-SVP             selected for orbital group  2
 Library entry O      D def2-SVP             selected for orbital group  2
 Library entry C      S def2-SVP             selected for orbital group  3
 Library entry C      P def2-SVP             selected for orbital group  3
 Library entry C      D def2-SVP             selected for orbital group  3


 PROGRAM * SEWARD (Integral evaluation for generally contracted gaussian basis sets)     Author: Roland Lindh, 1990

 Geometry written to block  1 of record 700


 Point group  C1  



 ATOMIC COORDINATES

 NR  ATOM    CHARGE       X              Y              Z

   1  H       1.00   -3.434822896   -1.523497202    0.000000000
   2  O       8.00   -1.607741192   -1.646915215    0.000000000
   3  C       6.00   -0.610343744    0.854269592    0.000000000
   4  C       6.00    2.254594445    0.656868801    0.000000000
   5  H       1.00    3.116120585    2.539678528    0.000000000
   6  H       1.00   -1.248390872    1.913385496   -1.677188627
   7  H       1.00   -1.248390872    1.913385496    1.677188627
   8  H       1.00    2.905964143   -0.367249375   -1.675846922
   9  H       1.00    2.905964143   -0.367249375    1.675846922

 Bond lengths in Bohr (Angstrom)

 1-2  1.831245357  2-3  2.692717421  3-4  2.871730819  3-6  2.083696794  3-7  2.083696794
     ( 0.969053311)     ( 1.424924694)     ( 1.519654505)     ( 1.102644858)     ( 1.102644858)

 4-5  2.070555423  4-8  2.069193908  4-9  2.069193908
     ( 1.095690744)     ( 1.094970261)     ( 1.094970261)

 Bond angles

  1-2-3  107.87621325   2-3-4  107.79904962   2-3-6  111.02105480   2-3-7  111.02105480

  3-4-5  110.64605443   3-4-8  110.36936729   3-4-9  110.36936729   4-3-6  109.90272099

  4-3-7  109.90272099   5-4-8  108.60711935   5-4-9  108.60711935   6-3-7  107.20315121

  8-4-9  108.17296435

 NUCLEAR CHARGE:                   26
 NUMBER OF PRIMITIVE AOS:         117
 NUMBER OF SYMMETRY AOS:          114
 NUMBER OF CONTRACTIONS:           72   (  72A   )
 NUMBER OF CORE ORBITALS:           3   (   3A   )
 NUMBER OF VALENCE ORBITALS:       18   (  18A   )


 NUCLEAR REPULSION ENERGY   81.60955194


 Eigenvalues of metric

         1 0.375E-02 0.159E-01 0.292E-01 0.324E-01 0.398E-01 0.436E-01 0.556E-01 0.658E-01


 Contracted 2-electron integrals neglected if value below      1.0D-11
 AO integral compression algorithm  1   Integral accuracy      1.0D-11

     14.418 MB (compressed) written to integral file ( 45.7%)


 NUMBER OF SORTED TWO-ELECTRON INTEGRALS:    3454506.     BUFFER LENGTH:  32768
 NUMBER OF SEGMENTS:   1  SEGMENT LENGTH:    3454506      RECORD LENGTH: 524288

 Memory used in sort:       4.01 MW

 SORT1 READ     3945093. AND WROTE     2928993. INTEGRALS IN      9 RECORDS. CPU TIME:     0.04 SEC, REAL TIME:     0.08 SEC
 SORT2 READ     2928993. AND WROTE     3454506. INTEGRALS IN     55 RECORDS. CPU TIME:     0.12 SEC, REAL TIME:     0.14 SEC

 FILE SIZES:   FILE 1:    44.7 MBYTE,  FILE 4:    37.8 MBYTE,   TOTAL:     82.5 MBYTE

 OPERATOR DM      FOR CENTER  0  COORDINATES:    0.000000    0.000000    0.000000


 **********************************************************************************************************************************
 DATASETS  * FILE   NREC   LENGTH (MB)   RECORD NAMES
              1      19       42.60       500      610      700      900      950      970     1000      129      960     1100   
                                          VAR    BASINP    GEOM    SYMINP    ZMAT    AOBASIS   BASIS     P2S    ABASIS      S 
                                         1400     1410     1200     1210     1080     1600     1650     1300     1700   
                                           T        V       H0       H01     AOSYM     SMH    MOLCAS    ERIS     OPER   

 PROGRAMS   *        TOTAL       INT
 CPU TIMES  *         0.86      0.72
 REAL TIME  *         1.27 SEC
 DISK USED  *        82.90 MB      
 **********************************************************************************************************************************

 Density functional group M06-2X=XC-M06-2X
 Functional: XC-M06-2X(via MFM 1.6)                                            Gradient terms: 1
 Use grid at  1800.2


 Exact exchange will be calculated, factor:  0.5400

 Functional: XC-M06-2X                 Factor:  1.0000

 Generated new metagrid on record  1800.2 with target accuracy 1.0D-06 and 30796 points in CPU time    0.7
 Computed new grid on record 1800.1 in CPU time    0.7
   61197 words reserved for DFT integration

 PROGRAM * RKS-SCF (Restricted closed shell Kohn-Sham)     Authors: W. Meyer, H.-J. Werner, P.J. Knowles, 1993

 NUMBER OF ELECTRONS:      13+   13-    SPACE SYMMETRY=1    SPIN SYMMETRY: Singlet 
 CONVERGENCE THRESHOLDS:    1.00E-05 (Density)    1.00E-06 (Energy)
 MAX. NUMBER OF ITERATIONS:       60
 INTERPOLATION TYPE:            DIIS
 INTERPOLATION STEPS:              2 (START)      1 (STEP)
 LEVEL SHIFTS:                  0.00 (CLOSED)  0.00 (OPEN) 



 Use fine grid record 1800.2 for energy threshold  1.0D-06
 Orbital guess generated from atomic densities. Full valence occupancy:   13

 Molecular orbital dump at record        2100.2

 Initial occupancy:  13

 ITERATION    DDIFF          GRAD             ENERGY        2-EL.EN.            DIPOLE MOMENTS         DIIS   ORB.
    1      0.000D+00      0.000D+00      -154.77038303    295.843398   -0.59056    0.85288   -0.00000    0    start
    2      0.000D+00      0.965D-02      -154.78416148    285.274492   -0.22649    0.20911   -0.00000    1    diag
    3      0.150D-01      0.933D-02      -154.83872070    290.452301   -0.36466    0.55137   -0.00000    2    diag
    4      0.740D-02      0.850D-03      -154.83908321    290.429474   -0.37057    0.51303   -0.00000    3    diag
    5      0.794D-03      0.392D-03      -154.83918900    290.375662   -0.36716    0.52283   -0.00000    4    diag
    6      0.328D-03      0.594D-04      -154.83919182    290.393699   -0.36642    0.52266   -0.00000    5    diag
    7      0.614D-04      0.596D-05      -154.83919184    290.392009   -0.36654    0.52242   -0.00000    6    diag
    8      0.840D-05      0.310D-05      -154.83919184    290.393354   -0.36644    0.52247   -0.00000    0    orth

 Final occupancy:  13

 !RKS STATE 1.1 Energy               -154.839191844957
 Nuclear energy                        81.60955194
 One-electron energy                 -371.23895673
 Two-electron energy                  145.19667705
 SCF exchange energy                  -20.70514052     Factor= 0.5400
 Density functional                   -10.40646410     XC-M06-2X=-10.40646410
 Virial quotient                       -1.00977112
 !RKS STATE 1.1 Dipole moment          -0.36644396     0.52247416    -0.00000000
 Dipole moment /Debye                  -0.93134665     1.32790988    -0.00000000

 Orbital energies:

         1.1          2.1          3.1          4.1          5.1          6.1          7.1          8.1          9.1         10.1
    -19.617294   -10.593743   -10.538552    -1.112233    -0.830760    -0.683160    -0.584631    -0.533615    -0.467627    -0.441647

        11.1         12.1         13.1         14.1         15.1
     -0.426641    -0.392837    -0.338303     0.092059     0.127448

 HOMO     13.1    -0.338303 =      -9.2057eV
 LUMO     14.1     0.092059 =       2.5051eV
 LUMO-HOMO         0.430362 =      11.7107eV


 **********************************************************************************************************************************
 DATASETS  * FILE   NREC   LENGTH (MB)   RECORD NAMES
              1      20       43.59       500      610      700      900      950      970     1000      129      960     1100   
                                          VAR    BASINP    GEOM    SYMINP    ZMAT    AOBASIS   BASIS     P2S    ABASIS      S 
                                         1400     1410     1200     1210     1080     1600     1650     1300     1700     1800   
                                           T        V       H0       H01     AOSYM     SMH    MOLCAS    ERIS     OPER     GRID   

              2       5        3.00       700     1000      520     1800     2100   
                                         GEOM     BASIS   MCVARS    GRID      RKS  

 PROGRAMS   *        TOTAL        KS       INT
 CPU TIMES  *         9.28      8.41      0.72
 REAL TIME  *        10.05 SEC
 DISK USED  *        82.90 MB      
 **********************************************************************************************************************************


 PROGRAM * Intrinsic Basis Bonding Analysis (IBBA)          Author: G. Knizia

 Molecular orbitals read from record     2100.2  Type=RKS/CANONICAL (state 1.1)
 Fock matrix read from record            2100.2  Type=RKS/TOTAL (state 1.1)
 Orbital energies read from record       2100.2  Type=RKS/CANONICAL (state 1.1)
 Density matrix read from record         2100.2  Type=RKS/CHARGE (state 1.1)

 Number of core orbitals:           3 (   3 )
 Number of closed-shell orbitals:  10 (  10 )

 Basis set MINAO-AUTO-PP generated.      Number of basis functions:   21 

 Polarized AO type:                A = (O Ot + (1-O)(1-Ot)) P12
 Orthogonalization method:         Symmetric (Loewdin)
 Localization functional:          L = sum[A,i] <i|n_A|i>^4 -> max

 Localization group 1:  13 orbitals, occupancy  2.000
 Iterative localization: IB/PM,    7 iter; Final gradient 0.28E-09

 Bond order analysis:       [THRPRINT= 0.020]

   CEN ATOM   CEN ATOM     WIBERG.BO      RENORM.BO
     1   H  -   2   O       0.871855       0.987272

     2   O  -   3   C       0.973203       0.999599
     2   O  -   1   H       0.871855       0.987272
     2   O  -   7   H       0.025398       0.014654
     2   O  -   6   H       0.025398       0.014654

     3   C  -   4   C       1.025247       1.016449
     3   C  -   2   O       0.973203       0.999599
     3   C  -   6   H       0.946763       0.940130
     3   C  -   7   H       0.946763       0.940130

     4   C  -   3   C       1.025247       1.016449
     4   C  -   5   H       0.964175       0.989973
     4   C  -   8   H       0.960425       0.982717
     4   C  -   9   H       0.960425       0.982717

     5   H  -   4   C       0.964175       0.989973

     6   H  -   3   C       0.946763       0.940130
     6   H  -   2   O       0.025398       0.014654

     7   H  -   3   C       0.946763       0.940130
     7   H  -   2   O       0.025398       0.014654

     8   H  -   4   C       0.960425       0.982717

     9   H  -   4   C       0.960425       0.982717


 Valency analysis:

   CEN ATOM   TOT.VALENCE
     1   H       0.884616
     2   O       1.924752
     3   C       3.897668
     4   C       3.936848
     5   H       0.982765
     6   H       0.988691
     7   H       0.988691
     8   H       0.981057
     9   H       0.981057

 Total charge composition:

   CEN ATOM         s          p       ELECTRONS ->P.CHARGE
     1   H       0.66032                 0.66032    0.33968
     2   O       3.61739    4.92759      8.54498   -0.54498
     3   C       2.97486    3.04650      6.02135   -0.02135
     4   C       3.01061    3.38198      6.39258   -0.39258
     5   H       0.86872                 0.86872    0.13128
     6   H       0.89366                 0.89366    0.10634
     7   H       0.89366                 0.89366    0.10634
     8   H       0.86237                 0.86237    0.13763
     9   H       0.86237                 0.86237    0.13763

 Total charge composition, AO contributions:

   CEN ATOM SHL      SPHERICAL COMPONENTS
     1   H  1s       0.66032

     2   O  1s       1.99686
     2   O  2s       1.62053
     2   O  2p       1.43524    1.52849    1.96386

     3   C  1s       1.99158
     3   C  2s       0.98328
     3   C  2p       1.03008    0.86178    1.15463

     4   C  1s       1.99051
     4   C  2s       1.02010
     4   C  2p       1.04892    1.16121    1.17185

     5   H  1s       0.86872

     6   H  1s       0.89366

     7   H  1s       0.89366

     8   H  1s       0.86237

     9   H  1s       0.86237

 Summary of localized orbital composition:   [THRPRINT= 0.020]

   ORB  GRP  ORB.ENERGY      CENTERS/CHARGES
     1   1   -19.462939      O  2   2.000
     2   1   -10.487213      C  3   2.000
     3   1   -10.420177      C  4   2.000
     4   1    -0.841834      O  2   1.337   H  1   0.654
     5   1    -0.822527      O  2   1.261   C  3   0.734
     6   1    -0.656103      C  3   1.005   C  4   0.987
     7   1    -0.631191      O  2   1.982
     8   1    -0.585571      C  3   1.117   H  7   0.875
     9   1    -0.585571      C  3   1.117   H  6   0.875
    10   1    -0.567361      C  4   1.124   H  5   0.862
    11   1    -0.560790      C  4   1.134   H  8   0.856
    12   1    -0.560790      C  4   1.134   H  9   0.856
    13   1    -0.378974      O  2   1.964   (other: 0.036)

 Localized orbitals saved to record      2100.2  (orbital set 2)


 **********************************************************************************************************************************
 DATASETS  * FILE   NREC   LENGTH (MB)   RECORD NAMES
              1      20       43.59       500      610      700      900      950      970     1000      129      960     1100   
                                          VAR    BASINP    GEOM    SYMINP    ZMAT    AOBASIS   BASIS     P2S    ABASIS      S 
                                         1400     1410     1200     1210     1080     1600     1650     1300     1700     1800   
                                           T        V       H0       H01     AOSYM     SMH    MOLCAS    ERIS     OPER     GRID   

              2       5        3.04       700     1000      520     1800     2100   
                                         GEOM     BASIS   MCVARS    GRID      RKS  

 PROGRAMS   *        TOTAL      IBBA        KS       INT
 CPU TIMES  *         9.31      0.03      8.41      0.72
 REAL TIME  *        10.13 SEC
 DISK USED  *        82.90 MB      
 **********************************************************************************************************************************
 Molecular orbitals read from record     2100.2  Type=RKS/LOCAL(IBO)  
 Occupation numbers read from record     2100.2  Type=RKS/LOCAL(IBO)  
 Orbital energies read from record       2100.2  Type=RKS/LOCAL(IBO)  
 Redundancy group numbers read from rec  2100.2  Type=RKS/LOCAL(IBO)  

 IBBA/SVP energy=      0.000000000000

        KS-SCF  
   -154.83919184
 **********************************************************************************************************************************
 Molpro calculation terminated
