
 Primary working directories    : /tmp/sb13343
 Secondary working directories  : /tmp/sb13343
 Wavefunction directory         : /panfs/panasas01/chem/sb13343/wfu/
 Main file repository           : /tmp/sb13343/

 SHA1      : b4a5b34a9e711420743f49e6833241d17c61fb3c
 NAME      : 2099.9.b4a5b34
 ARCHNAME  : linux/x86_64_openmp
 FC        : /cm/shared/languages/GCC-6.1/bin/gfortran
 BLASLIB   : -lblas
 id        : simonbennie

 Nodes     nprocs
 node32-020    1

 Using customized tuning parameters: mindgm=1; mindgv=20; mindgc=4; mindgr=1; noblas=0; minvec=7
 default implementation of scratch files=df  

 memory,500,m
 geomtyp=xyz
 nosym
 noorient
 geometry={
 H         -1.81763       -0.80620        0.00000
 O         -0.85078       -0.87151        0.00000
 C         -0.32298        0.45206        0.00000
 C          1.19308        0.34760        0.00000
 H          1.64898        1.34394        0.00000
 H         -0.66062        1.01252       -0.88753
 H         -0.66062        1.01252        0.88753
 H          1.53777       -0.19434       -0.88682
 H          1.53777       -0.19434        0.88682
 }
 basis={ default,sto-3g }
 {ks,B-P,direct;wf,26,1,0}
 {ibba,bonds=1}

 Variables initialized (895), CPU time= 0.01 sec
 Commands  initialized (725), CPU time= 0.01 sec, 591 directives.
 Default parameters read. Elapsed time= 0.10 sec

 Checking input...
 Passed
1


                                         ***  PROGRAM SYSTEM MOLPRO  ***
                                       Copyright, TTI GmbH Stuttgart, 2015
                                    Version 2099.9 linked May 26 2017 16:03:21


 **********************************************************************************************************************************
 LABEL *                                                                                 
  64 bit serial version                                                                  DATE: 08-Jun-17          TIME: 11:35:43  
 **********************************************************************************************************************************

 SHA1:             b4a5b34a9e711420743f49e6833241d17c61fb3c
 **********************************************************************************************************************************
 SETTING GEOMTYP        =    XYZ

 Variable memory set to  500000000 words,  buffer space 

 ZSYMEL=NOSYM

 SETTING BASIS          =    STO-3G


 Recomputing integrals since basis changed


 Using spherical harmonics

 Library entry H      S STO-3G               selected for orbital group  1
 Library entry O      S STO-3G               selected for orbital group  2
 Library entry O      P STO-3G               selected for orbital group  2
 Library entry C      S STO-3G               selected for orbital group  3
 Library entry C      P STO-3G               selected for orbital group  3


 PROGRAM * SEWARD (Integral evaluation for generally contracted gaussian basis sets)     Author: Roland Lindh, 1990

 Geometry written to block  1 of record 700


 Point group  C1  



 ATOMIC COORDINATES

 NR  ATOM    CHARGE       X              Y              Z

   1  H       1.00   -3.434822896   -1.523497202    0.000000000
   2  O       8.00   -1.607741192   -1.646915215    0.000000000
   3  C       6.00   -0.610343744    0.854269592    0.000000000
   4  C       6.00    2.254594445    0.656868801    0.000000000
   5  H       1.00    3.116120585    2.539678528    0.000000000
   6  H       1.00   -1.248390872    1.913385496   -1.677188627
   7  H       1.00   -1.248390872    1.913385496    1.677188627
   8  H       1.00    2.905964143   -0.367249375   -1.675846922
   9  H       1.00    2.905964143   -0.367249375    1.675846922

 Bond lengths in Bohr (Angstrom)

 1-2  1.831245357  2-3  2.692717421  3-4  2.871730819  3-6  2.083696794  3-7  2.083696794
     ( 0.969053311)     ( 1.424924694)     ( 1.519654505)     ( 1.102644858)     ( 1.102644858)

 4-5  2.070555423  4-8  2.069193908  4-9  2.069193908
     ( 1.095690744)     ( 1.094970261)     ( 1.094970261)

 Bond angles

  1-2-3  107.87621325   2-3-4  107.79904962   2-3-6  111.02105480   2-3-7  111.02105480

  3-4-5  110.64605443   3-4-8  110.36936729   3-4-9  110.36936729   4-3-6  109.90272099

  4-3-7  109.90272099   5-4-8  108.60711935   5-4-9  108.60711935   6-3-7  107.20315121

  8-4-9  108.17296435

 NUCLEAR CHARGE:                   26
 NUMBER OF PRIMITIVE AOS:          63
 NUMBER OF SYMMETRY AOS:           63
 NUMBER OF CONTRACTIONS:           21   (  21A   )
 NUMBER OF CORE ORBITALS:           3   (   3A   )
 NUMBER OF VALENCE ORBITALS:       18   (  18A   )


 NUCLEAR REPULSION ENERGY   81.60955194


 Eigenvalues of metric

         1 0.212E+00 0.263E+00 0.352E+00 0.355E+00 0.377E+00 0.393E+00 0.407E+00 0.473E+00


 Contracted 2-electron integrals neglected if value below      1.0D-11
 AO integral compression algorithm  1   Integral accuracy      1.0D-11

     0.262 MB (compressed) written to integral file (100.0%)


 NUMBER OF SORTED TWO-ELECTRON INTEGRALS:      26796.     BUFFER LENGTH:  32768
 NUMBER OF SEGMENTS:   1  SEGMENT LENGTH:      26796      RECORD LENGTH: 524288

 Memory used in sort:       0.58 MW

 SORT1 READ       32379. AND WROTE       21718. INTEGRALS IN      1 RECORDS. CPU TIME:     0.00 SEC, REAL TIME:     0.01 SEC
 SORT2 READ       21718. AND WROTE       26796. INTEGRALS IN      1 RECORDS. CPU TIME:     0.01 SEC, REAL TIME:     0.01 SEC

 FILE SIZES:   FILE 1:    30.4 MBYTE,  FILE 4:     4.2 MBYTE,   TOTAL:     34.6 MBYTE

 OPERATOR DM      FOR CENTER  0  COORDINATES:    0.000000    0.000000    0.000000


 **********************************************************************************************************************************
 DATASETS  * FILE   NREC   LENGTH (MB)   RECORD NAMES
              1      19       30.21       500      610      700      900      950      970     1000      129      960     1100   
                                          VAR    BASINP    GEOM    SYMINP    ZMAT    AOBASIS   BASIS     P2S    ABASIS      S 
                                         1400     1410     1200     1210     1080     1600     1650     1300     1700   
                                           T        V       H0       H01     AOSYM     SMH    MOLCAS    ERIS     OPER   

 PROGRAMS   *        TOTAL       INT
 CPU TIMES  *         0.40      0.24
 REAL TIME  *         0.74 SEC
 DISK USED  *        34.99 MB      
 **********************************************************************************************************************************

 Density functional group B-P=B88+P86
 Functional: B88(Automatically generated (new) B88)                            Gradient terms: 1
 Functional: P86(Automatically generated (new) P86)                            Gradient terms: 1
 Use grid at  1800.2

 Functional: B88                       Factor:  1.0000
 Functional: P86                       Factor:  1.0000

 Generated new metagrid on record  1800.2 with target accuracy 1.0D-06 and 30796 points in CPU time    0.8
 Computed new grid on record 1800.1 in CPU time    0.8
   20895 words reserved for DFT integration

 PROGRAM * RKS-SCF (Restricted closed shell Kohn-Sham)     Authors: W. Meyer, H.-J. Werner, P.J. Knowles, 1993

 NUMBER OF ELECTRONS:      13+   13-    SPACE SYMMETRY=1    SPIN SYMMETRY: Singlet 
 CONVERGENCE THRESHOLDS:    1.00E-05 (Density)    1.00E-06 (Energy)
 MAX. NUMBER OF ITERATIONS:       60
 INTERPOLATION TYPE:            DIIS
 INTERPOLATION STEPS:              2 (START)      1 (STEP)
 LEVEL SHIFTS:                  0.00 (CLOSED)  0.00 (OPEN) 



 Use fine grid record 1800.2 for energy threshold  1.0D-06
 Orbital guess generated from atomic densities. Full valence occupancy:   13

 Molecular orbital dump at record        2100.2

 Initial occupancy:  13

 ITERATION    DDIFF          GRAD             ENERGY        2-EL.EN.            DIPOLE MOMENTS         DIIS   ORB.
    1      0.000D+00      0.000D+00      -152.85857827    322.377092   -0.59339    1.01708    0.00000    0    start
    2      0.000D+00      0.340D-01      -152.84248079    306.166513    0.10999   -0.46576   -0.00000    1    diag
    3      0.126D+00      0.363D-01      -153.02652508    314.090282   -0.33307    0.44303   -0.00000    2    diag
    4      0.677D-01      0.331D-02      -153.02778923    314.169055   -0.30702    0.36549   -0.00000    3    diag
    5      0.641D-02      0.931D-03      -153.02789675    314.113191   -0.29938    0.37612   -0.00000    4    diag
    6      0.149D-02      0.555D-04      -153.02789722    314.111768   -0.30141    0.37569   -0.00000    5    diag
    7      0.138D-03      0.220D-04      -153.02789728    314.112474   -0.30155    0.37612   -0.00000    6    diag
    8      0.386D-04      0.157D-05      -153.02789728    314.112507   -0.30152    0.37610   -0.00000    7    diag
    9      0.356D-05      0.164D-06      -153.02789728    314.112530   -0.30152    0.37611   -0.00000    0    orth

 Final occupancy:  13

 !RKS STATE 1.1 Energy               -153.027897281961
 Nuclear energy                        81.60955194
 One-electron energy                 -369.92336593
 Two-electron energy                  157.05626517
 Density functional                   -21.77034846     B88=-20.81710601 P86= -0.95324245
 Virial quotient                       -1.01500963
 !RKS STATE 1.1 Dipole moment          -0.30152211     0.37611134    -0.00000000
 Dipole moment /Debye                  -0.76634257     0.95591707    -0.00000000

 Orbital energies:

         1.1          2.1          3.1          4.1          5.1          6.1          7.1          8.1          9.1         10.1
    -18.496865    -9.771660    -9.727105    -0.862344    -0.637695    -0.508569    -0.399264    -0.371994    -0.301860    -0.288137

        11.1         12.1         13.1         14.1         15.1
     -0.276329    -0.160993    -0.071731     0.266615     0.354004

 HOMO     13.1    -0.071731 =      -1.9519eV
 LUMO     14.1     0.266615 =       7.2550eV
 LUMO-HOMO         0.338346 =       9.2069eV


 **********************************************************************************************************************************
 DATASETS  * FILE   NREC   LENGTH (MB)   RECORD NAMES
              1      20       31.20       500      610      700      900      950      970     1000      129      960     1100   
                                          VAR    BASINP    GEOM    SYMINP    ZMAT    AOBASIS   BASIS     P2S    ABASIS      S 
                                         1400     1410     1200     1210     1080     1600     1650     1300     1700     1800   
                                           T        V       H0       H01     AOSYM     SMH    MOLCAS    ERIS     OPER     GRID   

              2       5        2.90       700     1000      520     1800     2100   
                                         GEOM     BASIS   MCVARS    GRID      RKS  

 PROGRAMS   *        TOTAL        KS       INT
 CPU TIMES  *         2.43      2.03      0.24
 REAL TIME  *         2.88 SEC
 DISK USED  *        34.99 MB      
 **********************************************************************************************************************************


 PROGRAM * Intrinsic Basis Bonding Analysis (IBBA)          Author: G. Knizia

 Molecular orbitals read from record     2100.2  Type=RKS/CANONICAL (state 1.1)
 Fock matrix read from record            2100.2  Type=RKS/TOTAL (state 1.1)
 Orbital energies read from record       2100.2  Type=RKS/CANONICAL (state 1.1)
 Density matrix read from record         2100.2  Type=RKS/CHARGE (state 1.1)

 Number of core orbitals:           3 (   3 )
 Number of closed-shell orbitals:  10 (  10 )

 Basis set MINAO-AUTO-PP generated.      Number of basis functions:   21 

 Polarized AO type:                A = (O Ot + (1-O)(1-Ot)) P12
 Orthogonalization method:         Symmetric (Loewdin)
 Localization functional:          L = sum[A,i] <i|n_A|i>^4 -> max

 Localization group 1:  13 orbitals, occupancy  2.000
 Iterative localization: IB/PM,    7 iter; Final gradient 0.17E-09

 Bond order analysis:       [THRPRINT= 0.020]

   CEN ATOM   CEN ATOM     WIBERG.BO      RENORM.BO
     1   H  -   2   O       0.927479       0.984859

     2   O  -   3   C       1.028133       1.013520
     2   O  -   1   H       0.927479       0.984859
     2   O  -   7   H       0.032070       0.018642
     2   O  -   6   H       0.032070       0.018642

     3   C  -   2   O       1.028133       1.013520
     3   C  -   4   C       1.016361       1.006373
     3   C  -   6   H       0.940553       0.930747
     3   C  -   7   H       0.940553       0.930747

     4   C  -   3   C       1.016361       1.006373
     4   C  -   5   H       0.963960       0.991037
     4   C  -   8   H       0.961625       0.985878
     4   C  -   9   H       0.961625       0.985878

     5   H  -   4   C       0.963960       0.991037

     6   H  -   3   C       0.940553       0.930747
     6   H  -   2   O       0.032070       0.018642

     7   H  -   3   C       0.940553       0.930747
     7   H  -   2   O       0.032070       0.018642

     8   H  -   4   C       0.961625       0.985878

     9   H  -   4   C       0.961625       0.985878


 Valency analysis:

   CEN ATOM   TOT.VALENCE
     1   H       0.944000
     2   O       2.043091
     3   C       3.930129
     4   C       3.930650
     5   H       0.981172
     6   H       0.987825
     7   H       0.987825
     8   H       0.980631
     9   H       0.980631

 Total charge composition:

   CEN ATOM         s          p       ELECTRONS ->P.CHARGE
     1   H       0.76336                 0.76336    0.23664
     2   O       3.67735    4.65368      8.33103   -0.33103
     3   C       2.98827    3.15008      6.13835   -0.13835
     4   C       2.99895    3.40455      6.40351   -0.40351
     5   H       0.86279                 0.86279    0.13721
     6   H       0.88966                 0.88966    0.11034
     7   H       0.88966                 0.88966    0.11034
     8   H       0.86083                 0.86083    0.13917
     9   H       0.86083                 0.86083    0.13917

 Total charge composition, AO contributions:

   CEN ATOM SHL      SPHERICAL COMPONENTS
     1   H  1s       0.76336

     2   O  1s       1.99728
     2   O  2s       1.68007
     2   O  2p       1.31477    1.38670    1.95220

     3   C  1s       1.99283
     3   C  2s       0.99544
     3   C  2p       1.04686    0.93103    1.17219

     4   C  1s       1.99194
     4   C  2s       1.00701
     4   C  2p       1.05670    1.17055    1.17731

     5   H  1s       0.86279

     6   H  1s       0.88966

     7   H  1s       0.88966

     8   H  1s       0.86083

     9   H  1s       0.86083

 Summary of localized orbital composition:   [THRPRINT= 0.020]

   ORB  GRP  ORB.ENERGY      CENTERS/CHARGES
     1   1   -18.336870      O  2   2.000
     2   1    -9.670697      C  3   2.000
     3   1    -9.616617      C  4   2.000
     4   1    -0.601325      O  2   1.233   H  1   0.756
     5   1    -0.572062      O  2   1.159   C  3   0.836
     6   1    -0.481916      C  3   1.002   C  4   0.987
     7   1    -0.428410      C  3   1.126   H  7   0.867
     8   1    -0.428410      C  3   1.126   H  6   0.867
     9   1    -0.416009      C  4   1.132   H  5   0.856
    10   1    -0.414943      O  2   1.985
    11   1    -0.409367      C  4   1.136   H  9   0.855
    12   1    -0.409367      C  4   1.136   H  8   0.855
    13   1    -0.088554      O  2   1.952   (other: 0.048)

 Localized orbitals saved to record      2100.2  (orbital set 2)


 **********************************************************************************************************************************
 DATASETS  * FILE   NREC   LENGTH (MB)   RECORD NAMES
              1      20       31.20       500      610      700      900      950      970     1000      129      960     1100   
                                          VAR    BASINP    GEOM    SYMINP    ZMAT    AOBASIS   BASIS     P2S    ABASIS      S 
                                         1400     1410     1200     1210     1080     1600     1650     1300     1700     1800   
                                           T        V       H0       H01     AOSYM     SMH    MOLCAS    ERIS     OPER     GRID   

              2       5        2.90       700     1000      520     1800     2100   
                                         GEOM     BASIS   MCVARS    GRID      RKS  

 PROGRAMS   *        TOTAL      IBBA        KS       INT
 CPU TIMES  *         2.46      0.03      2.03      0.24
 REAL TIME  *         2.98 SEC
 DISK USED  *        34.99 MB      
 **********************************************************************************************************************************
 Molecular orbitals read from record     2100.2  Type=RKS/LOCAL(IBO)  
 Occupation numbers read from record     2100.2  Type=RKS/LOCAL(IBO)  
 Orbital energies read from record       2100.2  Type=RKS/LOCAL(IBO)  
 Redundancy group numbers read from rec  2100.2  Type=RKS/LOCAL(IBO)  

 IBBA/STO-3G energy=      0.000000000000

        KS-SCF  
   -153.02789728
 **********************************************************************************************************************************
 Molpro calculation terminated
