
 Primary working directories    : /tmp/sb13343
 Secondary working directories  : /tmp/sb13343
 Wavefunction directory         : /panfs/panasas01/chem/sb13343/wfu/
 Main file repository           : /tmp/sb13343/

 SHA1      : b4a5b34a9e711420743f49e6833241d17c61fb3c
 NAME      : 2099.9.b4a5b34
 ARCHNAME  : linux/x86_64_openmp
 FC        : /cm/shared/languages/GCC-6.1/bin/gfortran
 BLASLIB   : -lblas
 id        : simonbennie

 Nodes     nprocs
 node34-009    1

 Using customized tuning parameters: mindgm=1; mindgv=20; mindgc=4; mindgr=1; noblas=0; minvec=7
 default implementation of scratch files=df  

 memory,500,m
 geomtyp=xyz
 nosym
 noorient
 geometry={
 H         -1.81763       -0.80620        0.00000
 O         -0.85078       -0.87151        0.00000
 C         -0.32298        0.45206        0.00000
 C          1.19308        0.34760        0.00000
 H          1.64898        1.34394        0.00000
 H         -0.66062        1.01252       -0.88753
 H         -0.66062        1.01252        0.88753
 H          1.53777       -0.19434       -0.88682
 H          1.53777       -0.19434        0.88682
 }
 basis={ default,sto-3g }
 {uks,M05-2X,direct;wf,26,1,0}
 {ibba,bonds=1}

 Variables initialized (895), CPU time= 0.00 sec
 Commands  initialized (725), CPU time= 0.02 sec, 591 directives.
 Default parameters read. Elapsed time= 0.10 sec

 Checking input...
 Passed
1


                                         ***  PROGRAM SYSTEM MOLPRO  ***
                                       Copyright, TTI GmbH Stuttgart, 2015
                                    Version 2099.9 linked May 26 2017 16:03:21


 **********************************************************************************************************************************
 LABEL *                                                                                 
  64 bit serial version                                                                  DATE: 08-Jun-17          TIME: 11:46:23  
 **********************************************************************************************************************************

 SHA1:             b4a5b34a9e711420743f49e6833241d17c61fb3c
 **********************************************************************************************************************************
 SETTING GEOMTYP        =    XYZ

 Variable memory set to  500000000 words,  buffer space 

 ZSYMEL=NOSYM

 SETTING BASIS          =    STO-3G


 Recomputing integrals since basis changed


 Using spherical harmonics

 Library entry H      S STO-3G               selected for orbital group  1
 Library entry O      S STO-3G               selected for orbital group  2
 Library entry O      P STO-3G               selected for orbital group  2
 Library entry C      S STO-3G               selected for orbital group  3
 Library entry C      P STO-3G               selected for orbital group  3


 PROGRAM * SEWARD (Integral evaluation for generally contracted gaussian basis sets)     Author: Roland Lindh, 1990

 Geometry written to block  1 of record 700


 Point group  C1  



 ATOMIC COORDINATES

 NR  ATOM    CHARGE       X              Y              Z

   1  H       1.00   -3.434822896   -1.523497202    0.000000000
   2  O       8.00   -1.607741192   -1.646915215    0.000000000
   3  C       6.00   -0.610343744    0.854269592    0.000000000
   4  C       6.00    2.254594445    0.656868801    0.000000000
   5  H       1.00    3.116120585    2.539678528    0.000000000
   6  H       1.00   -1.248390872    1.913385496   -1.677188627
   7  H       1.00   -1.248390872    1.913385496    1.677188627
   8  H       1.00    2.905964143   -0.367249375   -1.675846922
   9  H       1.00    2.905964143   -0.367249375    1.675846922

 Bond lengths in Bohr (Angstrom)

 1-2  1.831245357  2-3  2.692717421  3-4  2.871730819  3-6  2.083696794  3-7  2.083696794
     ( 0.969053311)     ( 1.424924694)     ( 1.519654505)     ( 1.102644858)     ( 1.102644858)

 4-5  2.070555423  4-8  2.069193908  4-9  2.069193908
     ( 1.095690744)     ( 1.094970261)     ( 1.094970261)

 Bond angles

  1-2-3  107.87621325   2-3-4  107.79904962   2-3-6  111.02105480   2-3-7  111.02105480

  3-4-5  110.64605443   3-4-8  110.36936729   3-4-9  110.36936729   4-3-6  109.90272099

  4-3-7  109.90272099   5-4-8  108.60711935   5-4-9  108.60711935   6-3-7  107.20315121

  8-4-9  108.17296435

 NUCLEAR CHARGE:                   26
 NUMBER OF PRIMITIVE AOS:          63
 NUMBER OF SYMMETRY AOS:           63
 NUMBER OF CONTRACTIONS:           21   (  21A   )
 NUMBER OF CORE ORBITALS:           3   (   3A   )
 NUMBER OF VALENCE ORBITALS:       18   (  18A   )


 NUCLEAR REPULSION ENERGY   81.60955194


 Eigenvalues of metric

         1 0.212E+00 0.263E+00 0.352E+00 0.355E+00 0.377E+00 0.393E+00 0.407E+00 0.473E+00


 Contracted 2-electron integrals neglected if value below      1.0D-11
 AO integral compression algorithm  1   Integral accuracy      1.0D-11

     0.262 MB (compressed) written to integral file (100.0%)


 NUMBER OF SORTED TWO-ELECTRON INTEGRALS:      26796.     BUFFER LENGTH:  32768
 NUMBER OF SEGMENTS:   1  SEGMENT LENGTH:      26796      RECORD LENGTH: 524288

 Memory used in sort:       0.58 MW

 SORT1 READ       32379. AND WROTE       21718. INTEGRALS IN      1 RECORDS. CPU TIME:     0.00 SEC, REAL TIME:     0.01 SEC
 SORT2 READ       21718. AND WROTE       26796. INTEGRALS IN      1 RECORDS. CPU TIME:     0.01 SEC, REAL TIME:     0.01 SEC

 FILE SIZES:   FILE 1:    30.4 MBYTE,  FILE 4:     4.2 MBYTE,   TOTAL:     34.6 MBYTE

 OPERATOR DM      FOR CENTER  0  COORDINATES:    0.000000    0.000000    0.000000


 **********************************************************************************************************************************
 DATASETS  * FILE   NREC   LENGTH (MB)   RECORD NAMES
              1      19       30.21       500      610      700      900      950      970     1000      129      960     1100   
                                          VAR    BASINP    GEOM    SYMINP    ZMAT    AOBASIS   BASIS     P2S    ABASIS      S 
                                         1400     1410     1200     1210     1080     1600     1650     1300     1700   
                                           T        V       H0       H01     AOSYM     SMH    MOLCAS    ERIS     OPER   

 PROGRAMS   *        TOTAL       INT
 CPU TIMES  *         0.40      0.25
 REAL TIME  *         0.79 SEC
 DISK USED  *        34.99 MB      
 **********************************************************************************************************************************

 Density functional group M05-2X=XC-M05-2X
 Functional: XC-M05-2X(via MFM 1.6)                                            Gradient terms: 1
 Use grid at  1800.2


 Exact exchange will be calculated, factor:  0.5600

 Functional: XC-M05-2X                 Factor:  1.0000

 Generated new metagrid on record  1800.2 with target accuracy 1.0D-06 and 30796 points in CPU time    0.7
 Computed new grid on record 1800.1 in CPU time    0.8
   20895 words reserved for DFT integration

 PROGRAM * UKS-SCF (Unrestricted Kohn-Sham)     Authors: W. Meyer, H.-J. Werner, P.J. Knowles, 1993

 NUMBER OF ELECTRONS:      13+   13-    SPACE SYMMETRY=1    SPIN SYMMETRY: Singlet 
 CONVERGENCE THRESHOLDS:    1.00E-05 (Density)    1.00E-06 (Energy)
 MAX. NUMBER OF ITERATIONS:       60
 INTERPOLATION TYPE:            DIIS
 INTERPOLATION STEPS:              2 (START)      1 (STEP)
 LEVEL SHIFTS:                 -0.20 (ALPHA)  -0.20 (BETA) 



 Use fine grid record 1800.2 for energy threshold  1.0D-06
 Orbital guess generated from atomic densities. Full valence occupancy:   13

 Molecular orbital dump at record        2200.2

 Initial alpha occupation  13
 Initial beta  occupation  13

 ITERATION    DDIFF          GRAD             ENERGY        2-EL.EN.            DIPOLE MOMENTS         DIIS
    1      0.000D+00      0.000D+00      -152.94675453    297.548801   -0.59003    1.05421    0.00000    0
    2      0.504D-01      0.200D-01      -153.07855513    291.042410   -0.33035    0.44440   -0.00000    1
    3      0.586D-02      0.230D-02      -153.08048181    290.788626   -0.30817    0.42825   -0.00000    2
    4      0.260D-02      0.763D-03      -153.08076066    290.750197   -0.29819    0.42961   -0.00000    3
    5      0.114D-02      0.249D-03      -153.08079715    290.746768   -0.29561    0.43183   -0.00000    4
    6      0.348D-03      0.627D-04      -153.08080029    290.745962   -0.29559    0.43137   -0.00000    5
    7      0.648D-04      0.135D-04      -153.08080040    290.745218   -0.29565    0.43144   -0.00000    5
    8      0.101D-04      0.292D-05      -153.08080041    290.745602   -0.29566    0.43137   -0.00000    6
    9      0.306D-05      0.739D-06      -153.08080041    290.745521   -0.29566    0.43136   -0.00000    6
   10      0.290D-06      0.783D-07      -153.08080041    290.745532   -0.29566    0.43136   -0.00000    6

 Final alpha occupancy:  13
 Final beta  occupancy:  13

 !UKS STATE 1.1 Energy               -153.080800407016
 Nuclear energy                        81.60955194
 One-electron energy                 -369.92438047
 Two-electron energy                  145.37276619
 Density functional                   -10.13873807     XC-M05-2X=-10.13873807
 Virial quotient                       -1.01509178
 !UKS STATE 1.1 Dipole moment          -0.29565945     0.43136476    -0.00000000
 Dipole moment /Debye                  -0.75144216     1.09634803    -0.00000000

 Orbital energies for positive spin:

         1.1          2.1          3.1          4.1          5.1          6.1          7.1          8.1          9.1         10.1
    -19.406748   -10.450308   -10.401932    -1.070368    -0.806976    -0.659047    -0.526059    -0.502117    -0.420422    -0.397872

        11.1         12.1         13.1         14.1         15.1
     -0.393251    -0.299976    -0.230698     0.392661     0.477858

 Orbital energies for negative spin:

         1.1          2.1          3.1          4.1          5.1          6.1          7.1          8.1          9.1         10.1
    -19.406748   -10.450308   -10.401932    -1.070368    -0.806976    -0.659047    -0.526059    -0.502117    -0.420422    -0.397872

        11.1         12.1         13.1         14.1         15.1
     -0.393251    -0.299976    -0.230698     0.392661     0.477858

 HOMO     13.1    -0.230698 =      -6.2776eV
 LUMO     14.1     0.392661 =      10.6849eV
 LUMO-HOMO         0.623359 =      16.9625eV

 EXPECTATION VALUE OF S**2:             0.00000000

 Natural orbitals saved to record    2200.2 (Orbital set 3)

 Orbital spaces for UNO-CAS (Min. occupation: 0.020  Max. occupation: 1.980):

 Closed:       13
 Active:        0


 **********************************************************************************************************************************
 DATASETS  * FILE   NREC   LENGTH (MB)   RECORD NAMES
              1      20       31.20       500      610      700      900      950      970     1000      129      960     1100   
                                          VAR    BASINP    GEOM    SYMINP    ZMAT    AOBASIS   BASIS     P2S    ABASIS      S 
                                         1400     1410     1200     1210     1080     1600     1650     1300     1700     1800   
                                           T        V       H0       H01     AOSYM     SMH    MOLCAS    ERIS     OPER     GRID   

              2       5        2.91       700     1000      520     1800     2200   
                                         GEOM     BASIS   MCVARS    GRID      UKS  

 PROGRAMS   *        TOTAL       UKS       INT
 CPU TIMES  *         4.43      4.03      0.25
 REAL TIME  *         4.97 SEC
 DISK USED  *        34.99 MB      
 **********************************************************************************************************************************


 PROGRAM * Intrinsic Basis Bonding Analysis (IBBA)          Author: G. Knizia

 Molecular orbitals read from record     2200.2  Type=UKS/ALPHA (state 1.1)
 Fock matrix read from record            2200.2  Type=UKS/TOTAL (state 1.1)
 Orbital energies read from record       2200.2  Type=UKS/ALPHA (state 1.1)
 Density matrix read from record         2200.2  Type=UKS/CHARGE (state 1.1)

 Number of core orbitals:           3 (   3 )
 Number of closed-shell orbitals:  10 (  10 )

 Basis set MINAO-AUTO-PP generated.      Number of basis functions:   21 

 Polarized AO type:                A = (O Ot + (1-O)(1-Ot)) P12
 Orthogonalization method:         Symmetric (Loewdin)
 Localization functional:          L = sum[A,i] <i|n_A|i>^4 -> max

 Localization group 1:  13 orbitals, occupancy  2.000
 Iterative localization: IB/PM,    7 iter; Final gradient 0.25E-09

 Bond order analysis:       [THRPRINT= 0.020]

   CEN ATOM   CEN ATOM     WIBERG.BO      RENORM.BO
     1   H  -   2   O       0.932370       0.986651

     2   O  -   3   C       1.015416       1.009640
     2   O  -   1   H       0.932370       0.986651
     2   O  -   7   H       0.023013       0.013342
     2   O  -   6   H       0.023013       0.013342

     3   C  -   2   O       1.015416       1.009640
     3   C  -   4   C       1.012943       1.006566
     3   C  -   7   H       0.950330       0.947894
     3   C  -   6   H       0.950330       0.947894

     4   C  -   3   C       1.012943       1.006566
     4   C  -   5   H       0.966133       0.992188
     4   C  -   8   H       0.963223       0.987945
     4   C  -   9   H       0.963223       0.987945

     5   H  -   4   C       0.966133       0.992188

     6   H  -   3   C       0.950330       0.947894
     6   H  -   2   O       0.023013       0.013342

     7   H  -   3   C       0.950330       0.947894
     7   H  -   2   O       0.023013       0.013342

     8   H  -   4   C       0.963223       0.987945

     9   H  -   4   C       0.963223       0.987945


 Valency analysis:

   CEN ATOM   TOT.VALENCE
     1   H       0.946824
     2   O       2.012480
     3   C       3.933551
     4   C       3.928709
     5   H       0.981779
     6   H       0.987240
     7   H       0.987240
     8   H       0.980882
     9   H       0.980882

 Total charge composition:

   CEN ATOM         s          p       ELECTRONS ->P.CHARGE
     1   H       0.76940                 0.76940    0.23060
     2   O       3.65948    4.67856      8.33804   -0.33804
     3   C       2.97913    3.15306      6.13219   -0.13219
     4   C       2.98847    3.40933      6.39780   -0.39780
     5   H       0.86501                 0.86501    0.13499
     6   H       0.88704                 0.88704    0.11296
     7   H       0.88704                 0.88704    0.11296
     8   H       0.86173                 0.86173    0.13827
     9   H       0.86173                 0.86173    0.13827

 Total charge composition, AO contributions:

   CEN ATOM SHL      SPHERICAL COMPONENTS
     1   H  1s       0.76940

     2   O  1s       1.99716
     2   O  2s       1.66233
     2   O  2p       1.31607    1.39560    1.96690

     3   C  1s       1.99233
     3   C  2s       0.98680
     3   C  2p       1.04795    0.93660    1.16851

     4   C  1s       1.99140
     4   C  2s       0.99707
     4   C  2p       1.05638    1.17313    1.17981

     5   H  1s       0.86501

     6   H  1s       0.88704

     7   H  1s       0.88704

     8   H  1s       0.86173

     9   H  1s       0.86173

 Summary of localized orbital composition:   [THRPRINT= 0.020]

   ORB  GRP  ORB.ENERGY      CENTERS/CHARGES
     1   1   -19.230325      O  2   2.000
     2   1   -10.343485      C  3   2.000
     3   1   -10.284988      C  4   2.000
     4   1    -0.755069      O  2   1.227   H  1   0.763
     5   1    -0.724787      O  2   1.153   C  3   0.842
     6   1    -0.618938      C  3   1.004   C  4   0.985
     7   1    -0.604852      O  2   1.988
     8   1    -0.561312      C  3   1.124   H  6   0.870
     9   1    -0.561312      C  3   1.124   H  7   0.870
    10   1    -0.545279      C  4   1.131   H  5   0.859
    11   1    -0.539088      C  4   1.136   H  9   0.856
    12   1    -0.539088      C  4   1.136   H  8   0.856
    13   1    -0.257244      O  2   1.967   (other: 0.033)

 Localized orbitals saved to record      2200.2  (orbital set 4)


 **********************************************************************************************************************************
 DATASETS  * FILE   NREC   LENGTH (MB)   RECORD NAMES
              1      20       31.20       500      610      700      900      950      970     1000      129      960     1100   
                                          VAR    BASINP    GEOM    SYMINP    ZMAT    AOBASIS   BASIS     P2S    ABASIS      S 
                                         1400     1410     1200     1210     1080     1600     1650     1300     1700     1800   
                                           T        V       H0       H01     AOSYM     SMH    MOLCAS    ERIS     OPER     GRID   

              2       5        2.92       700     1000      520     1800     2200   
                                         GEOM     BASIS   MCVARS    GRID      UKS  

 PROGRAMS   *        TOTAL      IBBA       UKS       INT
 CPU TIMES  *         4.46      0.03      4.03      0.25
 REAL TIME  *         5.27 SEC
 DISK USED  *        34.99 MB      
 **********************************************************************************************************************************
 Molecular orbitals read from record     2200.2  Type=UKS/LOCAL(IBO)  
 Occupation numbers read from record     2200.2  Type=UKS/LOCAL(IBO)  
 Orbital energies read from record       2200.2  Type=UKS/LOCAL(IBO)  
 Redundancy group numbers read from rec  2200.2  Type=UKS/BETA (state 1.1)

 IBBA/STO-3G energy=      0.000000000000

        UKS-SCF 
   -153.08080041
 **********************************************************************************************************************************
 Molpro calculation terminated
