
 Primary working directories    : /tmp/sb13343
 Secondary working directories  : /tmp/sb13343
 Wavefunction directory         : /panfs/panasas01/chem/sb13343/wfu/
 Main file repository           : /tmp/sb13343/

 SHA1      : b4a5b34a9e711420743f49e6833241d17c61fb3c
 NAME      : 2099.9.b4a5b34
 ARCHNAME  : linux/x86_64_openmp
 FC        : /cm/shared/languages/GCC-6.1/bin/gfortran
 BLASLIB   : -lblas
 id        : simonbennie

 Nodes     nprocs
 node35-044    1

 Using customized tuning parameters: mindgm=1; mindgv=20; mindgc=4; mindgr=1; noblas=0; minvec=7
 default implementation of scratch files=df  

 memory,500,m
 geomtyp=xyz
 nosym
 noorient
 geometry={
 H         -1.81763       -0.80620        0.00000
 O         -0.85078       -0.87151        0.00000
 C         -0.32298        0.45206        0.00000
 C          1.19308        0.34760        0.00000
 H          1.64898        1.34394        0.00000
 H         -0.66062        1.01252       -0.88753
 H         -0.66062        1.01252        0.88753
 H          1.53777       -0.19434       -0.88682
 H          1.53777       -0.19434        0.88682
 }
 basis={ default,svp }
 {uks,B97,direct;wf,26,1,0}
 {ibba,bonds=1}

 Variables initialized (895), CPU time= 0.00 sec
 Commands  initialized (725), CPU time= 0.01 sec, 591 directives.
 Default parameters read. Elapsed time= 0.09 sec

 Checking input...
 Passed
1


                                         ***  PROGRAM SYSTEM MOLPRO  ***
                                       Copyright, TTI GmbH Stuttgart, 2015
                                    Version 2099.9 linked May 26 2017 16:03:21


 **********************************************************************************************************************************
 LABEL *                                                                                 
  64 bit serial version                                                                  DATE: 08-Jun-17          TIME: 11:54:56  
 **********************************************************************************************************************************

 SHA1:             b4a5b34a9e711420743f49e6833241d17c61fb3c
 **********************************************************************************************************************************
 SETTING GEOMTYP        =    XYZ

 Variable memory set to  500000000 words,  buffer space 

 ZSYMEL=NOSYM

 SETTING BASIS          =    SVP


 Recomputing integrals since basis changed


 Using spherical harmonics

 Library entry H      S def2-SVP             selected for orbital group  1
 Library entry H      P def2-SVP             selected for orbital group  1
 Library entry O      S def2-SVP             selected for orbital group  2
 Library entry O      P def2-SVP             selected for orbital group  2
 Library entry O      D def2-SVP             selected for orbital group  2
 Library entry C      S def2-SVP             selected for orbital group  3
 Library entry C      P def2-SVP             selected for orbital group  3
 Library entry C      D def2-SVP             selected for orbital group  3


 PROGRAM * SEWARD (Integral evaluation for generally contracted gaussian basis sets)     Author: Roland Lindh, 1990

 Geometry written to block  1 of record 700


 Point group  C1  



 ATOMIC COORDINATES

 NR  ATOM    CHARGE       X              Y              Z

   1  H       1.00   -3.434822896   -1.523497202    0.000000000
   2  O       8.00   -1.607741192   -1.646915215    0.000000000
   3  C       6.00   -0.610343744    0.854269592    0.000000000
   4  C       6.00    2.254594445    0.656868801    0.000000000
   5  H       1.00    3.116120585    2.539678528    0.000000000
   6  H       1.00   -1.248390872    1.913385496   -1.677188627
   7  H       1.00   -1.248390872    1.913385496    1.677188627
   8  H       1.00    2.905964143   -0.367249375   -1.675846922
   9  H       1.00    2.905964143   -0.367249375    1.675846922

 Bond lengths in Bohr (Angstrom)

 1-2  1.831245357  2-3  2.692717421  3-4  2.871730819  3-6  2.083696794  3-7  2.083696794
     ( 0.969053311)     ( 1.424924694)     ( 1.519654505)     ( 1.102644858)     ( 1.102644858)

 4-5  2.070555423  4-8  2.069193908  4-9  2.069193908
     ( 1.095690744)     ( 1.094970261)     ( 1.094970261)

 Bond angles

  1-2-3  107.87621325   2-3-4  107.79904962   2-3-6  111.02105480   2-3-7  111.02105480

  3-4-5  110.64605443   3-4-8  110.36936729   3-4-9  110.36936729   4-3-6  109.90272099

  4-3-7  109.90272099   5-4-8  108.60711935   5-4-9  108.60711935   6-3-7  107.20315121

  8-4-9  108.17296435

 NUCLEAR CHARGE:                   26
 NUMBER OF PRIMITIVE AOS:         117
 NUMBER OF SYMMETRY AOS:          114
 NUMBER OF CONTRACTIONS:           72   (  72A   )
 NUMBER OF CORE ORBITALS:           3   (   3A   )
 NUMBER OF VALENCE ORBITALS:       18   (  18A   )


 NUCLEAR REPULSION ENERGY   81.60955194


 Eigenvalues of metric

         1 0.375E-02 0.159E-01 0.292E-01 0.324E-01 0.398E-01 0.436E-01 0.556E-01 0.658E-01


 Contracted 2-electron integrals neglected if value below      1.0D-11
 AO integral compression algorithm  1   Integral accuracy      1.0D-11

     14.418 MB (compressed) written to integral file ( 45.7%)


 NUMBER OF SORTED TWO-ELECTRON INTEGRALS:    3454506.     BUFFER LENGTH:  32768
 NUMBER OF SEGMENTS:   1  SEGMENT LENGTH:    3454506      RECORD LENGTH: 524288

 Memory used in sort:       4.01 MW

 SORT1 READ     3945093. AND WROTE     2928993. INTEGRALS IN      9 RECORDS. CPU TIME:     0.04 SEC, REAL TIME:     0.08 SEC
 SORT2 READ     2928993. AND WROTE     3454506. INTEGRALS IN     55 RECORDS. CPU TIME:     0.12 SEC, REAL TIME:     0.13 SEC

 FILE SIZES:   FILE 1:    44.7 MBYTE,  FILE 4:    37.8 MBYTE,   TOTAL:     82.5 MBYTE

 OPERATOR DM      FOR CENTER  0  COORDINATES:    0.000000    0.000000    0.000000


 **********************************************************************************************************************************
 DATASETS  * FILE   NREC   LENGTH (MB)   RECORD NAMES
              1      19       42.60       500      610      700      900      950      970     1000      129      960     1100   
                                          VAR    BASINP    GEOM    SYMINP    ZMAT    AOBASIS   BASIS     P2S    ABASIS      S 
                                         1400     1410     1200     1210     1080     1600     1650     1300     1700   
                                           T        V       H0       H01     AOSYM     SMH    MOLCAS    ERIS     OPER   

 PROGRAMS   *        TOTAL       INT
 CPU TIMES  *         0.88      0.74
 REAL TIME  *         1.35 SEC
 DISK USED  *        82.90 MB      
 **********************************************************************************************************************************

 Density functional group B97=B97DF
 Functional: B97DF(Automatically generated (new) B97DF)                        Gradient terms: 1
 Use grid at  1800.2


 Exact exchange will be calculated, factor:  0.1943

 Functional: B97DF                     Factor:  1.0000

 Generated new metagrid on record  1800.2 with target accuracy 1.0D-06 and 30796 points in CPU time    0.7
 Computed new grid on record 1800.1 in CPU time    0.7
   61197 words reserved for DFT integration

 PROGRAM * UKS-SCF (Unrestricted Kohn-Sham)     Authors: W. Meyer, H.-J. Werner, P.J. Knowles, 1993

 NUMBER OF ELECTRONS:      13+   13-    SPACE SYMMETRY=1    SPIN SYMMETRY: Singlet 
 CONVERGENCE THRESHOLDS:    1.00E-05 (Density)    1.00E-06 (Energy)
 MAX. NUMBER OF ITERATIONS:       60
 INTERPOLATION TYPE:            DIIS
 INTERPOLATION STEPS:              2 (START)      1 (STEP)
 LEVEL SHIFTS:                 -0.20 (ALPHA)  -0.20 (BETA) 



 Use fine grid record 1800.2 for energy threshold  1.0D-06
 Orbital guess generated from atomic densities. Full valence occupancy:   13

 Molecular orbital dump at record        2200.2

 Initial alpha occupation  13
 Initial beta  occupation  13

 ITERATION    DDIFF          GRAD             ENERGY        2-EL.EN.            DIPOLE MOMENTS         DIIS
    1      0.000D+00      0.000D+00      -154.75861589    312.954019   -0.58658    0.85245   -0.00000    0
    2      0.133D-01      0.653D-02      -154.84674632    302.020308   -0.30643    0.41476   -0.00000    1
    3      0.435D-02      0.335D-02      -154.86764704    305.058870   -0.37153    0.54363   -0.00000    2
    4      0.109D-02      0.459D-03      -154.86828775    304.937117   -0.36895    0.50637   -0.00000    3
    5      0.821D-03      0.185D-03      -154.86848018    304.890939   -0.36716    0.49622   -0.00000    4
    6      0.460D-03      0.550D-04      -154.86850731    304.873976   -0.36760    0.48981   -0.00000    5
    7      0.809D-04      0.998D-05      -154.86850811    304.868762   -0.36728    0.48895   -0.00000    6
    8      0.146D-04      0.330D-05      -154.86850816    304.869851   -0.36719    0.48890   -0.00000    6
    9      0.485D-05      0.117D-05      -154.86850816    304.869433   -0.36721    0.48888   -0.00000    6
   10      0.182D-05      0.286D-06      -154.86850816    304.869436   -0.36718    0.48886   -0.00000    7

 Final alpha occupancy:  13
 Final beta  occupancy:  13

 !UKS STATE 1.1 Energy               -154.868508161922
 Nuclear energy                        81.60955194
 One-electron energy                 -371.31084304
 Two-electron energy                  152.43471800
 Density functional                   -17.60193506     B97DF=-17.60193506
 Virial quotient                       -1.00974420
 !UKS STATE 1.1 Dipole moment          -0.36718357     0.48885668    -0.00000000
 Dipole moment /Debye                  -0.93322642     1.24246837    -0.00000000

 Orbital energies for positive spin:

         1.1          2.1          3.1          4.1          5.1          6.1          7.1          8.1          9.1         10.1
    -19.103548   -10.213786   -10.159824    -0.996182    -0.736009    -0.598151    -0.508635    -0.457524    -0.394787    -0.377050

        11.1         12.1         13.1         14.1         15.1
     -0.358351    -0.323256    -0.261168     0.059125     0.092421

 Orbital energies for negative spin:

         1.1          2.1          3.1          4.1          5.1          6.1          7.1          8.1          9.1         10.1
    -19.103548   -10.213786   -10.159824    -0.996182    -0.736009    -0.598151    -0.508635    -0.457524    -0.394787    -0.377050

        11.1         12.1         13.1         14.1         15.1
     -0.358351    -0.323256    -0.261168     0.059125     0.092421

 HOMO     13.1    -0.261168 =      -7.1067eV
 LUMO     14.1     0.059125 =       1.6089eV
 LUMO-HOMO         0.320294 =       8.7156eV

 EXPECTATION VALUE OF S**2:            -0.00000000

 Natural orbitals saved to record    2200.2 (Orbital set 3)

 Orbital spaces for UNO-CAS (Min. occupation: 0.020  Max. occupation: 1.980):

 Closed:       13
 Active:        0


 **********************************************************************************************************************************
 DATASETS  * FILE   NREC   LENGTH (MB)   RECORD NAMES
              1      20       43.59       500      610      700      900      950      970     1000      129      960     1100   
                                          VAR    BASINP    GEOM    SYMINP    ZMAT    AOBASIS   BASIS     P2S    ABASIS      S 
                                         1400     1410     1200     1210     1080     1600     1650     1300     1700     1800   
                                           T        V       H0       H01     AOSYM     SMH    MOLCAS    ERIS     OPER     GRID   

              2       5        3.11       700     1000      520     1800     2200   
                                         GEOM     BASIS   MCVARS    GRID      UKS  

 PROGRAMS   *        TOTAL       UKS       INT
 CPU TIMES  *         7.40      6.52      0.74
 REAL TIME  *         8.38 SEC
 DISK USED  *        82.90 MB      
 **********************************************************************************************************************************


 PROGRAM * Intrinsic Basis Bonding Analysis (IBBA)          Author: G. Knizia

 Molecular orbitals read from record     2200.2  Type=UKS/ALPHA (state 1.1)
 Fock matrix read from record            2200.2  Type=UKS/TOTAL (state 1.1)
 Orbital energies read from record       2200.2  Type=UKS/ALPHA (state 1.1)
 Density matrix read from record         2200.2  Type=UKS/CHARGE (state 1.1)

 Number of core orbitals:           3 (   3 )
 Number of closed-shell orbitals:  10 (  10 )

 Basis set MINAO-AUTO-PP generated.      Number of basis functions:   21 

 Polarized AO type:                A = (O Ot + (1-O)(1-Ot)) P12
 Orthogonalization method:         Symmetric (Loewdin)
 Localization functional:          L = sum[A,i] <i|n_A|i>^4 -> max

 Localization group 1:  13 orbitals, occupancy  2.000
 Iterative localization: IB/PM,    7 iter; Final gradient 0.24E-09

 Bond order analysis:       [THRPRINT= 0.020]

   CEN ATOM   CEN ATOM     WIBERG.BO      RENORM.BO
     1   H  -   2   O       0.872406       0.986363

     2   O  -   3   C       0.976420       0.999772
     2   O  -   1   H       0.872406       0.986363
     2   O  -   7   H       0.027784       0.016042
     2   O  -   6   H       0.027784       0.016042

     3   C  -   4   C       1.028346       1.018296
     3   C  -   2   O       0.976420       0.999772
     3   C  -   6   H       0.943709       0.934742
     3   C  -   7   H       0.943709       0.934742

     4   C  -   3   C       1.028346       1.018296
     4   C  -   5   H       0.963516       0.989126
     4   C  -   8   H       0.959729       0.980966
     4   C  -   9   H       0.959729       0.980966

     5   H  -   4   C       0.963516       0.989126

     6   H  -   3   C       0.943709       0.934742
     6   H  -   2   O       0.027784       0.016042

     7   H  -   3   C       0.943709       0.934742
     7   H  -   2   O       0.027784       0.016042

     8   H  -   4   C       0.959729       0.980966

     9   H  -   4   C       0.959729       0.980966


 Valency analysis:

   CEN ATOM   TOT.VALENCE
     1   H       0.886021
     2   O       1.936097
     3   C       3.897828
     4   C       3.939597
     5   H       0.982870
     6   H       0.988972
     7   H       0.988972
     8   H       0.981248
     9   H       0.981248

 Total charge composition:

   CEN ATOM         s          p       ELECTRONS ->P.CHARGE
     1   H       0.66239                 0.66239    0.33761
     2   O       3.62594    4.91280      8.53875   -0.53875
     3   C       2.98236    3.03921      6.02157   -0.02157
     4   C       3.02074    3.37133      6.39208   -0.39208
     5   H       0.86912                 0.86912    0.13088
     6   H       0.89499                 0.89499    0.10501
     7   H       0.89499                 0.89499    0.10501
     8   H       0.86306                 0.86306    0.13694
     9   H       0.86306                 0.86306    0.13694

 Total charge composition, AO contributions:

   CEN ATOM SHL      SPHERICAL COMPONENTS
     1   H  1s       0.66239

     2   O  1s       1.99700
     2   O  2s       1.62895
     2   O  2p       1.42948    1.52343    1.95989

     3   C  1s       1.99191
     3   C  2s       0.99044
     3   C  2p       1.02767    0.85900    1.15253

     4   C  1s       1.99087
     4   C  2s       1.02988
     4   C  2p       1.04662    1.15666    1.16806

     5   H  1s       0.86912

     6   H  1s       0.89499

     7   H  1s       0.89499

     8   H  1s       0.86306

     9   H  1s       0.86306

 Summary of localized orbital composition:   [THRPRINT= 0.020]

   ORB  GRP  ORB.ENERGY      CENTERS/CHARGES
     1   1   -18.954795      O  2   2.000
     2   1   -10.110175      C  3   2.000
     3   1   -10.044410      C  4   2.000
     4   1    -0.749943      O  2   1.335   H  1   0.656
     5   1    -0.730088      O  2   1.262   C  3   0.733
     6   1    -0.578089      C  3   1.004   C  4   0.989
     7   1    -0.536640      O  2   1.980
     8   1    -0.510889      C  3   1.117   H  6   0.875
     9   1    -0.510889      C  3   1.117   H  7   0.875
    10   1    -0.494439      C  4   1.122   H  5   0.862
    11   1    -0.488128      C  4   1.133   H  9   0.856
    12   1    -0.488128      C  4   1.133   H  8   0.856
    13   1    -0.291660      O  2   1.960   (other: 0.040)

 Localized orbitals saved to record      2200.2  (orbital set 4)


 **********************************************************************************************************************************
 DATASETS  * FILE   NREC   LENGTH (MB)   RECORD NAMES
              1      20       43.59       500      610      700      900      950      970     1000      129      960     1100   
                                          VAR    BASINP    GEOM    SYMINP    ZMAT    AOBASIS   BASIS     P2S    ABASIS      S 
                                         1400     1410     1200     1210     1080     1600     1650     1300     1700     1800   
                                           T        V       H0       H01     AOSYM     SMH    MOLCAS    ERIS     OPER     GRID   

              2       5        3.15       700     1000      520     1800     2200   
                                         GEOM     BASIS   MCVARS    GRID      UKS  

 PROGRAMS   *        TOTAL      IBBA       UKS       INT
 CPU TIMES  *         7.43      0.03      6.52      0.74
 REAL TIME  *         8.47 SEC
 DISK USED  *        82.90 MB      
 **********************************************************************************************************************************
 Molecular orbitals read from record     2200.2  Type=UKS/LOCAL(IBO)  
 Occupation numbers read from record     2200.2  Type=UKS/LOCAL(IBO)  
 Orbital energies read from record       2200.2  Type=UKS/LOCAL(IBO)  
 Redundancy group numbers read from rec  2200.2  Type=UKS/BETA (state 1.1)

 IBBA/SVP energy=      0.000000000000

        UKS-SCF 
   -154.86850816
 **********************************************************************************************************************************
 Molpro calculation terminated
