
 Primary working directories    : /tmp/sb13343
 Secondary working directories  : /tmp/sb13343
 Wavefunction directory         : /panfs/panasas01/chem/sb13343/wfu/
 Main file repository           : /tmp/sb13343/

 SHA1      : b4a5b34a9e711420743f49e6833241d17c61fb3c
 NAME      : 2099.9.b4a5b34
 ARCHNAME  : linux/x86_64_openmp
 FC        : /cm/shared/languages/GCC-6.1/bin/gfortran
 BLASLIB   : -lblas
 id        : simonbennie

 Nodes     nprocs
 node35-046    1

 Using customized tuning parameters: mindgm=1; mindgv=20; mindgc=4; mindgr=1; noblas=0; minvec=7
 default implementation of scratch files=df  

 memory,500,m
 geomtyp=xyz
 nosym
 noorient
 geometry={
 H         -1.81763       -0.80620        0.00000
 O         -0.85078       -0.87151        0.00000
 C         -0.32298        0.45206        0.00000
 C          1.19308        0.34760        0.00000
 H          1.64898        1.34394        0.00000
 H         -0.66062        1.01252       -0.88753
 H         -0.66062        1.01252        0.88753
 H          1.53777       -0.19434       -0.88682
 H          1.53777       -0.19434        0.88682
 }
 basis={ default,svp }
 {uks,MM06-HF,direct;wf,26,1,0}
 {ibba,bonds=1}

 Variables initialized (895), CPU time= 0.00 sec
 Commands  initialized (725), CPU time= 0.01 sec, 591 directives.
 Default parameters read. Elapsed time= 0.08 sec

 Checking input...
 Passed
1


                                         ***  PROGRAM SYSTEM MOLPRO  ***
                                       Copyright, TTI GmbH Stuttgart, 2015
                                    Version 2099.9 linked May 26 2017 16:03:21


 **********************************************************************************************************************************
 LABEL *                                                                                 
  64 bit serial version                                                                  DATE: 08-Jun-17          TIME: 11:57:35  
 **********************************************************************************************************************************

 SHA1:             b4a5b34a9e711420743f49e6833241d17c61fb3c
 **********************************************************************************************************************************
 SETTING GEOMTYP        =    XYZ

 Variable memory set to  500000000 words,  buffer space 

 ZSYMEL=NOSYM

 SETTING BASIS          =    SVP


 Recomputing integrals since basis changed


 Using spherical harmonics

 Library entry H      S def2-SVP             selected for orbital group  1
 Library entry H      P def2-SVP             selected for orbital group  1
 Library entry O      S def2-SVP             selected for orbital group  2
 Library entry O      P def2-SVP             selected for orbital group  2
 Library entry O      D def2-SVP             selected for orbital group  2
 Library entry C      S def2-SVP             selected for orbital group  3
 Library entry C      P def2-SVP             selected for orbital group  3
 Library entry C      D def2-SVP             selected for orbital group  3


 PROGRAM * SEWARD (Integral evaluation for generally contracted gaussian basis sets)     Author: Roland Lindh, 1990

 Geometry written to block  1 of record 700


 Point group  C1  



 ATOMIC COORDINATES

 NR  ATOM    CHARGE       X              Y              Z

   1  H       1.00   -3.434822896   -1.523497202    0.000000000
   2  O       8.00   -1.607741192   -1.646915215    0.000000000
   3  C       6.00   -0.610343744    0.854269592    0.000000000
   4  C       6.00    2.254594445    0.656868801    0.000000000
   5  H       1.00    3.116120585    2.539678528    0.000000000
   6  H       1.00   -1.248390872    1.913385496   -1.677188627
   7  H       1.00   -1.248390872    1.913385496    1.677188627
   8  H       1.00    2.905964143   -0.367249375   -1.675846922
   9  H       1.00    2.905964143   -0.367249375    1.675846922

 Bond lengths in Bohr (Angstrom)

 1-2  1.831245357  2-3  2.692717421  3-4  2.871730819  3-6  2.083696794  3-7  2.083696794
     ( 0.969053311)     ( 1.424924694)     ( 1.519654505)     ( 1.102644858)     ( 1.102644858)

 4-5  2.070555423  4-8  2.069193908  4-9  2.069193908
     ( 1.095690744)     ( 1.094970261)     ( 1.094970261)

 Bond angles

  1-2-3  107.87621325   2-3-4  107.79904962   2-3-6  111.02105480   2-3-7  111.02105480

  3-4-5  110.64605443   3-4-8  110.36936729   3-4-9  110.36936729   4-3-6  109.90272099

  4-3-7  109.90272099   5-4-8  108.60711935   5-4-9  108.60711935   6-3-7  107.20315121

  8-4-9  108.17296435

 NUCLEAR CHARGE:                   26
 NUMBER OF PRIMITIVE AOS:         117
 NUMBER OF SYMMETRY AOS:          114
 NUMBER OF CONTRACTIONS:           72   (  72A   )
 NUMBER OF CORE ORBITALS:           3   (   3A   )
 NUMBER OF VALENCE ORBITALS:       18   (  18A   )


 NUCLEAR REPULSION ENERGY   81.60955194


 Eigenvalues of metric

         1 0.375E-02 0.159E-01 0.292E-01 0.324E-01 0.398E-01 0.436E-01 0.556E-01 0.658E-01


 Contracted 2-electron integrals neglected if value below      1.0D-11
 AO integral compression algorithm  1   Integral accuracy      1.0D-11

     14.418 MB (compressed) written to integral file ( 45.7%)


 NUMBER OF SORTED TWO-ELECTRON INTEGRALS:    3454506.     BUFFER LENGTH:  32768
 NUMBER OF SEGMENTS:   1  SEGMENT LENGTH:    3454506      RECORD LENGTH: 524288

 Memory used in sort:       4.01 MW

 SORT1 READ     3945093. AND WROTE     2928993. INTEGRALS IN      9 RECORDS. CPU TIME:     0.05 SEC, REAL TIME:     0.09 SEC
 SORT2 READ     2928993. AND WROTE     3454506. INTEGRALS IN     55 RECORDS. CPU TIME:     0.12 SEC, REAL TIME:     0.15 SEC

 FILE SIZES:   FILE 1:    44.7 MBYTE,  FILE 4:    37.8 MBYTE,   TOTAL:     82.5 MBYTE

 OPERATOR DM      FOR CENTER  0  COORDINATES:    0.000000    0.000000    0.000000


 **********************************************************************************************************************************
 DATASETS  * FILE   NREC   LENGTH (MB)   RECORD NAMES
              1      19       42.60       500      610      700      900      950      970     1000      129      960     1100   
                                          VAR    BASINP    GEOM    SYMINP    ZMAT    AOBASIS   BASIS     P2S    ABASIS      S 
                                         1400     1410     1200     1210     1080     1600     1650     1300     1700   
                                           T        V       H0       H01     AOSYM     SMH    MOLCAS    ERIS     OPER   

 PROGRAMS   *        TOTAL       INT
 CPU TIMES  *         0.94      0.80
 REAL TIME  *         1.36 SEC
 DISK USED  *        82.90 MB      
 **********************************************************************************************************************************

 Density functional group MM06-HF=M06HFX+M06HFC
 Functional: M06HFX(Automatically generated (new) M06HFX)                      Gradient terms: 2
 Functional: M06HFC(Automatically generated (new) M06HFC)                      Gradient terms: 2
 Use grid at  1800.2


 Exact exchange will be calculated, factor:  1.0000

 Functional: M06HFX                    Factor:  1.0000
 Functional: M06HFC                    Factor:  1.0000

 Generated new metagrid on record  1800.2 with target accuracy 1.0D-06 and 30796 points in CPU time    0.7
 Computed new grid on record 1800.1 in CPU time    0.8
  116061 words reserved for DFT integration

 PROGRAM * UKS-SCF (Unrestricted Kohn-Sham)     Authors: W. Meyer, H.-J. Werner, P.J. Knowles, 1993

 NUMBER OF ELECTRONS:      13+   13-    SPACE SYMMETRY=1    SPIN SYMMETRY: Singlet 
 CONVERGENCE THRESHOLDS:    1.00E-05 (Density)    1.00E-06 (Energy)
 MAX. NUMBER OF ITERATIONS:       60
 INTERPOLATION TYPE:            DIIS
 INTERPOLATION STEPS:              2 (START)      1 (STEP)
 LEVEL SHIFTS:                 -0.20 (ALPHA)  -0.20 (BETA) 



 Use fine grid record 1800.2 for energy threshold  1.0D-06
 Orbital guess generated from atomic densities. Full valence occupancy:   13

 Molecular orbital dump at record        2200.2

 Initial alpha occupation  13
 Initial beta  occupation  13

 ITERATION    DDIFF          GRAD             ENERGY        2-EL.EN.            DIPOLE MOMENTS         DIIS
    1      0.000D+00      0.000D+00      -154.79486394    274.208055   -0.61600    0.83179   -0.00000    0
    2      0.719D-02      0.464D-02      -154.84500811    270.671657   -0.39605    0.54598    0.00000    1
    3      0.208D-02      0.166D-02      -154.85134314    271.481803   -0.39372    0.59256   -0.00000    2
    4      0.135D-02      0.596D-03      -154.85307430    271.369529   -0.37494    0.57781   -0.00000    3
    5      0.646D-03      0.190D-03      -154.85329225    271.368074   -0.36725    0.58039   -0.00000    4
    6      0.287D-03      0.548D-04      -154.85331424    271.357477   -0.36429    0.58107   -0.00000    5
    7      0.637D-04      0.121D-04      -154.85331542    271.354774   -0.36310    0.58113   -0.00000    6
    8      0.163D-04      0.324D-05      -154.85331550    271.354408   -0.36272    0.58106   -0.00000    6
    9      0.430D-05      0.932D-06      -154.85331551    271.354541   -0.36262    0.58105   -0.00000    6
   10      0.175D-05      0.353D-06      -154.85331551    271.354490   -0.36259    0.58105   -0.00000    6

 Final alpha occupancy:  13
 Final beta  occupancy:  13

 !UKS STATE 1.1 Energy               -154.853315510760
 Nuclear energy                        81.60955194
 One-electron energy                 -371.24150140
 Two-electron energy                  135.67724524
 Density functional                    -0.89861129     M06HFX= 0.05527331 M06HFC=-0.95388460
 Virial quotient                       -1.01068202
 !UKS STATE 1.1 Dipole moment          -0.36259123     0.58104892    -0.00000000
 Dipole moment /Debye                  -0.92155461     1.47678231    -0.00000000

 Orbital energies for positive spin:

         1.1          2.1          3.1          4.1          5.1          6.1          7.1          8.1          9.1         10.1
    -20.196227   -11.021926   -10.966088    -1.226130    -0.941610    -0.790235    -0.681929    -0.635450    -0.558599    -0.527317

        11.1         12.1         13.1         14.1         15.1
     -0.519220    -0.476255    -0.435196     0.119401     0.154665

 Orbital energies for negative spin:

         1.1          2.1          3.1          4.1          5.1          6.1          7.1          8.1          9.1         10.1
    -20.196227   -11.021926   -10.966088    -1.226130    -0.941610    -0.790235    -0.681929    -0.635450    -0.558599    -0.527317

        11.1         12.1         13.1         14.1         15.1
     -0.519220    -0.476255    -0.435196     0.119401     0.154665

 HOMO     13.1    -0.435196 =     -11.8423eV
 LUMO     14.1     0.119401 =       3.2491eV
 LUMO-HOMO         0.554597 =      15.0914eV

 EXPECTATION VALUE OF S**2:            -0.00000000

 Natural orbitals saved to record    2200.2 (Orbital set 3)

 Orbital spaces for UNO-CAS (Min. occupation: 0.020  Max. occupation: 1.980):

 Closed:       13
 Active:        0


 **********************************************************************************************************************************
 DATASETS  * FILE   NREC   LENGTH (MB)   RECORD NAMES
              1      20       43.59       500      610      700      900      950      970     1000      129      960     1100   
                                          VAR    BASINP    GEOM    SYMINP    ZMAT    AOBASIS   BASIS     P2S    ABASIS      S 
                                         1400     1410     1200     1210     1080     1600     1650     1300     1700     1800   
                                           T        V       H0       H01     AOSYM     SMH    MOLCAS    ERIS     OPER     GRID   

              2       5        3.11       700     1000      520     1800     2200   
                                         GEOM     BASIS   MCVARS    GRID      UKS  

 PROGRAMS   *        TOTAL       UKS       INT
 CPU TIMES  *        25.45     24.51      0.80
 REAL TIME  *        25.99 SEC
 DISK USED  *        82.90 MB      
 **********************************************************************************************************************************


 PROGRAM * Intrinsic Basis Bonding Analysis (IBBA)          Author: G. Knizia

 Molecular orbitals read from record     2200.2  Type=UKS/ALPHA (state 1.1)
 Fock matrix read from record            2200.2  Type=UKS/TOTAL (state 1.1)
 Orbital energies read from record       2200.2  Type=UKS/ALPHA (state 1.1)
 Density matrix read from record         2200.2  Type=UKS/CHARGE (state 1.1)

 Number of core orbitals:           3 (   3 )
 Number of closed-shell orbitals:  10 (  10 )

 Basis set MINAO-AUTO-PP generated.      Number of basis functions:   21 

 Polarized AO type:                A = (O Ot + (1-O)(1-Ot)) P12
 Orthogonalization method:         Symmetric (Loewdin)
 Localization functional:          L = sum[A,i] <i|n_A|i>^4 -> max

 Localization group 1:  13 orbitals, occupancy  2.000
 Iterative localization: IB/PM,    7 iter; Final gradient 0.19E-09

 Bond order analysis:       [THRPRINT= 0.020]

   CEN ATOM   CEN ATOM     WIBERG.BO      RENORM.BO
     1   H  -   2   O       0.877763       0.988465

     2   O  -   3   C       0.969233       0.998760
     2   O  -   1   H       0.877763       0.988465
     2   O  -   7   H       0.021229       0.012269
     2   O  -   6   H       0.021229       0.012269

     3   C  -   4   C       1.019135       1.012533
     3   C  -   2   O       0.969233       0.998760
     3   C  -   6   H       0.951411       0.950229
     3   C  -   7   H       0.951411       0.950229

     4   C  -   3   C       1.019135       1.012533
     4   C  -   5   H       0.965740       0.990639
     4   C  -   9   H       0.962215       0.985323
     4   C  -   8   H       0.962215       0.985323

     5   H  -   4   C       0.965740       0.990639

     6   H  -   3   C       0.951411       0.950229
     6   H  -   2   O       0.021229       0.012269

     7   H  -   3   C       0.951411       0.950229
     7   H  -   2   O       0.021229       0.012269

     8   H  -   4   C       0.962215       0.985323

     9   H  -   4   C       0.962215       0.985323


 Valency analysis:

   CEN ATOM   TOT.VALENCE
     1   H       0.889283
     2   O       1.915817
     3   C       3.896906
     4   C       3.934332
     5   H       0.983934
     6   H       0.987715
     7   H       0.987715
     8   H       0.981640
     9   H       0.981640

 Total charge composition:

   CEN ATOM         s          p       ELECTRONS ->P.CHARGE
     1   H       0.66726                 0.66726    0.33274
     2   O       3.58550    4.95531      8.54081   -0.54081
     3   C       2.96138    3.07034      6.03171   -0.03171
     4   C       2.99125    3.38840      6.37965   -0.37965
     5   H       0.87325                 0.87325    0.12675
     6   H       0.88916                 0.88916    0.11084
     7   H       0.88916                 0.88916    0.11084
     8   H       0.86450                 0.86450    0.13550
     9   H       0.86450                 0.86450    0.13550

 Total charge composition, AO contributions:

   CEN ATOM SHL      SPHERICAL COMPONENTS
     1   H  1s       0.66726

     2   O  1s       1.99682
     2   O  2s       1.58868
     2   O  2p       1.44058    1.54398    1.97075

     3   C  1s       1.99137
     3   C  2s       0.97001
     3   C  2p       1.03669    0.86795    1.16569

     4   C  1s       1.99031
     4   C  2s       1.00093
     4   C  2p       1.04595    1.16513    1.17733

     5   H  1s       0.87325

     6   H  1s       0.88916

     7   H  1s       0.88916

     8   H  1s       0.86450

     9   H  1s       0.86450

 Summary of localized orbital composition:   [THRPRINT= 0.020]

   ORB  GRP  ORB.ENERGY      CENTERS/CHARGES
     1   1   -20.045855      O  2   2.000
     2   1   -10.912776      C  3   2.000
     3   1   -10.845337      C  4   2.000
     4   1    -0.947907      O  2   1.330   H  1   0.662
     5   1    -0.936131      O  2   1.255   C  3   0.741
     6   1    -0.741790      C  3   1.010   C  4   0.982
     7   1    -0.713746      O  2   1.983
     8   1    -0.686170      C  3   1.120   H  6   0.873
     9   1    -0.686170      C  3   1.120   H  7   0.873
    10   1    -0.662916      C  4   1.120   H  5   0.867
    11   1    -0.656347      C  4   1.133   H  8   0.858
    12   1    -0.656347      C  4   1.133   H  9   0.858
    13   1    -0.484718      O  2   1.971   (other: 0.029)

 Localized orbitals saved to record      2200.2  (orbital set 4)


 **********************************************************************************************************************************
 DATASETS  * FILE   NREC   LENGTH (MB)   RECORD NAMES
              1      20       43.59       500      610      700      900      950      970     1000      129      960     1100   
                                          VAR    BASINP    GEOM    SYMINP    ZMAT    AOBASIS   BASIS     P2S    ABASIS      S 
                                         1400     1410     1200     1210     1080     1600     1650     1300     1700     1800   
                                           T        V       H0       H01     AOSYM     SMH    MOLCAS    ERIS     OPER     GRID   

              2       5        3.15       700     1000      520     1800     2200   
                                         GEOM     BASIS   MCVARS    GRID      UKS  

 PROGRAMS   *        TOTAL      IBBA       UKS       INT
 CPU TIMES  *        25.47      0.02     24.51      0.80
 REAL TIME  *        26.08 SEC
 DISK USED  *        82.90 MB      
 **********************************************************************************************************************************
 Molecular orbitals read from record     2200.2  Type=UKS/LOCAL(IBO)  
 Occupation numbers read from record     2200.2  Type=UKS/LOCAL(IBO)  
 Orbital energies read from record       2200.2  Type=UKS/LOCAL(IBO)  
 Redundancy group numbers read from rec  2200.2  Type=UKS/BETA (state 1.1)

 IBBA/SVP energy=      0.000000000000

        UKS-SCF 
   -154.85331551
 **********************************************************************************************************************************
 Molpro calculation terminated
