
 Primary working directories    : /tmp/sb13343
 Secondary working directories  : /tmp/sb13343
 Wavefunction directory         : /panfs/panasas01/chem/sb13343/wfu/
 Main file repository           : /tmp/sb13343/

 SHA1      : b4a5b34a9e711420743f49e6833241d17c61fb3c
 NAME      : 2099.9.b4a5b34
 ARCHNAME  : linux/x86_64_openmp
 FC        : /cm/shared/languages/GCC-6.1/bin/gfortran
 BLASLIB   : -lblas
 id        : simonbennie

 Nodes     nprocs
 node32-002    1

 Using customized tuning parameters: mindgm=1; mindgv=20; mindgc=4; mindgr=1; noblas=0; minvec=7
 default implementation of scratch files=df  

 memory,500,m
 geomtyp=xyz
 nosym
 noorient
 geometry={
 H         -1.81763       -0.80620        0.00000
 O         -0.85078       -0.87151        0.00000
 C         -0.32298        0.45206        0.00000
 C          1.19308        0.34760        0.00000
 H          1.64898        1.34394        0.00000
 H         -0.66062        1.01252       -0.88753
 H         -0.66062        1.01252        0.88753
 H          1.53777       -0.19434       -0.88682
 H          1.53777       -0.19434        0.88682
 }
 basis={ default,svp }
 {uks,MM06-L,direct;wf,26,1,0}
 {ibba,bonds=1}

 Variables initialized (895), CPU time= 0.01 sec
 Commands  initialized (725), CPU time= 0.01 sec, 591 directives.
 Default parameters read. Elapsed time= 0.25 sec

 Checking input...
 Passed
1


                                         ***  PROGRAM SYSTEM MOLPRO  ***
                                       Copyright, TTI GmbH Stuttgart, 2015
                                    Version 2099.9 linked May 26 2017 16:03:21


 **********************************************************************************************************************************
 LABEL *                                                                                 
  64 bit serial version                                                                  DATE: 08-Jun-17          TIME: 11:59:43  
 **********************************************************************************************************************************

 SHA1:             b4a5b34a9e711420743f49e6833241d17c61fb3c
 **********************************************************************************************************************************
 SETTING GEOMTYP        =    XYZ

 Variable memory set to  500000000 words,  buffer space 

 ZSYMEL=NOSYM

 SETTING BASIS          =    SVP


 Recomputing integrals since basis changed


 Using spherical harmonics

 Library entry H      S def2-SVP             selected for orbital group  1
 Library entry H      P def2-SVP             selected for orbital group  1
 Library entry O      S def2-SVP             selected for orbital group  2
 Library entry O      P def2-SVP             selected for orbital group  2
 Library entry O      D def2-SVP             selected for orbital group  2
 Library entry C      S def2-SVP             selected for orbital group  3
 Library entry C      P def2-SVP             selected for orbital group  3
 Library entry C      D def2-SVP             selected for orbital group  3


 PROGRAM * SEWARD (Integral evaluation for generally contracted gaussian basis sets)     Author: Roland Lindh, 1990

 Geometry written to block  1 of record 700


 Point group  C1  



 ATOMIC COORDINATES

 NR  ATOM    CHARGE       X              Y              Z

   1  H       1.00   -3.434822896   -1.523497202    0.000000000
   2  O       8.00   -1.607741192   -1.646915215    0.000000000
   3  C       6.00   -0.610343744    0.854269592    0.000000000
   4  C       6.00    2.254594445    0.656868801    0.000000000
   5  H       1.00    3.116120585    2.539678528    0.000000000
   6  H       1.00   -1.248390872    1.913385496   -1.677188627
   7  H       1.00   -1.248390872    1.913385496    1.677188627
   8  H       1.00    2.905964143   -0.367249375   -1.675846922
   9  H       1.00    2.905964143   -0.367249375    1.675846922

 Bond lengths in Bohr (Angstrom)

 1-2  1.831245357  2-3  2.692717421  3-4  2.871730819  3-6  2.083696794  3-7  2.083696794
     ( 0.969053311)     ( 1.424924694)     ( 1.519654505)     ( 1.102644858)     ( 1.102644858)

 4-5  2.070555423  4-8  2.069193908  4-9  2.069193908
     ( 1.095690744)     ( 1.094970261)     ( 1.094970261)

 Bond angles

  1-2-3  107.87621325   2-3-4  107.79904962   2-3-6  111.02105480   2-3-7  111.02105480

  3-4-5  110.64605443   3-4-8  110.36936729   3-4-9  110.36936729   4-3-6  109.90272099

  4-3-7  109.90272099   5-4-8  108.60711935   5-4-9  108.60711935   6-3-7  107.20315121

  8-4-9  108.17296435

 NUCLEAR CHARGE:                   26
 NUMBER OF PRIMITIVE AOS:         117
 NUMBER OF SYMMETRY AOS:          114
 NUMBER OF CONTRACTIONS:           72   (  72A   )
 NUMBER OF CORE ORBITALS:           3   (   3A   )
 NUMBER OF VALENCE ORBITALS:       18   (  18A   )


 NUCLEAR REPULSION ENERGY   81.60955194


 Eigenvalues of metric

         1 0.375E-02 0.159E-01 0.292E-01 0.324E-01 0.398E-01 0.436E-01 0.556E-01 0.658E-01


 Contracted 2-electron integrals neglected if value below      1.0D-11
 AO integral compression algorithm  1   Integral accuracy      1.0D-11

     14.418 MB (compressed) written to integral file ( 45.7%)


 NUMBER OF SORTED TWO-ELECTRON INTEGRALS:    3454506.     BUFFER LENGTH:  32768
 NUMBER OF SEGMENTS:   1  SEGMENT LENGTH:    3454506      RECORD LENGTH: 524288

 Memory used in sort:       4.01 MW

 SORT1 READ     3945093. AND WROTE     2928993. INTEGRALS IN      9 RECORDS. CPU TIME:     0.05 SEC, REAL TIME:     0.15 SEC
 SORT2 READ     2928993. AND WROTE     3454506. INTEGRALS IN     55 RECORDS. CPU TIME:     0.13 SEC, REAL TIME:     0.24 SEC

 FILE SIZES:   FILE 1:    44.7 MBYTE,  FILE 4:    37.8 MBYTE,   TOTAL:     82.5 MBYTE

 OPERATOR DM      FOR CENTER  0  COORDINATES:    0.000000    0.000000    0.000000


 **********************************************************************************************************************************
 DATASETS  * FILE   NREC   LENGTH (MB)   RECORD NAMES
              1      19       42.60       500      610      700      900      950      970     1000      129      960     1100   
                                          VAR    BASINP    GEOM    SYMINP    ZMAT    AOBASIS   BASIS     P2S    ABASIS      S 
                                         1400     1410     1200     1210     1080     1600     1650     1300     1700   
                                           T        V       H0       H01     AOSYM     SMH    MOLCAS    ERIS     OPER   

 PROGRAMS   *        TOTAL       INT
 CPU TIMES  *         1.14      0.99
 REAL TIME  *         2.42 SEC
 DISK USED  *        82.90 MB      
 **********************************************************************************************************************************

 Density functional group MM06-L=M06LX+M06LC
 Functional: M06LX(Automatically generated (new) M06LX)                        Gradient terms: 2
 Functional: M06LC(Automatically generated (new) M06LC)                        Gradient terms: 2
 Use grid at  1800.2

 Functional: M06LX                     Factor:  1.0000
 Functional: M06LC                     Factor:  1.0000

 Generated new metagrid on record  1800.2 with target accuracy 1.0D-06 and 30796 points in CPU time    0.8
 Computed new grid on record 1800.1 in CPU time    0.8
  116061 words reserved for DFT integration

 PROGRAM * UKS-SCF (Unrestricted Kohn-Sham)     Authors: W. Meyer, H.-J. Werner, P.J. Knowles, 1993

 NUMBER OF ELECTRONS:      13+   13-    SPACE SYMMETRY=1    SPIN SYMMETRY: Singlet 
 CONVERGENCE THRESHOLDS:    1.00E-05 (Density)    1.00E-06 (Energy)
 MAX. NUMBER OF ITERATIONS:       60
 INTERPOLATION TYPE:            DIIS
 INTERPOLATION STEPS:              2 (START)      1 (STEP)
 LEVEL SHIFTS:                 -0.20 (ALPHA)  -0.20 (BETA) 



 Use fine grid record 1800.2 for energy threshold  1.0D-06
 Orbital guess generated from atomic densities. Full valence occupancy:   13

 Molecular orbital dump at record        2200.2

 Initial alpha occupation  13
 Initial beta  occupation  13

 ITERATION    DDIFF          GRAD             ENERGY        2-EL.EN.            DIPOLE MOMENTS         DIIS
    1      0.000D+00      0.000D+00      -154.76744768    321.944625   -0.57130    0.86628   -0.00000    0
    2      0.148D-01      0.711D-02      -154.86781316    309.225233   -0.27534    0.37440   -0.00000    1
    3      0.511D-02      0.394D-02      -154.89803217    313.119237   -0.35859    0.54614   -0.00000    2
    4      0.913D-03      0.476D-03      -154.89861038    312.991272   -0.35759    0.50559   -0.00000    3
    5      0.584D-03      0.176D-03      -154.89875253    312.941891   -0.35748    0.49731   -0.00000    4
    6      0.400D-03      0.571D-04      -154.89877666    312.922711   -0.35835    0.49070   -0.00000    5
    7      0.861D-04      0.130D-04      -154.89877759    312.919068   -0.35829    0.48938   -0.00000    6
    8      0.147D-04      0.543D-05      -154.89877768    312.920805   -0.35814    0.48930   -0.00000    7
    9      0.523D-05      0.109D-05      -154.89877768    312.920310   -0.35815    0.48928   -0.00000    6
   10      0.173D-05      0.335D-06      -154.89877768    312.920506   -0.35812    0.48925   -0.00000    7

 Final alpha occupancy:  13
 Final beta  occupancy:  13

 !UKS STATE 1.1 Energy               -154.898777681497
 Nuclear energy                        81.60955194
 One-electron energy                 -371.29614472
 Two-electron energy                  156.46025295
 Density functional                   -21.67243785     M06LX=-20.74680320 M06LC= -0.92563465
 Virial quotient                       -1.00924388
 !UKS STATE 1.1 Dipole moment          -0.35811854     0.48924985    -0.00000000
 Dipole moment /Debye                  -0.91018693     1.24346764    -0.00000000

 Orbital energies for positive spin:

         1.1          2.1          3.1          4.1          5.1          6.1          7.1          8.1          9.1         10.1
    -18.959591   -10.102091   -10.048636    -0.968232    -0.700126    -0.561545    -0.473078    -0.419696    -0.363500    -0.345195

        11.1         12.1         13.1         14.1         15.1
     -0.324825    -0.292228    -0.226521     0.058823     0.096256

 Orbital energies for negative spin:

         1.1          2.1          3.1          4.1          5.1          6.1          7.1          8.1          9.1         10.1
    -18.959590   -10.102090   -10.048636    -0.968231    -0.700126    -0.561545    -0.473077    -0.419696    -0.363500    -0.345195

        11.1         12.1         13.1         14.1         15.1
     -0.324825    -0.292228    -0.226521     0.058824     0.096256

 HOMO    -13.1    -0.226521 =      -6.1639eV
 LUMO     14.1     0.058823 =       1.6007eV
 LUMO-HOMO         0.285344 =       7.7646eV

 EXPECTATION VALUE OF S**2:             0.00000000

 Occupation number threshold for canonical orbitals:  1.999000 (occupied),  0.001000 (virtual)

 Number of pseudo-canonical orbitals per symmetry:   13
 Number of active natural orbitals per symmetry:      0

 Natural orbitals saved to record    2200.2 (Orbital set 3)

 Orbital spaces for UNO-CAS (Min. occupation: 0.020  Max. occupation: 1.980):

 Closed:       13
 Active:        0


 **********************************************************************************************************************************
 DATASETS  * FILE   NREC   LENGTH (MB)   RECORD NAMES
              1      20       43.59       500      610      700      900      950      970     1000      129      960     1100   
                                          VAR    BASINP    GEOM    SYMINP    ZMAT    AOBASIS   BASIS     P2S    ABASIS      S 
                                         1400     1410     1200     1210     1080     1600     1650     1300     1700     1800   
                                           T        V       H0       H01     AOSYM     SMH    MOLCAS    ERIS     OPER     GRID   

              2       5        3.11       700     1000      520     1800     2200   
                                         GEOM     BASIS   MCVARS    GRID      UKS  

 PROGRAMS   *        TOTAL       UKS       INT
 CPU TIMES  *        28.38     27.25      0.99
 REAL TIME  *        43.08 SEC
 DISK USED  *        82.90 MB      
 **********************************************************************************************************************************


 PROGRAM * Intrinsic Basis Bonding Analysis (IBBA)          Author: G. Knizia

 Molecular orbitals read from record     2200.2  Type=UKS/ALPHA (state 1.1)
 Fock matrix read from record            2200.2  Type=UKS/TOTAL (state 1.1)
 Orbital energies read from record       2200.2  Type=UKS/ALPHA (state 1.1)
 Density matrix read from record         2200.2  Type=UKS/CHARGE (state 1.1)

 Number of core orbitals:           3 (   3 )
 Number of closed-shell orbitals:  10 (  10 )

 Basis set MINAO-AUTO-PP generated.      Number of basis functions:   21 

 Polarized AO type:                A = (O Ot + (1-O)(1-Ot)) P12
 Orthogonalization method:         Symmetric (Loewdin)
 Localization functional:          L = sum[A,i] <i|n_A|i>^4 -> max

 Localization group 1:  13 orbitals, occupancy  2.000
 Iterative localization: IB/PM,    7 iter; Final gradient 0.15E-09

 Bond order analysis:       [THRPRINT= 0.020]

   CEN ATOM   CEN ATOM     WIBERG.BO      RENORM.BO
     1   H  -   2   O       0.867514       0.985715

     2   O  -   3   C       0.977007       1.001333
     2   O  -   1   H       0.867514       0.985715
     2   O  -   7   H       0.030396       0.017571
     2   O  -   6   H       0.030396       0.017571

     3   C  -   4   C       1.032156       1.021555
     3   C  -   2   O       0.977007       1.001333
     3   C  -   7   H       0.939827       0.927897
     3   C  -   6   H       0.939827       0.927897

     4   C  -   3   C       1.032156       1.021555
     4   C  -   5   H       0.962779       0.989077
     4   C  -   8   H       0.958375       0.979764
     4   C  -   9   H       0.958375       0.979764

     5   H  -   4   C       0.962779       0.989077

     6   H  -   3   C       0.939827       0.927897
     6   H  -   2   O       0.030396       0.017571

     7   H  -   3   C       0.939827       0.927897
     7   H  -   2   O       0.030396       0.017571

     8   H  -   4   C       0.958375       0.979764

     9   H  -   4   C       0.958375       0.979764


 Valency analysis:

   CEN ATOM   TOT.VALENCE
     1   H       0.881825
     2   O       1.936482
     3   C       3.894252
     4   C       3.939790
     5   H       0.981870
     6   H       0.989094
     7   H       0.989094
     8   H       0.980505
     9   H       0.980505

 Total charge composition:

   CEN ATOM         s          p       ELECTRONS ->P.CHARGE
     1   H       0.65623                 0.65623    0.34377
     2   O       3.64416    4.90341      8.54757   -0.54757
     3   C       2.99274    3.02497      6.01771   -0.01771
     4   C       3.03481    3.36644      6.40125   -0.40125
     5   H       0.86535                 0.86535    0.13465
     6   H       0.89557                 0.89557    0.10443
     7   H       0.89557                 0.89557    0.10443
     8   H       0.86037                 0.86037    0.13963
     9   H       0.86037                 0.86037    0.13963

 Total charge composition, AO contributions:

   CEN ATOM SHL      SPHERICAL COMPONENTS
     1   H  1s       0.65623

     2   O  1s       1.99695
     2   O  2s       1.64721
     2   O  2p       1.42951    1.51851    1.95539

     3   C  1s       1.99178
     3   C  2s       1.00096
     3   C  2p       1.02449    0.85368    1.14680

     4   C  1s       1.99069
     4   C  2s       1.04412
     4   C  2p       1.04740    1.15455    1.16449

     5   H  1s       0.86535

     6   H  1s       0.89557

     7   H  1s       0.89557

     8   H  1s       0.86037

     9   H  1s       0.86037

 Summary of localized orbital composition:   [THRPRINT= 0.020]

   ORB  GRP  ORB.ENERGY      CENTERS/CHARGES
     1   1   -18.804322      O  2   2.000
     2   1    -9.998293      C  3   2.000
     3   1    -9.932615      C  4   2.000
     4   1    -0.715598      O  2   1.341   H  1   0.649
     5   1    -0.690665      O  2   1.269   C  3   0.725
     6   1    -0.548010      C  3   1.003   C  4   0.990
     7   1    -0.522751      O  2   1.980
     8   1    -0.474403      C  3   1.118   H  7   0.873
     9   1    -0.474403      C  3   1.118   H  6   0.873
    10   1    -0.460452      C  4   1.126   H  5   0.859
    11   1    -0.454054      C  4   1.135   H  9   0.854
    12   1    -0.454054      C  4   1.135   H  8   0.854
    13   1    -0.255618      O  2   1.955   (other: 0.045)

 Localized orbitals saved to record      2200.2  (orbital set 4)


 **********************************************************************************************************************************
 DATASETS  * FILE   NREC   LENGTH (MB)   RECORD NAMES
              1      20       43.59       500      610      700      900      950      970     1000      129      960     1100   
                                          VAR    BASINP    GEOM    SYMINP    ZMAT    AOBASIS   BASIS     P2S    ABASIS      S 
                                         1400     1410     1200     1210     1080     1600     1650     1300     1700     1800   
                                           T        V       H0       H01     AOSYM     SMH    MOLCAS    ERIS     OPER     GRID   

              2       5        3.15       700     1000      520     1800     2200   
                                         GEOM     BASIS   MCVARS    GRID      UKS  

 PROGRAMS   *        TOTAL      IBBA       UKS       INT
 CPU TIMES  *        28.41      0.03     27.25      0.99
 REAL TIME  *        43.22 SEC
 DISK USED  *        82.90 MB      
 **********************************************************************************************************************************
 Molecular orbitals read from record     2200.2  Type=UKS/LOCAL(IBO)  
 Occupation numbers read from record     2200.2  Type=UKS/LOCAL(IBO)  
 Orbital energies read from record       2200.2  Type=UKS/LOCAL(IBO)  
 Redundancy group numbers read from rec  2200.2  Type=UKS/BETA (state 1.1)

 IBBA/SVP energy=      0.000000000000

        UKS-SCF 
   -154.89877768
 **********************************************************************************************************************************
 Molpro calculation terminated
