
 Primary working directories    : /tmp/sb13343
 Secondary working directories  : /tmp/sb13343
 Wavefunction directory         : /panfs/panasas01/chem/sb13343/wfu/
 Main file repository           : /tmp/sb13343/

 SHA1      : b4a5b34a9e711420743f49e6833241d17c61fb3c
 NAME      : 2099.9.b4a5b34
 ARCHNAME  : linux/x86_64_openmp
 FC        : /cm/shared/languages/GCC-6.1/bin/gfortran
 BLASLIB   : -lblas
 id        : simonbennie

 Nodes     nprocs
 node34-020    1

 Using customized tuning parameters: mindgm=1; mindgv=20; mindgc=4; mindgr=1; noblas=0; minvec=7
 default implementation of scratch files=df  

 memory,500,m
 geomtyp=xyz
 nosym
 noorient
 geometry={
 H         -1.81763       -0.80620        0.00000
 O         -0.85078       -0.87151        0.00000
 C         -0.32298        0.45206        0.00000
 C          1.19308        0.34760        0.00000
 H          1.64898        1.34394        0.00000
 H         -0.66062        1.01252       -0.88753
 H         -0.66062        1.01252        0.88753
 H          1.53777       -0.19434       -0.88682
 H          1.53777       -0.19434        0.88682
 }
 basis={ default,svp }
 {uks,LSDC,direct;wf,26,1,0}
 {ibba,bonds=1}

 Variables initialized (895), CPU time= 0.00 sec
 Commands  initialized (725), CPU time= 0.02 sec, 591 directives.
 Default parameters read. Elapsed time= 0.08 sec

 Checking input...
 Passed
1


                                         ***  PROGRAM SYSTEM MOLPRO  ***
                                       Copyright, TTI GmbH Stuttgart, 2015
                                    Version 2099.9 linked May 26 2017 16:03:21


 **********************************************************************************************************************************
 LABEL *                                                                                 
  64 bit serial version                                                                  DATE: 08-Jun-17          TIME: 11:59:11  
 **********************************************************************************************************************************

 SHA1:             b4a5b34a9e711420743f49e6833241d17c61fb3c
 **********************************************************************************************************************************
 SETTING GEOMTYP        =    XYZ

 Variable memory set to  500000000 words,  buffer space 

 ZSYMEL=NOSYM

 SETTING BASIS          =    SVP


 Recomputing integrals since basis changed


 Using spherical harmonics

 Library entry H      S def2-SVP             selected for orbital group  1
 Library entry H      P def2-SVP             selected for orbital group  1
 Library entry O      S def2-SVP             selected for orbital group  2
 Library entry O      P def2-SVP             selected for orbital group  2
 Library entry O      D def2-SVP             selected for orbital group  2
 Library entry C      S def2-SVP             selected for orbital group  3
 Library entry C      P def2-SVP             selected for orbital group  3
 Library entry C      D def2-SVP             selected for orbital group  3


 PROGRAM * SEWARD (Integral evaluation for generally contracted gaussian basis sets)     Author: Roland Lindh, 1990

 Geometry written to block  1 of record 700


 Point group  C1  



 ATOMIC COORDINATES

 NR  ATOM    CHARGE       X              Y              Z

   1  H       1.00   -3.434822896   -1.523497202    0.000000000
   2  O       8.00   -1.607741192   -1.646915215    0.000000000
   3  C       6.00   -0.610343744    0.854269592    0.000000000
   4  C       6.00    2.254594445    0.656868801    0.000000000
   5  H       1.00    3.116120585    2.539678528    0.000000000
   6  H       1.00   -1.248390872    1.913385496   -1.677188627
   7  H       1.00   -1.248390872    1.913385496    1.677188627
   8  H       1.00    2.905964143   -0.367249375   -1.675846922
   9  H       1.00    2.905964143   -0.367249375    1.675846922

 Bond lengths in Bohr (Angstrom)

 1-2  1.831245357  2-3  2.692717421  3-4  2.871730819  3-6  2.083696794  3-7  2.083696794
     ( 0.969053311)     ( 1.424924694)     ( 1.519654505)     ( 1.102644858)     ( 1.102644858)

 4-5  2.070555423  4-8  2.069193908  4-9  2.069193908
     ( 1.095690744)     ( 1.094970261)     ( 1.094970261)

 Bond angles

  1-2-3  107.87621325   2-3-4  107.79904962   2-3-6  111.02105480   2-3-7  111.02105480

  3-4-5  110.64605443   3-4-8  110.36936729   3-4-9  110.36936729   4-3-6  109.90272099

  4-3-7  109.90272099   5-4-8  108.60711935   5-4-9  108.60711935   6-3-7  107.20315121

  8-4-9  108.17296435

 NUCLEAR CHARGE:                   26
 NUMBER OF PRIMITIVE AOS:         117
 NUMBER OF SYMMETRY AOS:          114
 NUMBER OF CONTRACTIONS:           72   (  72A   )
 NUMBER OF CORE ORBITALS:           3   (   3A   )
 NUMBER OF VALENCE ORBITALS:       18   (  18A   )


 NUCLEAR REPULSION ENERGY   81.60955194


 Eigenvalues of metric

         1 0.375E-02 0.159E-01 0.292E-01 0.324E-01 0.398E-01 0.436E-01 0.556E-01 0.658E-01


 Contracted 2-electron integrals neglected if value below      1.0D-11
 AO integral compression algorithm  1   Integral accuracy      1.0D-11

     14.418 MB (compressed) written to integral file ( 45.7%)


 NUMBER OF SORTED TWO-ELECTRON INTEGRALS:    3454506.     BUFFER LENGTH:  32768
 NUMBER OF SEGMENTS:   1  SEGMENT LENGTH:    3454506      RECORD LENGTH: 524288

 Memory used in sort:       4.01 MW

 SORT1 READ     3945093. AND WROTE     2928993. INTEGRALS IN      9 RECORDS. CPU TIME:     0.04 SEC, REAL TIME:     0.08 SEC
 SORT2 READ     2928993. AND WROTE     3454506. INTEGRALS IN     55 RECORDS. CPU TIME:     0.11 SEC, REAL TIME:     0.14 SEC

 FILE SIZES:   FILE 1:    44.7 MBYTE,  FILE 4:    37.8 MBYTE,   TOTAL:     82.5 MBYTE

 OPERATOR DM      FOR CENTER  0  COORDINATES:    0.000000    0.000000    0.000000


 **********************************************************************************************************************************
 DATASETS  * FILE   NREC   LENGTH (MB)   RECORD NAMES
              1      19       42.60       500      610      700      900      950      970     1000      129      960     1100   
                                          VAR    BASINP    GEOM    SYMINP    ZMAT    AOBASIS   BASIS     P2S    ABASIS      S 
                                         1400     1410     1200     1210     1080     1600     1650     1300     1700   
                                           T        V       H0       H01     AOSYM     SMH    MOLCAS    ERIS     OPER   

 PROGRAMS   *        TOTAL       INT
 CPU TIMES  *         0.87      0.74
 REAL TIME  *         1.25 SEC
 DISK USED  *        82.90 MB      
 **********************************************************************************************************************************

 Density functional group LSDC=PW92C
 Functional: PW92C(Automatically generated (new) PW92C)                        Gradient terms: 0
 Use grid at  1800.2

 Functional: PW92C                     Factor:  1.0000

 Generated new metagrid on record  1800.2 with target accuracy 1.0D-06 and 30796 points in CPU time    0.7
 Computed new grid on record 1800.1 in CPU time    0.7
   33765 words reserved for DFT integration

 PROGRAM * UKS-SCF (Unrestricted Kohn-Sham)     Authors: W. Meyer, H.-J. Werner, P.J. Knowles, 1993

 NUMBER OF ELECTRONS:      13+   13-    SPACE SYMMETRY=1    SPIN SYMMETRY: Singlet 
 CONVERGENCE THRESHOLDS:    1.00E-05 (Density)    1.00E-06 (Energy)
 MAX. NUMBER OF ITERATIONS:       60
 INTERPOLATION TYPE:            DIIS
 INTERPOLATION STEPS:              2 (START)      1 (STEP)
 LEVEL SHIFTS:                 -0.20 (ALPHA)  -0.20 (BETA) 



 Use fine grid record 1800.2 for energy threshold  1.0D-06
 Orbital guess generated from atomic densities. Full valence occupancy:   13

 Molecular orbital dump at record        2200.2

 Initial alpha occupation  13
 Initial beta  occupation  13

 ITERATION    DDIFF          GRAD             ENERGY        2-EL.EN.            DIPOLE MOMENTS         DIIS
    1      0.000D+00      0.000D+00      -134.71458865    277.793959   -1.81238   -2.68528   -0.00000    0
    2      0.117D+00      0.185D-01      -134.60237261    312.658890   -0.42371    1.15507    0.00000    1
    3      0.292D-01      0.226D-01      -135.43227064    296.888181   -0.60895   -0.15993   -0.00000    2
    4      0.467D-02      0.165D-02      -135.43947446    295.316826   -0.62949   -0.20813   -0.00000    3
    5      0.503D-02      0.669D-03      -135.44155394    295.666162   -0.60722   -0.19604   -0.00000    4
    6      0.591D-02      0.256D-03      -135.44252157    295.711400   -0.56371   -0.15041    0.00000    5
    7      0.203D-02      0.801D-04      -135.44261506    295.755651   -0.55686   -0.14590   -0.00000    6
    8      0.428D-03      0.256D-04      -135.44262038    295.762073   -0.55243   -0.14319   -0.00000    7
    9      0.104D-03      0.113D-04      -135.44262106    295.765256   -0.55217   -0.14313    0.00000    6
   10      0.953D-04      0.668D-05      -135.44262136    295.766740   -0.55173   -0.14283    0.00000    7
   11      0.321D-04      0.167D-05      -135.44262139    295.765711   -0.55178   -0.14308   -0.00000    8
   12      0.487D-05      0.433D-06      -135.44262139    295.765915   -0.55176   -0.14300   -0.00000    8
   13      0.148D-05      0.931D-07      -135.44262139    295.765920   -0.55176   -0.14300    0.00000    7

 Final alpha occupancy:  13
 Final beta  occupancy:  13

 !UKS STATE 1.1 Energy               -135.442621387943
 Nuclear energy                        81.60955194
 One-electron energy                 -363.33276152
 Two-electron energy                  147.88295987
 Density functional                    -1.60237168     PW92C=-1.60237168
 Virial quotient                       -0.93669588
 !UKS STATE 1.1 Dipole moment          -0.55175746    -0.14299838     0.00000000
 Dipole moment /Debye                  -1.40233574    -0.36344182     0.00000000

 Orbital energies for positive spin:

         1.1          2.1          3.1          4.1          5.1          6.1          7.1          8.1          9.1         10.1
    -16.622462    -8.269074    -8.238093    -0.565102    -0.358964    -0.227529    -0.183216    -0.146975    -0.076455    -0.057724

        11.1         12.1         13.1         14.1         15.1
     -0.036099     0.016465     0.081630     0.174154     0.211317

 Orbital energies for negative spin:

         1.1          2.1          3.1          4.1          5.1          6.1          7.1          8.1          9.1         10.1
    -16.622462    -8.269074    -8.238093    -0.565102    -0.358964    -0.227529    -0.183216    -0.146975    -0.076455    -0.057724

        11.1         12.1         13.1         14.1         15.1
     -0.036099     0.016465     0.081630     0.174154     0.211317

 HOMO     13.1     0.081630 =       2.2213eV
 LUMO     14.1     0.174154 =       4.7390eV
 LUMO-HOMO         0.092524 =       2.5177eV

 EXPECTATION VALUE OF S**2:             0.00000000

 Natural orbitals saved to record    2200.2 (Orbital set 3)

 Orbital spaces for UNO-CAS (Min. occupation: 0.020  Max. occupation: 1.980):

 Closed:       13
 Active:        0


 **********************************************************************************************************************************
 DATASETS  * FILE   NREC   LENGTH (MB)   RECORD NAMES
              1      20       43.59       500      610      700      900      950      970     1000      129      960     1100   
                                          VAR    BASINP    GEOM    SYMINP    ZMAT    AOBASIS   BASIS     P2S    ABASIS      S 
                                         1400     1410     1200     1210     1080     1600     1650     1300     1700     1800   
                                           T        V       H0       H01     AOSYM     SMH    MOLCAS    ERIS     OPER     GRID   

              2       5        3.11       700     1000      520     1800     2200   
                                         GEOM     BASIS   MCVARS    GRID      UKS  

 PROGRAMS   *        TOTAL       UKS       INT
 CPU TIMES  *         5.19      4.32      0.74
 REAL TIME  *         6.11 SEC
 DISK USED  *        82.90 MB      
 **********************************************************************************************************************************


 PROGRAM * Intrinsic Basis Bonding Analysis (IBBA)          Author: G. Knizia

 Molecular orbitals read from record     2200.2  Type=UKS/ALPHA (state 1.1)
 Fock matrix read from record            2200.2  Type=UKS/TOTAL (state 1.1)
 Orbital energies read from record       2200.2  Type=UKS/ALPHA (state 1.1)
 Density matrix read from record         2200.2  Type=UKS/CHARGE (state 1.1)

 Number of core orbitals:           3 (   3 )
 Number of closed-shell orbitals:  10 (  10 )

 Basis set MINAO-AUTO-PP generated.      Number of basis functions:   21 

 Polarized AO type:                A = (O Ot + (1-O)(1-Ot)) P12
 Orthogonalization method:         Symmetric (Loewdin)
 Localization functional:          L = sum[A,i] <i|n_A|i>^4 -> max

 Localization group 1:  13 orbitals, occupancy  2.000
 Iterative localization: IB/PM,    7 iter; Final gradient 0.13E-08

 Bond order analysis:       [THRPRINT= 0.020]

   CEN ATOM   CEN ATOM     WIBERG.BO      RENORM.BO
     1   H  -   2   O       0.943317       0.969880

     2   O  -   3   C       1.075383       1.026151
     2   O  -   1   H       0.943317       0.969880
     2   O  -   7   H       0.054754       0.028804
     2   O  -   6   H       0.054754       0.028804
     2   O  -   4   C       0.053714       0.031594
     2   O  -   5   H       0.024110       0.018217

     3   C  -   2   O       1.075383       1.026151
     3   C  -   4   C       1.041475       1.034060
     3   C  -   6   H       0.908795       0.870065
     3   C  -   7   H       0.908795       0.870065

     4   C  -   3   C       1.041475       1.034060
     4   C  -   5   H       0.951305       0.968518
     4   C  -   8   H       0.948320       0.951408
     4   C  -   9   H       0.948320       0.951408
     4   C  -   2   O       0.053714       0.031594

     5   H  -   4   C       0.951305       0.968518
     5   H  -   2   O       0.024110       0.018217

     6   H  -   3   C       0.908795       0.870065
     6   H  -   2   O       0.054754       0.028804
     6   H  -   9   H       0.030907       0.031502

     7   H  -   3   C       0.908795       0.870065
     7   H  -   2   O       0.054754       0.028804
     7   H  -   8   H       0.030907       0.031502

     8   H  -   4   C       0.948320       0.951408
     8   H  -   7   H       0.030907       0.031502

     9   H  -   4   C       0.948320       0.951408
     9   H  -   6   H       0.030907       0.031502


 Valency analysis:

   CEN ATOM   TOT.VALENCE
     1   H       0.970743
     2   O       2.220095
     3   C       3.947423
     4   C       3.965559
     5   H       0.997671
     6   H       0.999556
     7   H       0.999556
     8   H       0.998468
     9   H       0.998468

 Total charge composition:

   CEN ATOM         s          p       ELECTRONS ->P.CHARGE
     1   H       0.82895                 0.82895    0.17105
     2   O       3.52380    4.69095      8.21476   -0.21476
     3   C       2.86855    3.02216      5.89072    0.10928
     4   C       2.89583    3.25415      6.14998   -0.14998
     5   H       0.95174                 0.95174    0.04826
     6   H       1.02106                 1.02106   -0.02106
     7   H       1.02106                 1.02106   -0.02106
     8   H       0.96086                 0.96086    0.03914
     9   H       0.96086                 0.96086    0.03914

 Total charge composition, AO contributions:

   CEN ATOM SHL      SPHERICAL COMPONENTS
     1   H  1s       0.82895

     2   O  1s       1.99888
     2   O  2s       1.52492
     2   O  2p       1.30066    1.48871    1.90158

     3   C  1s       1.99809
     3   C  2s       0.87046
     3   C  2p       1.04054    0.89420    1.08742

     4   C  1s       1.99776
     4   C  2s       0.89808
     4   C  2p       1.05209    1.09550    1.10656

     5   H  1s       0.95174

     6   H  1s       1.02106

     7   H  1s       1.02106

     8   H  1s       0.96086

     9   H  1s       0.96086

 Summary of localized orbital composition:   [THRPRINT= 0.020]

   ORB  GRP  ORB.ENERGY      CENTERS/CHARGES
     1   1   -16.534731      O  2   2.000
     2   1    -8.195638      C  3   2.000
     3   1    -8.157751      C  4   2.000
     4   1    -0.376776      O  2   1.187   C  3   0.806
     5   1    -0.344499      O  2   1.170   H  1   0.816
     6   1    -0.234665      C  4   1.004   C  3   0.986
     7   1    -0.161449      C  3   0.996   H  6   0.985
     8   1    -0.161449      C  3   0.996   H  7   0.985
     9   1    -0.153369      C  4   1.035   H  5   0.938   (other: 0.026)
    10   1    -0.152680      C  4   1.035   H  8   0.945   (other: 0.020)
    11   1    -0.152680      C  4   1.035   H  9   0.945   (other: 0.020)
    12   1    -0.108194      O  2   1.949   (other: 0.051)
    13   1     0.050286      O  2   1.902   C  3   0.045   H  6   0.022   H  7   0.022

 Localized orbitals saved to record      2200.2  (orbital set 4)


 **********************************************************************************************************************************
 DATASETS  * FILE   NREC   LENGTH (MB)   RECORD NAMES
              1      20       43.59       500      610      700      900      950      970     1000      129      960     1100   
                                          VAR    BASINP    GEOM    SYMINP    ZMAT    AOBASIS   BASIS     P2S    ABASIS      S 
                                         1400     1410     1200     1210     1080     1600     1650     1300     1700     1800   
                                           T        V       H0       H01     AOSYM     SMH    MOLCAS    ERIS     OPER     GRID   

              2       5        3.15       700     1000      520     1800     2200   
                                         GEOM     BASIS   MCVARS    GRID      UKS  

 PROGRAMS   *        TOTAL      IBBA       UKS       INT
 CPU TIMES  *         5.21      0.02      4.32      0.74
 REAL TIME  *         6.19 SEC
 DISK USED  *        82.90 MB      
 **********************************************************************************************************************************
 Molecular orbitals read from record     2200.2  Type=UKS/LOCAL(IBO)  
 Occupation numbers read from record     2200.2  Type=UKS/LOCAL(IBO)  
 Orbital energies read from record       2200.2  Type=UKS/LOCAL(IBO)  
 Redundancy group numbers read from rec  2200.2  Type=UKS/BETA (state 1.1)

 IBBA/SVP energy=      0.000000000000

        UKS-SCF 
   -135.44262139
 **********************************************************************************************************************************
 Molpro calculation terminated
