
 Primary working directories    : /tmp/sb13343
 Secondary working directories  : /tmp/sb13343
 Wavefunction directory         : /panfs/panasas01/chem/sb13343/wfu/
 Main file repository           : /tmp/sb13343/

 SHA1      : b4a5b34a9e711420743f49e6833241d17c61fb3c
 NAME      : 2099.9.b4a5b34
 ARCHNAME  : linux/x86_64_openmp
 FC        : /cm/shared/languages/GCC-6.1/bin/gfortran
 BLASLIB   : -lblas
 id        : simonbennie

 Nodes     nprocs
 node32-030    1

 Using customized tuning parameters: mindgm=1; mindgv=20; mindgc=4; mindgr=1; noblas=0; minvec=7
 default implementation of scratch files=df  

 memory,500,m
 geomtyp=xyz
 nosym
 noorient
 geometry={
 H         -1.81763       -0.80620        0.00000
 O         -0.85078       -0.87151        0.00000
 C         -0.32298        0.45206        0.00000
 C          1.19308        0.34760        0.00000
 H          1.64898        1.34394        0.00000
 H         -0.66062        1.01252       -0.88753
 H         -0.66062        1.01252        0.88753
 H          1.53777       -0.19434       -0.88682
 H          1.53777       -0.19434        0.88682
 }
 basis={ default,sto-3g }
 {uks,MM06-HF,direct;wf,26,1,0}
 {ibba,bonds=1}

 Variables initialized (895), CPU time= 0.00 sec
 Commands  initialized (725), CPU time= 0.02 sec, 591 directives.
 Default parameters read. Elapsed time= 0.08 sec

 Checking input...
 Passed
1


                                         ***  PROGRAM SYSTEM MOLPRO  ***
                                       Copyright, TTI GmbH Stuttgart, 2015
                                    Version 2099.9 linked May 26 2017 16:03:21


 **********************************************************************************************************************************
 LABEL *                                                                                 
  64 bit serial version                                                                  DATE: 08-Jun-17          TIME: 11:41:35  
 **********************************************************************************************************************************

 SHA1:             b4a5b34a9e711420743f49e6833241d17c61fb3c
 **********************************************************************************************************************************
 SETTING GEOMTYP        =    XYZ

 Variable memory set to  500000000 words,  buffer space 

 ZSYMEL=NOSYM

 SETTING BASIS          =    STO-3G


 Recomputing integrals since basis changed


 Using spherical harmonics

 Library entry H      S STO-3G               selected for orbital group  1
 Library entry O      S STO-3G               selected for orbital group  2
 Library entry O      P STO-3G               selected for orbital group  2
 Library entry C      S STO-3G               selected for orbital group  3
 Library entry C      P STO-3G               selected for orbital group  3


 PROGRAM * SEWARD (Integral evaluation for generally contracted gaussian basis sets)     Author: Roland Lindh, 1990

 Geometry written to block  1 of record 700


 Point group  C1  



 ATOMIC COORDINATES

 NR  ATOM    CHARGE       X              Y              Z

   1  H       1.00   -3.434822896   -1.523497202    0.000000000
   2  O       8.00   -1.607741192   -1.646915215    0.000000000
   3  C       6.00   -0.610343744    0.854269592    0.000000000
   4  C       6.00    2.254594445    0.656868801    0.000000000
   5  H       1.00    3.116120585    2.539678528    0.000000000
   6  H       1.00   -1.248390872    1.913385496   -1.677188627
   7  H       1.00   -1.248390872    1.913385496    1.677188627
   8  H       1.00    2.905964143   -0.367249375   -1.675846922
   9  H       1.00    2.905964143   -0.367249375    1.675846922

 Bond lengths in Bohr (Angstrom)

 1-2  1.831245357  2-3  2.692717421  3-4  2.871730819  3-6  2.083696794  3-7  2.083696794
     ( 0.969053311)     ( 1.424924694)     ( 1.519654505)     ( 1.102644858)     ( 1.102644858)

 4-5  2.070555423  4-8  2.069193908  4-9  2.069193908
     ( 1.095690744)     ( 1.094970261)     ( 1.094970261)

 Bond angles

  1-2-3  107.87621325   2-3-4  107.79904962   2-3-6  111.02105480   2-3-7  111.02105480

  3-4-5  110.64605443   3-4-8  110.36936729   3-4-9  110.36936729   4-3-6  109.90272099

  4-3-7  109.90272099   5-4-8  108.60711935   5-4-9  108.60711935   6-3-7  107.20315121

  8-4-9  108.17296435

 NUCLEAR CHARGE:                   26
 NUMBER OF PRIMITIVE AOS:          63
 NUMBER OF SYMMETRY AOS:           63
 NUMBER OF CONTRACTIONS:           21   (  21A   )
 NUMBER OF CORE ORBITALS:           3   (   3A   )
 NUMBER OF VALENCE ORBITALS:       18   (  18A   )


 NUCLEAR REPULSION ENERGY   81.60955194


 Eigenvalues of metric

         1 0.212E+00 0.263E+00 0.352E+00 0.355E+00 0.377E+00 0.393E+00 0.407E+00 0.473E+00


 Contracted 2-electron integrals neglected if value below      1.0D-11
 AO integral compression algorithm  1   Integral accuracy      1.0D-11

     0.262 MB (compressed) written to integral file (100.0%)


 NUMBER OF SORTED TWO-ELECTRON INTEGRALS:      26796.     BUFFER LENGTH:  32768
 NUMBER OF SEGMENTS:   1  SEGMENT LENGTH:      26796      RECORD LENGTH: 524288

 Memory used in sort:       0.58 MW

 SORT1 READ       32379. AND WROTE       21718. INTEGRALS IN      1 RECORDS. CPU TIME:     0.00 SEC, REAL TIME:     0.00 SEC
 SORT2 READ       21718. AND WROTE       26796. INTEGRALS IN      1 RECORDS. CPU TIME:     0.01 SEC, REAL TIME:     0.01 SEC

 FILE SIZES:   FILE 1:    30.4 MBYTE,  FILE 4:     4.2 MBYTE,   TOTAL:     34.6 MBYTE

 OPERATOR DM      FOR CENTER  0  COORDINATES:    0.000000    0.000000    0.000000


 **********************************************************************************************************************************
 DATASETS  * FILE   NREC   LENGTH (MB)   RECORD NAMES
              1      19       30.21       500      610      700      900      950      970     1000      129      960     1100   
                                          VAR    BASINP    GEOM    SYMINP    ZMAT    AOBASIS   BASIS     P2S    ABASIS      S 
                                         1400     1410     1200     1210     1080     1600     1650     1300     1700   
                                           T        V       H0       H01     AOSYM     SMH    MOLCAS    ERIS     OPER   

 PROGRAMS   *        TOTAL       INT
 CPU TIMES  *         0.54      0.40
 REAL TIME  *         0.89 SEC
 DISK USED  *        34.99 MB      
 **********************************************************************************************************************************

 Density functional group MM06-HF=M06HFX+M06HFC
 Functional: M06HFX(Automatically generated (new) M06HFX)                      Gradient terms: 2
 Functional: M06HFC(Automatically generated (new) M06HFC)                      Gradient terms: 2
 Use grid at  1800.2


 Exact exchange will be calculated, factor:  1.0000

 Functional: M06HFX                    Factor:  1.0000
 Functional: M06HFC                    Factor:  1.0000

 Generated new metagrid on record  1800.2 with target accuracy 1.0D-06 and 30796 points in CPU time    0.7
 Computed new grid on record 1800.1 in CPU time    0.8
   36897 words reserved for DFT integration

 PROGRAM * UKS-SCF (Unrestricted Kohn-Sham)     Authors: W. Meyer, H.-J. Werner, P.J. Knowles, 1993

 NUMBER OF ELECTRONS:      13+   13-    SPACE SYMMETRY=1    SPIN SYMMETRY: Singlet 
 CONVERGENCE THRESHOLDS:    1.00E-05 (Density)    1.00E-06 (Energy)
 MAX. NUMBER OF ITERATIONS:       60
 INTERPOLATION TYPE:            DIIS
 INTERPOLATION STEPS:              2 (START)      1 (STEP)
 LEVEL SHIFTS:                 -0.20 (ALPHA)  -0.20 (BETA) 



 Use fine grid record 1800.2 for energy threshold  1.0D-06
 Orbital guess generated from atomic densities. Full valence occupancy:   13

 Molecular orbital dump at record        2200.2

 Initial alpha occupation  13
 Initial beta  occupation  13

 ITERATION    DDIFF          GRAD             ENERGY        2-EL.EN.            DIPOLE MOMENTS         DIIS
    1      0.000D+00      0.000D+00      -152.94176946    278.349315   -0.59172    1.06053   -0.00000    0
    2      0.426D-01      0.194D-01      -153.06574241    273.191588   -0.36502    0.52645    0.00000    1
    3      0.106D-01      0.401D-02      -153.07203599    272.172261   -0.29914    0.43160    0.00000    2
    4      0.369D-02      0.111D-02      -153.07263658    272.103970   -0.28092    0.43231    0.00000    3
    5      0.174D-02      0.366D-03      -153.07271755    272.102700   -0.27463    0.43686    0.00000    4
    6      0.515D-03      0.943D-04      -153.07272454    272.101410   -0.27453    0.43758    0.00000    5
    7      0.873D-04      0.157D-04      -153.07272473    272.100817   -0.27464    0.43739    0.00000    5
    8      0.127D-04      0.301D-05      -153.07272473    272.100877   -0.27469    0.43726    0.00000    6
    9      0.245D-05      0.609D-06      -153.07272473    272.100839   -0.27471    0.43724    0.00000    5
   10      0.704D-06      0.169D-06      -153.07272473    272.100839   -0.27471    0.43724    0.00000    5

 Final alpha occupancy:  13
 Final beta  occupancy:  13

 !UKS STATE 1.1 Energy               -153.072724731164
 Nuclear energy                        81.60955194
 One-electron energy                 -369.78900179
 Two-electron energy                  136.05041952
 Density functional                    -0.94369440     M06HFX= 0.00676016 M06HFC=-0.95045456
 Virial quotient                       -1.01531791
 !UKS STATE 1.1 Dipole moment          -0.27471018     0.43723558     0.00000000
 Dipole moment /Debye                  -0.69819789     1.11126921     0.00000000

 Orbital energies for positive spin:

         1.1          2.1          3.1          4.1          5.1          6.1          7.1          8.1          9.1         10.1
    -19.937185   -10.837323   -10.792664    -1.201339    -0.905941    -0.752356    -0.611234    -0.593390    -0.504959    -0.479396

        11.1         12.1         13.1         14.1         15.1
     -0.472453    -0.401088    -0.356464     0.475796     0.543976

 Orbital energies for negative spin:

         1.1          2.1          3.1          4.1          5.1          6.1          7.1          8.1          9.1         10.1
    -19.937185   -10.837323   -10.792664    -1.201339    -0.905941    -0.752356    -0.611234    -0.593390    -0.504959    -0.479396

        11.1         12.1         13.1         14.1         15.1
     -0.472453    -0.401088    -0.356464     0.475796     0.543976

 HOMO     13.1    -0.356464 =      -9.6999eV
 LUMO     14.1     0.475796 =      12.9471eV
 LUMO-HOMO         0.832260 =      22.6469eV

 EXPECTATION VALUE OF S**2:            -0.00000000

 Natural orbitals saved to record    2200.2 (Orbital set 3)

 Orbital spaces for UNO-CAS (Min. occupation: 0.020  Max. occupation: 1.980):

 Closed:       13
 Active:        0


 **********************************************************************************************************************************
 DATASETS  * FILE   NREC   LENGTH (MB)   RECORD NAMES
              1      20       31.20       500      610      700      900      950      970     1000      129      960     1100   
                                          VAR    BASINP    GEOM    SYMINP    ZMAT    AOBASIS   BASIS     P2S    ABASIS      S 
                                         1400     1410     1200     1210     1080     1600     1650     1300     1700     1800   
                                           T        V       H0       H01     AOSYM     SMH    MOLCAS    ERIS     OPER     GRID   

              2       5        2.91       700     1000      520     1800     2200   
                                         GEOM     BASIS   MCVARS    GRID      UKS  

 PROGRAMS   *        TOTAL       UKS       INT
 CPU TIMES  *         5.51      4.97      0.40
 REAL TIME  *         6.13 SEC
 DISK USED  *        34.99 MB      
 **********************************************************************************************************************************


 PROGRAM * Intrinsic Basis Bonding Analysis (IBBA)          Author: G. Knizia

 Molecular orbitals read from record     2200.2  Type=UKS/ALPHA (state 1.1)
 Fock matrix read from record            2200.2  Type=UKS/TOTAL (state 1.1)
 Orbital energies read from record       2200.2  Type=UKS/ALPHA (state 1.1)
 Density matrix read from record         2200.2  Type=UKS/CHARGE (state 1.1)

 Number of core orbitals:           3 (   3 )
 Number of closed-shell orbitals:  10 (  10 )

 Basis set MINAO-AUTO-PP generated.      Number of basis functions:   21 

 Polarized AO type:                A = (O Ot + (1-O)(1-Ot)) P12
 Orthogonalization method:         Symmetric (Loewdin)
 Localization functional:          L = sum[A,i] <i|n_A|i>^4 -> max

 Localization group 1:  13 orbitals, occupancy  2.000
 Iterative localization: IB/PM,    6 iter; Final gradient 0.51E-08

 Bond order analysis:       [THRPRINT= 0.020]

   CEN ATOM   CEN ATOM     WIBERG.BO      RENORM.BO
     1   H  -   2   O       0.940738       0.987337

     2   O  -   3   C       1.010622       1.007938
     2   O  -   1   H       0.940738       0.987337

     3   C  -   2   O       1.010622       1.007938
     3   C  -   4   C       1.009162       1.005324
     3   C  -   6   H       0.956956       0.958644
     3   C  -   7   H       0.956956       0.958644

     4   C  -   3   C       1.009162       1.005324
     4   C  -   5   H       0.967847       0.992893
     4   C  -   8   H       0.964821       0.989387
     4   C  -   9   H       0.964821       0.989387

     5   H  -   4   C       0.967847       0.992893

     6   H  -   3   C       0.956956       0.958644

     7   H  -   3   C       0.956956       0.958644

     8   H  -   4   C       0.964821       0.989387

     9   H  -   4   C       0.964821       0.989387


 Valency analysis:

   CEN ATOM   TOT.VALENCE
     1   H       0.954555
     2   O       2.002743
     3   C       3.938709
     4   C       3.928468
     5   H       0.983384
     6   H       0.987831
     7   H       0.987831
     8   H       0.982265
     9   H       0.982265

 Total charge composition:

   CEN ATOM         s          p       ELECTRONS ->P.CHARGE
     1   H       0.78682                 0.78682    0.21318
     2   O       3.64728    4.67237      8.31965   -0.31965
     3   C       2.96584    3.16353      6.12937   -0.12937
     4   C       2.97101    3.40902      6.38003   -0.38003
     5   H       0.87110                 0.87110    0.12890
     6   H       0.88969                 0.88969    0.11031
     7   H       0.88969                 0.88969    0.11031
     8   H       0.86683                 0.86683    0.13317
     9   H       0.86683                 0.86683    0.13317

 Total charge composition, AO contributions:

   CEN ATOM SHL      SPHERICAL COMPONENTS
     1   H  1s       0.78682

     2   O  1s       1.99708
     2   O  2s       1.65020
     2   O  2p       1.30231    1.39469    1.97537

     3   C  1s       1.99200
     3   C  2s       0.97384
     3   C  2p       1.04969    0.94740    1.16644

     4   C  1s       1.99106
     4   C  2s       0.97995
     4   C  2p       1.05546    1.17344    1.18011

     5   H  1s       0.87110

     6   H  1s       0.88969

     7   H  1s       0.88969

     8   H  1s       0.86683

     9   H  1s       0.86683

 Summary of localized orbital composition:   [THRPRINT= 0.020]

   ORB  GRP  ORB.ENERGY      CENTERS/CHARGES
     1   1   -19.752436      O  2   2.000
     2   1   -10.728674      C  3   2.000
     3   1   -10.673922      C  4   2.000
     4   1    -0.851827      O  2   1.210   H  1   0.781
     5   1    -0.823949      O  2   1.141   C  3   0.854
     6   1    -0.743826      O  2   1.990
     7   1    -0.699396      C  3   1.006   C  4   0.983
     8   1    -0.647150      C  3   1.119   H  7   0.875
     9   1    -0.647150      C  3   1.119   H  6   0.875
    10   1    -0.630973      C  4   1.126   H  5   0.865
    11   1    -0.625829      C  4   1.131   H  9   0.861
    12   1    -0.625829      C  4   1.131   H  8   0.861
    13   1    -0.394830      O  2   1.975   (other: 0.025)

 Localized orbitals saved to record      2200.2  (orbital set 4)


 **********************************************************************************************************************************
 DATASETS  * FILE   NREC   LENGTH (MB)   RECORD NAMES
              1      20       31.20       500      610      700      900      950      970     1000      129      960     1100   
                                          VAR    BASINP    GEOM    SYMINP    ZMAT    AOBASIS   BASIS     P2S    ABASIS      S 
                                         1400     1410     1200     1210     1080     1600     1650     1300     1700     1800   
                                           T        V       H0       H01     AOSYM     SMH    MOLCAS    ERIS     OPER     GRID   

              2       5        2.92       700     1000      520     1800     2200   
                                         GEOM     BASIS   MCVARS    GRID      UKS  

 PROGRAMS   *        TOTAL      IBBA       UKS       INT
 CPU TIMES  *         5.54      0.02      4.97      0.40
 REAL TIME  *         6.21 SEC
 DISK USED  *        34.99 MB      
 **********************************************************************************************************************************
 Molecular orbitals read from record     2200.2  Type=UKS/LOCAL(IBO)  
 Occupation numbers read from record     2200.2  Type=UKS/LOCAL(IBO)  
 Orbital energies read from record       2200.2  Type=UKS/LOCAL(IBO)  
 Redundancy group numbers read from rec  2200.2  Type=UKS/BETA (state 1.1)

 IBBA/STO-3G energy=      0.000000000000

        UKS-SCF 
   -153.07272473
 **********************************************************************************************************************************
 Molpro calculation terminated
