
 Primary working directories    : /tmp/sb13343
 Secondary working directories  : /tmp/sb13343
 Wavefunction directory         : /panfs/panasas01/chem/sb13343/wfu/
 Main file repository           : /tmp/sb13343/

 SHA1      : b4a5b34a9e711420743f49e6833241d17c61fb3c
 NAME      : 2099.9.b4a5b34
 ARCHNAME  : linux/x86_64_openmp
 FC        : /cm/shared/languages/GCC-6.1/bin/gfortran
 BLASLIB   : -lblas
 id        : simonbennie

 Nodes     nprocs
 node44-015    1

 Using customized tuning parameters: mindgm=1; mindgv=20; mindgc=4; mindgr=1; noblas=0; minvec=7
 default implementation of scratch files=df  

 memory,500,m
 geomtyp=xyz
 nosym
 noorient
 geometry={
 H         -1.81763       -0.80620        0.00000
 O         -0.85078       -0.87151        0.00000
 C         -0.32298        0.45206        0.00000
 C          1.19308        0.34760        0.00000
 H          1.64898        1.34394        0.00000
 H         -0.66062        1.01252       -0.88753
 H         -0.66062        1.01252        0.88753
 H          1.53777       -0.19434       -0.88682
 H          1.53777       -0.19434        0.88682
 }
 basis={ default,svp }
 {uks,CS,direct;wf,26,1,0}
 {ibba,bonds=1}

 Variables initialized (895), CPU time= 0.00 sec
 Commands  initialized (725), CPU time= 0.01 sec, 591 directives.
 Default parameters read. Elapsed time= 0.08 sec

 Checking input...
 Passed
1


                                         ***  PROGRAM SYSTEM MOLPRO  ***
                                       Copyright, TTI GmbH Stuttgart, 2015
                                    Version 2099.9 linked May 26 2017 16:03:21


 **********************************************************************************************************************************
 LABEL *                                                                                 
  64 bit serial version                                                                  DATE: 08-Jun-17          TIME: 11:56:31  
 **********************************************************************************************************************************

 SHA1:             b4a5b34a9e711420743f49e6833241d17c61fb3c
 **********************************************************************************************************************************
 SETTING GEOMTYP        =    XYZ

 Variable memory set to  500000000 words,  buffer space 

 ZSYMEL=NOSYM

 SETTING BASIS          =    SVP


 Recomputing integrals since basis changed


 Using spherical harmonics

 Library entry H      S def2-SVP             selected for orbital group  1
 Library entry H      P def2-SVP             selected for orbital group  1
 Library entry O      S def2-SVP             selected for orbital group  2
 Library entry O      P def2-SVP             selected for orbital group  2
 Library entry O      D def2-SVP             selected for orbital group  2
 Library entry C      S def2-SVP             selected for orbital group  3
 Library entry C      P def2-SVP             selected for orbital group  3
 Library entry C      D def2-SVP             selected for orbital group  3


 PROGRAM * SEWARD (Integral evaluation for generally contracted gaussian basis sets)     Author: Roland Lindh, 1990

 Geometry written to block  1 of record 700


 Point group  C1  



 ATOMIC COORDINATES

 NR  ATOM    CHARGE       X              Y              Z

   1  H       1.00   -3.434822896   -1.523497202    0.000000000
   2  O       8.00   -1.607741192   -1.646915215    0.000000000
   3  C       6.00   -0.610343744    0.854269592    0.000000000
   4  C       6.00    2.254594445    0.656868801    0.000000000
   5  H       1.00    3.116120585    2.539678528    0.000000000
   6  H       1.00   -1.248390872    1.913385496   -1.677188627
   7  H       1.00   -1.248390872    1.913385496    1.677188627
   8  H       1.00    2.905964143   -0.367249375   -1.675846922
   9  H       1.00    2.905964143   -0.367249375    1.675846922

 Bond lengths in Bohr (Angstrom)

 1-2  1.831245357  2-3  2.692717421  3-4  2.871730819  3-6  2.083696794  3-7  2.083696794
     ( 0.969053311)     ( 1.424924694)     ( 1.519654505)     ( 1.102644858)     ( 1.102644858)

 4-5  2.070555423  4-8  2.069193908  4-9  2.069193908
     ( 1.095690744)     ( 1.094970261)     ( 1.094970261)

 Bond angles

  1-2-3  107.87621325   2-3-4  107.79904962   2-3-6  111.02105480   2-3-7  111.02105480

  3-4-5  110.64605443   3-4-8  110.36936729   3-4-9  110.36936729   4-3-6  109.90272099

  4-3-7  109.90272099   5-4-8  108.60711935   5-4-9  108.60711935   6-3-7  107.20315121

  8-4-9  108.17296435

 NUCLEAR CHARGE:                   26
 NUMBER OF PRIMITIVE AOS:         117
 NUMBER OF SYMMETRY AOS:          114
 NUMBER OF CONTRACTIONS:           72   (  72A   )
 NUMBER OF CORE ORBITALS:           3   (   3A   )
 NUMBER OF VALENCE ORBITALS:       18   (  18A   )


 NUCLEAR REPULSION ENERGY   81.60955194


 Eigenvalues of metric

         1 0.375E-02 0.159E-01 0.292E-01 0.324E-01 0.398E-01 0.436E-01 0.556E-01 0.658E-01


 Contracted 2-electron integrals neglected if value below      1.0D-11
 AO integral compression algorithm  1   Integral accuracy      1.0D-11

     14.418 MB (compressed) written to integral file ( 45.7%)


 NUMBER OF SORTED TWO-ELECTRON INTEGRALS:    3454506.     BUFFER LENGTH:  32768
 NUMBER OF SEGMENTS:   1  SEGMENT LENGTH:    3454506      RECORD LENGTH: 524288

 Memory used in sort:       4.01 MW

 SORT1 READ     3945093. AND WROTE     2928993. INTEGRALS IN      9 RECORDS. CPU TIME:     0.04 SEC, REAL TIME:     0.09 SEC
 SORT2 READ     2928993. AND WROTE     3454506. INTEGRALS IN     55 RECORDS. CPU TIME:     0.12 SEC, REAL TIME:     0.14 SEC

 FILE SIZES:   FILE 1:    44.7 MBYTE,  FILE 4:    37.8 MBYTE,   TOTAL:     82.5 MBYTE

 OPERATOR DM      FOR CENTER  0  COORDINATES:    0.000000    0.000000    0.000000


 **********************************************************************************************************************************
 DATASETS  * FILE   NREC   LENGTH (MB)   RECORD NAMES
              1      19       42.60       500      610      700      900      950      970     1000      129      960     1100   
                                          VAR    BASINP    GEOM    SYMINP    ZMAT    AOBASIS   BASIS     P2S    ABASIS      S 
                                         1400     1410     1200     1210     1080     1600     1650     1300     1700   
                                           T        V       H0       H01     AOSYM     SMH    MOLCAS    ERIS     OPER   

 PROGRAMS   *        TOTAL       INT
 CPU TIMES  *         0.88      0.74
 REAL TIME  *         1.81 SEC
 DISK USED  *        82.90 MB      
 **********************************************************************************************************************************

 Density functional group CS=CS1
 Functional: CS1(Colle-Salvetti (Gradient form))                               Gradient terms: 1
 Use grid at  1800.2

 Functional: CS1                       Factor:  1.0000

 Generated new metagrid on record  1800.2 with target accuracy 1.0D-06 and 30796 points in CPU time    0.7
 Computed new grid on record 1800.1 in CPU time    0.7
   61197 words reserved for DFT integration

 PROGRAM * UKS-SCF (Unrestricted Kohn-Sham)     Authors: W. Meyer, H.-J. Werner, P.J. Knowles, 1993

 NUMBER OF ELECTRONS:      13+   13-    SPACE SYMMETRY=1    SPIN SYMMETRY: Singlet 
 CONVERGENCE THRESHOLDS:    1.00E-05 (Density)    1.00E-06 (Energy)
 MAX. NUMBER OF ITERATIONS:       60
 INTERPOLATION TYPE:            DIIS
 INTERPOLATION STEPS:              2 (START)      1 (STEP)
 LEVEL SHIFTS:                 -0.20 (ALPHA)  -0.20 (BETA) 



 Use fine grid record 1800.2 for energy threshold  1.0D-06
 Orbital guess generated from atomic densities. Full valence occupancy:   13

 Molecular orbital dump at record        2200.2

 Initial alpha occupation  13
 Initial beta  occupation  13

 ITERATION    DDIFF          GRAD             ENERGY        2-EL.EN.            DIPOLE MOMENTS         DIIS
    1      0.000D+00      0.000D+00      -133.73808100    275.018936   -2.29871   -3.35596    0.00000    0
    2      0.156D+00      0.205D-01      -133.52313790    315.370476   -0.30240    1.43243    0.00000    1
    3      0.350D-01      0.262D-01      -134.64710901    296.930998   -0.60893   -0.13739    0.00000    2
    4      0.646D-02      0.213D-02      -134.65891284    294.859797   -0.64739   -0.22933    0.00000    3
    5      0.520D-02      0.868D-03      -134.66169285    295.320503   -0.62823   -0.22934    0.00000    4
    6      0.712D-02      0.314D-03      -134.66307986    295.325883   -0.57675   -0.17828    0.00000    5
    7      0.268D-02      0.105D-03      -134.66324122    295.388637   -0.56836   -0.17277   -0.00000    6
    8      0.681D-03      0.379D-04      -134.66325382    295.398971   -0.56204   -0.16823    0.00000    7
    9      0.168D-03      0.191D-04      -134.66325567    295.404512   -0.56156   -0.16788    0.00000    6
   10      0.176D-03      0.903D-05      -134.66325643    295.406948   -0.56086   -0.16740   -0.00000    7
   11      0.407D-04      0.191D-05      -134.66325648    295.406016   -0.56100   -0.16770    0.00000    8
   12      0.642D-05      0.507D-06      -134.66325648    295.406076   -0.56098   -0.16761    0.00000    8
   13      0.218D-05      0.134D-06      -134.66325648    295.406133   -0.56097   -0.16760   -0.00000    7

 Final alpha occupancy:  13
 Final beta  occupancy:  13

 !UKS STATE 1.1 Energy               -134.663256482193
 Nuclear energy                        81.60955194
 One-electron energy                 -363.15375910
 Two-electron energy                  147.70306673
 Density functional                    -0.82211604     CS1=-0.82211604
 Virial quotient                       -0.93220233
 !UKS STATE 1.1 Dipole moment          -0.56097108    -0.16760187    -0.00000000
 Dipole moment /Debye                  -1.42575288    -0.42597356    -0.00000000

 Orbital energies for positive spin:

         1.1          2.1          3.1          4.1          5.1          6.1          7.1          8.1          9.1         10.1
    -16.573422    -8.217985    -8.187300    -0.541119    -0.335862    -0.205436    -0.163857    -0.127201    -0.057800    -0.038250

        11.1         12.1         13.1         14.1         15.1
     -0.016162     0.035029     0.099949     0.181926     0.220374

 Orbital energies for negative spin:

         1.1          2.1          3.1          4.1          5.1          6.1          7.1          8.1          9.1         10.1
    -16.573422    -8.217985    -8.187300    -0.541119    -0.335862    -0.205436    -0.163857    -0.127201    -0.057800    -0.038250

        11.1         12.1         13.1         14.1         15.1
     -0.016162     0.035029     0.099949     0.181926     0.220374

 HOMO     13.1     0.099949 =       2.7197eV
 LUMO     14.1     0.181926 =       4.9505eV
 LUMO-HOMO         0.081977 =       2.2307eV

 EXPECTATION VALUE OF S**2:            -0.00000000

 Natural orbitals saved to record    2200.2 (Orbital set 3)

 Orbital spaces for UNO-CAS (Min. occupation: 0.020  Max. occupation: 1.980):

 Closed:       13
 Active:        0


 **********************************************************************************************************************************
 DATASETS  * FILE   NREC   LENGTH (MB)   RECORD NAMES
              1      20       43.59       500      610      700      900      950      970     1000      129      960     1100   
                                          VAR    BASINP    GEOM    SYMINP    ZMAT    AOBASIS   BASIS     P2S    ABASIS      S 
                                         1400     1410     1200     1210     1080     1600     1650     1300     1700     1800   
                                           T        V       H0       H01     AOSYM     SMH    MOLCAS    ERIS     OPER     GRID   

              2       5        3.11       700     1000      520     1800     2200   
                                         GEOM     BASIS   MCVARS    GRID      UKS  

 PROGRAMS   *        TOTAL       UKS       INT
 CPU TIMES  *        13.94     13.06      0.74
 REAL TIME  *        16.61 SEC
 DISK USED  *        82.90 MB      
 **********************************************************************************************************************************


 PROGRAM * Intrinsic Basis Bonding Analysis (IBBA)          Author: G. Knizia

 Molecular orbitals read from record     2200.2  Type=UKS/ALPHA (state 1.1)
 Fock matrix read from record            2200.2  Type=UKS/TOTAL (state 1.1)
 Orbital energies read from record       2200.2  Type=UKS/ALPHA (state 1.1)
 Density matrix read from record         2200.2  Type=UKS/CHARGE (state 1.1)

 Number of core orbitals:           3 (   3 )
 Number of closed-shell orbitals:  10 (  10 )

 Basis set MINAO-AUTO-PP generated.      Number of basis functions:   21 

 Polarized AO type:                A = (O Ot + (1-O)(1-Ot)) P12
 Orthogonalization method:         Symmetric (Loewdin)
 Localization functional:          L = sum[A,i] <i|n_A|i>^4 -> max

 Localization group 1:  13 orbitals, occupancy  2.000
 Iterative localization: IB/PM,    7 iter; Final gradient 0.33E-08

 Bond order analysis:       [THRPRINT= 0.020]

   CEN ATOM   CEN ATOM     WIBERG.BO      RENORM.BO
     1   H  -   2   O       0.943013       0.967881

     2   O  -   3   C       1.077838       1.025788
     2   O  -   1   H       0.943013       0.967881
     2   O  -   4   C       0.057443       0.033853
     2   O  -   7   H       0.055924       0.029529
     2   O  -   6   H       0.055924       0.029529
     2   O  -   5   H       0.024908       0.018773

     3   C  -   2   O       1.077838       1.025788
     3   C  -   4   C       1.042244       1.034342
     3   C  -   7   H       0.906495       0.867601
     3   C  -   6   H       0.906495       0.867601

     4   C  -   3   C       1.042244       1.034342
     4   C  -   5   H       0.948796       0.966943
     4   C  -   8   H       0.946060       0.948914
     4   C  -   9   H       0.946060       0.948914
     4   C  -   2   O       0.057443       0.033853

     5   H  -   4   C       0.948796       0.966943
     5   H  -   2   O       0.024908       0.018773

     6   H  -   3   C       0.906495       0.867601
     6   H  -   2   O       0.055924       0.029529
     6   H  -   9   H       0.031855       0.032549

     7   H  -   3   C       0.906495       0.867601
     7   H  -   2   O       0.055924       0.029529
     7   H  -   8   H       0.031855       0.032549

     8   H  -   4   C       0.946060       0.948914
     8   H  -   7   H       0.031855       0.032549

     9   H  -   4   C       0.946060       0.948914
     9   H  -   6   H       0.031855       0.032549


 Valency analysis:

   CEN ATOM   TOT.VALENCE
     1   H       0.971759
     2   O       2.230394
     3   C       3.946743
     4   C       3.963877
     5   H       0.997401
     6   H       0.999603
     7   H       0.999603
     8   H       0.998365
     9   H       0.998365

 Total charge composition:

   CEN ATOM         s          p       ELECTRONS ->P.CHARGE
     1   H       0.83195                 0.83195    0.16805
     2   O       3.52234    4.68400      8.20634   -0.20634
     3   C       2.86678    3.03047      5.89725    0.10275
     4   C       2.89492    3.26153      6.15645   -0.15645
     5   H       0.94902                 0.94902    0.05098
     6   H       1.01993                 1.01993   -0.01993
     7   H       1.01993                 1.01993   -0.01993
     8   H       0.95957                 0.95957    0.04043
     9   H       0.95957                 0.95957    0.04043

 Total charge composition, AO contributions:

   CEN ATOM SHL      SPHERICAL COMPONENTS
     1   H  1s       0.83195

     2   O  1s       1.99889
     2   O  2s       1.52345
     2   O  2p       1.29826    1.48675    1.89899

     3   C  1s       1.99814
     3   C  2s       0.86863
     3   C  2p       1.04272    0.89637    1.09138

     4   C  1s       1.99782
     4   C  2s       0.89711
     4   C  2p       1.05276    1.09857    1.11020

     5   H  1s       0.94902

     6   H  1s       1.01993

     7   H  1s       1.01993

     8   H  1s       0.95957

     9   H  1s       0.95957

 Summary of localized orbital composition:   [THRPRINT= 0.020]

   ORB  GRP  ORB.ENERGY      CENTERS/CHARGES
     1   1   -16.486689      O  2   2.000
     2   1    -8.145112      C  3   2.000
     3   1    -8.107599      C  4   2.000
     4   1    -0.356729      O  2   1.186   C  3   0.807
     5   1    -0.322876      O  2   1.167   H  1   0.818
     6   1    -0.214774      C  4   1.003   C  3   0.986
     7   1    -0.140536      C  3   0.997   H  7   0.983
     8   1    -0.140536      C  3   0.997   H  6   0.983
     9   1    -0.132293      C  4   1.037   H  5   0.935   (other: 0.028)
    10   1    -0.131638      C  4   1.036   H  8   0.943   (other: 0.021)
    11   1    -0.131638      C  4   1.036   H  9   0.943   (other: 0.021)
    12   1    -0.087393      O  2   1.947   (other: 0.053)
    13   1     0.068413      O  2   1.899   C  3   0.046   H  7   0.022   H  6   0.022

 Localized orbitals saved to record      2200.2  (orbital set 4)


 **********************************************************************************************************************************
 DATASETS  * FILE   NREC   LENGTH (MB)   RECORD NAMES
              1      20       43.59       500      610      700      900      950      970     1000      129      960     1100   
                                          VAR    BASINP    GEOM    SYMINP    ZMAT    AOBASIS   BASIS     P2S    ABASIS      S 
                                         1400     1410     1200     1210     1080     1600     1650     1300     1700     1800   
                                           T        V       H0       H01     AOSYM     SMH    MOLCAS    ERIS     OPER     GRID   

              2       5        3.15       700     1000      520     1800     2200   
                                         GEOM     BASIS   MCVARS    GRID      UKS  

 PROGRAMS   *        TOTAL      IBBA       UKS       INT
 CPU TIMES  *        13.97      0.02     13.06      0.74
 REAL TIME  *        16.71 SEC
 DISK USED  *        82.90 MB      
 **********************************************************************************************************************************
 Molecular orbitals read from record     2200.2  Type=UKS/LOCAL(IBO)  
 Occupation numbers read from record     2200.2  Type=UKS/LOCAL(IBO)  
 Orbital energies read from record       2200.2  Type=UKS/LOCAL(IBO)  
 Redundancy group numbers read from rec  2200.2  Type=UKS/BETA (state 1.1)

 IBBA/SVP energy=      0.000000000000

        UKS-SCF 
   -134.66325648
 **********************************************************************************************************************************
 Molpro calculation terminated
