
 Primary working directories    : /tmp/sb13343
 Secondary working directories  : /tmp/sb13343
 Wavefunction directory         : /panfs/panasas01/chem/sb13343/wfu/
 Main file repository           : /tmp/sb13343/

 SHA1      : b4a5b34a9e711420743f49e6833241d17c61fb3c
 NAME      : 2099.9.b4a5b34
 ARCHNAME  : linux/x86_64_openmp
 FC        : /cm/shared/languages/GCC-6.1/bin/gfortran
 BLASLIB   : -lblas
 id        : simonbennie

 Nodes     nprocs
 node32-027    1

 Using customized tuning parameters: mindgm=1; mindgv=20; mindgc=4; mindgr=1; noblas=0; minvec=7
 default implementation of scratch files=df  

 memory,500,m
 geomtyp=xyz
 nosym
 noorient
 geometry={
 H         -1.81763       -0.80620        0.00000
 O         -0.85078       -0.87151        0.00000
 C         -0.32298        0.45206        0.00000
 C          1.19308        0.34760        0.00000
 H          1.64898        1.34394        0.00000
 H         -0.66062        1.01252       -0.88753
 H         -0.66062        1.01252        0.88753
 H          1.53777       -0.19434       -0.88682
 H          1.53777       -0.19434        0.88682
 }
 basis={ default,svp }
 {ks,HFS,direct;wf,26,1,0}
 {ibba,bonds=1}

 Variables initialized (895), CPU time= 0.00 sec
 Commands  initialized (725), CPU time= 0.01 sec, 591 directives.
 Default parameters read. Elapsed time= 0.08 sec

 Checking input...
 Passed
1


                                         ***  PROGRAM SYSTEM MOLPRO  ***
                                       Copyright, TTI GmbH Stuttgart, 2015
                                    Version 2099.9 linked May 26 2017 16:03:21


 **********************************************************************************************************************************
 LABEL *                                                                                 
  64 bit serial version                                                                  DATE: 08-Jun-17          TIME: 11:53:51  
 **********************************************************************************************************************************

 SHA1:             b4a5b34a9e711420743f49e6833241d17c61fb3c
 **********************************************************************************************************************************
 SETTING GEOMTYP        =    XYZ

 Variable memory set to  500000000 words,  buffer space 

 ZSYMEL=NOSYM

 SETTING BASIS          =    SVP


 Recomputing integrals since basis changed


 Using spherical harmonics

 Library entry H      S def2-SVP             selected for orbital group  1
 Library entry H      P def2-SVP             selected for orbital group  1
 Library entry O      S def2-SVP             selected for orbital group  2
 Library entry O      P def2-SVP             selected for orbital group  2
 Library entry O      D def2-SVP             selected for orbital group  2
 Library entry C      S def2-SVP             selected for orbital group  3
 Library entry C      P def2-SVP             selected for orbital group  3
 Library entry C      D def2-SVP             selected for orbital group  3


 PROGRAM * SEWARD (Integral evaluation for generally contracted gaussian basis sets)     Author: Roland Lindh, 1990

 Geometry written to block  1 of record 700


 Point group  C1  



 ATOMIC COORDINATES

 NR  ATOM    CHARGE       X              Y              Z

   1  H       1.00   -3.434822896   -1.523497202    0.000000000
   2  O       8.00   -1.607741192   -1.646915215    0.000000000
   3  C       6.00   -0.610343744    0.854269592    0.000000000
   4  C       6.00    2.254594445    0.656868801    0.000000000
   5  H       1.00    3.116120585    2.539678528    0.000000000
   6  H       1.00   -1.248390872    1.913385496   -1.677188627
   7  H       1.00   -1.248390872    1.913385496    1.677188627
   8  H       1.00    2.905964143   -0.367249375   -1.675846922
   9  H       1.00    2.905964143   -0.367249375    1.675846922

 Bond lengths in Bohr (Angstrom)

 1-2  1.831245357  2-3  2.692717421  3-4  2.871730819  3-6  2.083696794  3-7  2.083696794
     ( 0.969053311)     ( 1.424924694)     ( 1.519654505)     ( 1.102644858)     ( 1.102644858)

 4-5  2.070555423  4-8  2.069193908  4-9  2.069193908
     ( 1.095690744)     ( 1.094970261)     ( 1.094970261)

 Bond angles

  1-2-3  107.87621325   2-3-4  107.79904962   2-3-6  111.02105480   2-3-7  111.02105480

  3-4-5  110.64605443   3-4-8  110.36936729   3-4-9  110.36936729   4-3-6  109.90272099

  4-3-7  109.90272099   5-4-8  108.60711935   5-4-9  108.60711935   6-3-7  107.20315121

  8-4-9  108.17296435

 NUCLEAR CHARGE:                   26
 NUMBER OF PRIMITIVE AOS:         117
 NUMBER OF SYMMETRY AOS:          114
 NUMBER OF CONTRACTIONS:           72   (  72A   )
 NUMBER OF CORE ORBITALS:           3   (   3A   )
 NUMBER OF VALENCE ORBITALS:       18   (  18A   )


 NUCLEAR REPULSION ENERGY   81.60955194


 Eigenvalues of metric

         1 0.375E-02 0.159E-01 0.292E-01 0.324E-01 0.398E-01 0.436E-01 0.556E-01 0.658E-01


 Contracted 2-electron integrals neglected if value below      1.0D-11
 AO integral compression algorithm  1   Integral accuracy      1.0D-11

     14.418 MB (compressed) written to integral file ( 45.7%)


 NUMBER OF SORTED TWO-ELECTRON INTEGRALS:    3454506.     BUFFER LENGTH:  32768
 NUMBER OF SEGMENTS:   1  SEGMENT LENGTH:    3454506      RECORD LENGTH: 524288

 Memory used in sort:       4.01 MW

 SORT1 READ     3945093. AND WROTE     2928993. INTEGRALS IN      9 RECORDS. CPU TIME:     0.04 SEC, REAL TIME:     0.10 SEC
 SORT2 READ     2928993. AND WROTE     3454506. INTEGRALS IN     55 RECORDS. CPU TIME:     0.12 SEC, REAL TIME:     0.15 SEC

 FILE SIZES:   FILE 1:    44.7 MBYTE,  FILE 4:    37.8 MBYTE,   TOTAL:     82.5 MBYTE

 OPERATOR DM      FOR CENTER  0  COORDINATES:    0.000000    0.000000    0.000000


 **********************************************************************************************************************************
 DATASETS  * FILE   NREC   LENGTH (MB)   RECORD NAMES
              1      19       42.60       500      610      700      900      950      970     1000      129      960     1100   
                                          VAR    BASINP    GEOM    SYMINP    ZMAT    AOBASIS   BASIS     P2S    ABASIS      S 
                                         1400     1410     1200     1210     1080     1600     1650     1300     1700   
                                           T        V       H0       H01     AOSYM     SMH    MOLCAS    ERIS     OPER   

 PROGRAMS   *        TOTAL       INT
 CPU TIMES  *         0.93      0.79
 REAL TIME  *         1.45 SEC
 DISK USED  *        82.90 MB      
 **********************************************************************************************************************************

 Density functional group HFS=DIRAC
 Functional: DIRAC(Automatically generated (new) DIRAC)                        Gradient terms: 0
 Use grid at  1800.2

 Functional: DIRAC                     Factor:  1.0000

 Generated new metagrid on record  1800.2 with target accuracy 1.0D-06 and 30796 points in CPU time    0.7
 Computed new grid on record 1800.1 in CPU time    0.8
   33765 words reserved for DFT integration

 PROGRAM * RKS-SCF (Restricted closed shell Kohn-Sham)     Authors: W. Meyer, H.-J. Werner, P.J. Knowles, 1993

 NUMBER OF ELECTRONS:      13+   13-    SPACE SYMMETRY=1    SPIN SYMMETRY: Singlet 
 CONVERGENCE THRESHOLDS:    1.00E-05 (Density)    1.00E-06 (Energy)
 MAX. NUMBER OF ITERATIONS:       60
 INTERPOLATION TYPE:            DIIS
 INTERPOLATION STEPS:              2 (START)      1 (STEP)
 LEVEL SHIFTS:                  0.00 (CLOSED)  0.00 (OPEN) 



 Use fine grid record 1800.2 for energy threshold  1.0D-06
 Orbital guess generated from atomic densities. Full valence occupancy:   13

 Molecular orbital dump at record        2100.2

 Initial occupancy:  13

 ITERATION    DDIFF          GRAD             ENERGY        2-EL.EN.            DIPOLE MOMENTS         DIIS   ORB.
    1      0.000D+00      0.000D+00      -151.79599976    321.925540   -0.60990    0.81597   -0.00000    0    start
    2      0.000D+00      0.142D-01      -151.52158314    295.224337   -0.06952   -0.45225    0.00000    1    diag
    3      0.387D-01      0.238D-01      -151.95537267    312.210867   -0.39226    0.54595   -0.00000    2    diag
    4      0.269D-01      0.198D-02      -151.95689858    311.807755   -0.39732    0.38207   -0.00000    3    diag
    5      0.236D-02      0.121D-02      -151.95779880    311.785545   -0.39046    0.42261   -0.00000    4    diag
    6      0.957D-03      0.157D-03      -151.95781285    311.807970   -0.39148    0.42809   -0.00000    5    diag
    7      0.146D-03      0.559D-04      -151.95781499    311.803173   -0.39227    0.42740   -0.00000    6    diag
    8      0.513D-04      0.148D-04      -151.95781515    311.808783   -0.39194    0.42705   -0.00000    7    diag
    9      0.139D-04      0.229D-05      -151.95781516    311.809218   -0.39203    0.42729   -0.00000    8    diag
   10      0.265D-05      0.172D-06      -151.95781516    311.809223   -0.39202    0.42725   -0.00000    0    orth

 Final occupancy:  13

 !RKS STATE 1.1 Energy               -151.957815157848
 Nuclear energy                        81.60955194
 One-electron energy                 -370.86647047
 Two-electron energy                  155.90461163
 Density functional                   -18.60550826     DIRAC=-18.60550826
 Virial quotient                       -0.99649115
 !RKS STATE 1.1 Dipole moment          -0.39202370     0.42725118    -0.00000000
 Dipole moment /Debye                  -0.99635959     1.08589304    -0.00000000

 Orbital energies:

         1.1          2.1          3.1          4.1          5.1          6.1          7.1          8.1          9.1         10.1
    -18.520241    -9.749294    -9.698446    -0.851023    -0.613222    -0.484178    -0.412249    -0.361665    -0.303394    -0.284925

        11.1         12.1         13.1         14.1         15.1
     -0.263808    -0.227841    -0.162010     0.061285     0.095175

 HOMO     13.1    -0.162010 =      -4.4085eV
 LUMO     14.1     0.061285 =       1.6676eV
 LUMO-HOMO         0.223295 =       6.0762eV


 **********************************************************************************************************************************
 DATASETS  * FILE   NREC   LENGTH (MB)   RECORD NAMES
              1      20       43.59       500      610      700      900      950      970     1000      129      960     1100   
                                          VAR    BASINP    GEOM    SYMINP    ZMAT    AOBASIS   BASIS     P2S    ABASIS      S 
                                         1400     1410     1200     1210     1080     1600     1650     1300     1700     1800   
                                           T        V       H0       H01     AOSYM     SMH    MOLCAS    ERIS     OPER     GRID   

              2       5        3.00       700     1000      520     1800     2100   
                                         GEOM     BASIS   MCVARS    GRID      RKS  

 PROGRAMS   *        TOTAL        KS       INT
 CPU TIMES  *         3.72      2.78      0.79
 REAL TIME  *         4.35 SEC
 DISK USED  *        82.90 MB      
 **********************************************************************************************************************************


 PROGRAM * Intrinsic Basis Bonding Analysis (IBBA)          Author: G. Knizia

 Molecular orbitals read from record     2100.2  Type=RKS/CANONICAL (state 1.1)
 Fock matrix read from record            2100.2  Type=RKS/TOTAL (state 1.1)
 Orbital energies read from record       2100.2  Type=RKS/CANONICAL (state 1.1)
 Density matrix read from record         2100.2  Type=RKS/CHARGE (state 1.1)

 Number of core orbitals:           3 (   3 )
 Number of closed-shell orbitals:  10 (  10 )

 Basis set MINAO-AUTO-PP generated.      Number of basis functions:   21 

 Polarized AO type:                A = (O Ot + (1-O)(1-Ot)) P12
 Orthogonalization method:         Symmetric (Loewdin)
 Localization functional:          L = sum[A,i] <i|n_A|i>^4 -> max

 Localization group 1:  13 orbitals, occupancy  2.000
 Iterative localization: IB/PM,    7 iter; Final gradient 0.70E-09

 Bond order analysis:       [THRPRINT= 0.020]

   CEN ATOM   CEN ATOM     WIBERG.BO      RENORM.BO
     1   H  -   2   O       0.874721       0.984270

     2   O  -   3   C       0.988390       0.996768
     2   O  -   1   H       0.874721       0.984270
     2   O  -   7   H       0.031758       0.018486
     2   O  -   6   H       0.031758       0.018486
     2   O  -   4   C       0.021466       0.011749

     3   C  -   4   C       1.031176       1.018989
     3   C  -   2   O       0.988390       0.996768
     3   C  -   6   H       0.936128       0.926710
     3   C  -   7   H       0.936128       0.926710

     4   C  -   3   C       1.031176       1.018989
     4   C  -   5   H       0.956000       0.986992
     4   C  -   8   H       0.952920       0.977259
     4   C  -   9   H       0.952920       0.977259
     4   C  -   2   O       0.021466       0.011749

     5   H  -   4   C       0.956000       0.986992

     6   H  -   3   C       0.936128       0.926710
     6   H  -   2   O       0.031758       0.018486

     7   H  -   3   C       0.936128       0.926710
     7   H  -   2   O       0.031758       0.018486

     8   H  -   4   C       0.952920       0.977259

     9   H  -   4   C       0.952920       0.977259


 Valency analysis:

   CEN ATOM   TOT.VALENCE
     1   H       0.890061
     2   O       1.967600
     3   C       3.899511
     4   C       3.928451
     5   H       0.980103
     6   H       0.988040
     7   H       0.988040
     8   H       0.979073
     9   H       0.979073

 Total charge composition:

   CEN ATOM         s          p       ELECTRONS ->P.CHARGE
     1   H       0.66843                 0.66843    0.33157
     2   O       3.61348    4.89495      8.50842   -0.50842
     3   C       2.97003    3.08244      6.05246   -0.05246
     4   C       3.00767    3.41212      6.41979   -0.41979
     5   H       0.85894                 0.85894    0.14106
     6   H       0.89064                 0.89064    0.10936
     7   H       0.89064                 0.89064    0.10936
     8   H       0.85534                 0.85534    0.14466
     9   H       0.85534                 0.85534    0.14466

 Total charge composition, AO contributions:

   CEN ATOM SHL      SPHERICAL COMPONENTS
     1   H  1s       0.66843

     2   O  1s       1.99732
     2   O  2s       1.61616
     2   O  2p       1.42627    1.51534    1.95334

     3   C  1s       1.99310
     3   C  2s       0.97692
     3   C  2p       1.03785    0.87683    1.16775

     4   C  1s       1.99215
     4   C  2s       1.01551
     4   C  2p       1.05742    1.17120    1.18350

     5   H  1s       0.85894

     6   H  1s       0.89064

     7   H  1s       0.89064

     8   H  1s       0.85534

     9   H  1s       0.85534

 Summary of localized orbital composition:   [THRPRINT= 0.020]

   ORB  GRP  ORB.ENERGY      CENTERS/CHARGES
     1   1   -18.387221      O  2   2.000
     2   1    -9.651945      C  3   2.000
     3   1    -9.590265      C  4   2.000
     4   1    -0.632408      O  2   1.329   H  1   0.661
     5   1    -0.622080      O  2   1.248   C  3   0.746
     6   1    -0.477747      C  3   1.001   C  4   0.990
     7   1    -0.406328      C  3   1.123   H  6   0.867
     8   1    -0.406328      C  3   1.123   H  7   0.867
     9   1    -0.403584      O  2   1.976   (other: 0.024)
    10   1    -0.392453      C  4   1.131   H  5   0.851
    11   1    -0.386054      C  4   1.141   H  9   0.847
    12   1    -0.386054      C  4   1.141   H  8   0.847
    13   1    -0.189828      O  2   1.953   (other: 0.047)

 Localized orbitals saved to record      2100.2  (orbital set 2)


 **********************************************************************************************************************************
 DATASETS  * FILE   NREC   LENGTH (MB)   RECORD NAMES
              1      20       43.59       500      610      700      900      950      970     1000      129      960     1100   
                                          VAR    BASINP    GEOM    SYMINP    ZMAT    AOBASIS   BASIS     P2S    ABASIS      S 
                                         1400     1410     1200     1210     1080     1600     1650     1300     1700     1800   
                                           T        V       H0       H01     AOSYM     SMH    MOLCAS    ERIS     OPER     GRID   

              2       5        3.04       700     1000      520     1800     2100   
                                         GEOM     BASIS   MCVARS    GRID      RKS  

 PROGRAMS   *        TOTAL      IBBA        KS       INT
 CPU TIMES  *         3.75      0.03      2.78      0.79
 REAL TIME  *         4.44 SEC
 DISK USED  *        82.90 MB      
 **********************************************************************************************************************************
 Molecular orbitals read from record     2100.2  Type=RKS/LOCAL(IBO)  
 Occupation numbers read from record     2100.2  Type=RKS/LOCAL(IBO)  
 Orbital energies read from record       2100.2  Type=RKS/LOCAL(IBO)  
 Redundancy group numbers read from rec  2100.2  Type=RKS/LOCAL(IBO)  

 IBBA/SVP energy=      0.000000000000

        KS-SCF  
   -151.95781516
 **********************************************************************************************************************************
 Molpro calculation terminated
