
 Primary working directories    : /tmp/sb13343
 Secondary working directories  : /tmp/sb13343
 Wavefunction directory         : /panfs/panasas01/chem/sb13343/wfu/
 Main file repository           : /tmp/sb13343/

 SHA1      : b4a5b34a9e711420743f49e6833241d17c61fb3c
 NAME      : 2099.9.b4a5b34
 ARCHNAME  : linux/x86_64_openmp
 FC        : /cm/shared/languages/GCC-6.1/bin/gfortran
 BLASLIB   : -lblas
 id        : simonbennie

 Nodes     nprocs
 node32-034    1

 Using customized tuning parameters: mindgm=1; mindgv=20; mindgc=4; mindgr=1; noblas=0; minvec=7
 default implementation of scratch files=df  

 memory,500,m
 geomtyp=xyz
 nosym
 noorient
 geometry={
 H         -1.81763       -0.80620        0.00000
 O         -0.85078       -0.87151        0.00000
 C         -0.32298        0.45206        0.00000
 C          1.19308        0.34760        0.00000
 H          1.64898        1.34394        0.00000
 H         -0.66062        1.01252       -0.88753
 H         -0.66062        1.01252        0.88753
 H          1.53777       -0.19434       -0.88682
 H          1.53777       -0.19434        0.88682
 }
 basis={ default,svp }
 {ks,SOGGA,direct;wf,26,1,0}
 {ibba,bonds=1}

 Variables initialized (895), CPU time= 0.00 sec
 Commands  initialized (725), CPU time= 0.01 sec, 591 directives.
 Default parameters read. Elapsed time= 0.08 sec

 Checking input...
 Passed
1


                                         ***  PROGRAM SYSTEM MOLPRO  ***
                                       Copyright, TTI GmbH Stuttgart, 2015
                                    Version 2099.9 linked May 26 2017 16:03:21


 **********************************************************************************************************************************
 LABEL *                                                                                 
  64 bit serial version                                                                  DATE: 08-Jun-17          TIME: 12:05:03  
 **********************************************************************************************************************************

 SHA1:             b4a5b34a9e711420743f49e6833241d17c61fb3c
 **********************************************************************************************************************************
 SETTING GEOMTYP        =    XYZ

 Variable memory set to  500000000 words,  buffer space 

 ZSYMEL=NOSYM

 SETTING BASIS          =    SVP


 Recomputing integrals since basis changed


 Using spherical harmonics

 Library entry H      S def2-SVP             selected for orbital group  1
 Library entry H      P def2-SVP             selected for orbital group  1
 Library entry O      S def2-SVP             selected for orbital group  2
 Library entry O      P def2-SVP             selected for orbital group  2
 Library entry O      D def2-SVP             selected for orbital group  2
 Library entry C      S def2-SVP             selected for orbital group  3
 Library entry C      P def2-SVP             selected for orbital group  3
 Library entry C      D def2-SVP             selected for orbital group  3


 PROGRAM * SEWARD (Integral evaluation for generally contracted gaussian basis sets)     Author: Roland Lindh, 1990

 Geometry written to block  1 of record 700


 Point group  C1  



 ATOMIC COORDINATES

 NR  ATOM    CHARGE       X              Y              Z

   1  H       1.00   -3.434822896   -1.523497202    0.000000000
   2  O       8.00   -1.607741192   -1.646915215    0.000000000
   3  C       6.00   -0.610343744    0.854269592    0.000000000
   4  C       6.00    2.254594445    0.656868801    0.000000000
   5  H       1.00    3.116120585    2.539678528    0.000000000
   6  H       1.00   -1.248390872    1.913385496   -1.677188627
   7  H       1.00   -1.248390872    1.913385496    1.677188627
   8  H       1.00    2.905964143   -0.367249375   -1.675846922
   9  H       1.00    2.905964143   -0.367249375    1.675846922

 Bond lengths in Bohr (Angstrom)

 1-2  1.831245357  2-3  2.692717421  3-4  2.871730819  3-6  2.083696794  3-7  2.083696794
     ( 0.969053311)     ( 1.424924694)     ( 1.519654505)     ( 1.102644858)     ( 1.102644858)

 4-5  2.070555423  4-8  2.069193908  4-9  2.069193908
     ( 1.095690744)     ( 1.094970261)     ( 1.094970261)

 Bond angles

  1-2-3  107.87621325   2-3-4  107.79904962   2-3-6  111.02105480   2-3-7  111.02105480

  3-4-5  110.64605443   3-4-8  110.36936729   3-4-9  110.36936729   4-3-6  109.90272099

  4-3-7  109.90272099   5-4-8  108.60711935   5-4-9  108.60711935   6-3-7  107.20315121

  8-4-9  108.17296435

 NUCLEAR CHARGE:                   26
 NUMBER OF PRIMITIVE AOS:         117
 NUMBER OF SYMMETRY AOS:          114
 NUMBER OF CONTRACTIONS:           72   (  72A   )
 NUMBER OF CORE ORBITALS:           3   (   3A   )
 NUMBER OF VALENCE ORBITALS:       18   (  18A   )


 NUCLEAR REPULSION ENERGY   81.60955194


 Eigenvalues of metric

         1 0.375E-02 0.159E-01 0.292E-01 0.324E-01 0.398E-01 0.436E-01 0.556E-01 0.658E-01


 Contracted 2-electron integrals neglected if value below      1.0D-11
 AO integral compression algorithm  1   Integral accuracy      1.0D-11

     14.418 MB (compressed) written to integral file ( 45.7%)


 NUMBER OF SORTED TWO-ELECTRON INTEGRALS:    3454506.     BUFFER LENGTH:  32768
 NUMBER OF SEGMENTS:   1  SEGMENT LENGTH:    3454506      RECORD LENGTH: 524288

 Memory used in sort:       4.01 MW

 SORT1 READ     3945093. AND WROTE     2928993. INTEGRALS IN      9 RECORDS. CPU TIME:     0.04 SEC, REAL TIME:     0.08 SEC
 SORT2 READ     2928993. AND WROTE     3454506. INTEGRALS IN     55 RECORDS. CPU TIME:     0.13 SEC, REAL TIME:     0.15 SEC

 FILE SIZES:   FILE 1:    44.7 MBYTE,  FILE 4:    37.8 MBYTE,   TOTAL:     82.5 MBYTE

 OPERATOR DM      FOR CENTER  0  COORDINATES:    0.000000    0.000000    0.000000


 **********************************************************************************************************************************
 DATASETS  * FILE   NREC   LENGTH (MB)   RECORD NAMES
              1      19       42.60       500      610      700      900      950      970     1000      129      960     1100   
                                          VAR    BASINP    GEOM    SYMINP    ZMAT    AOBASIS   BASIS     P2S    ABASIS      S 
                                         1400     1410     1200     1210     1080     1600     1650     1300     1700   
                                           T        V       H0       H01     AOSYM     SMH    MOLCAS    ERIS     OPER   

 PROGRAMS   *        TOTAL       INT
 CPU TIMES  *         0.87      0.73
 REAL TIME  *         1.27 SEC
 DISK USED  *        82.90 MB      
 **********************************************************************************************************************************

 Density functional group SOGGA=XC-SOGGA
 Functional: XC-SOGGA(via MFM 1.6)                                             Gradient terms: 1
 Use grid at  1800.2

 Functional: XC-SOGGA                  Factor:  1.0000

 Generated new metagrid on record  1800.2 with target accuracy 1.0D-06 and 30796 points in CPU time    0.7
 Computed new grid on record 1800.1 in CPU time    0.8
   61197 words reserved for DFT integration

 PROGRAM * RKS-SCF (Restricted closed shell Kohn-Sham)     Authors: W. Meyer, H.-J. Werner, P.J. Knowles, 1993

 NUMBER OF ELECTRONS:      13+   13-    SPACE SYMMETRY=1    SPIN SYMMETRY: Singlet 
 CONVERGENCE THRESHOLDS:    1.00E-05 (Density)    1.00E-06 (Energy)
 MAX. NUMBER OF ITERATIONS:       60
 INTERPOLATION TYPE:            DIIS
 INTERPOLATION STEPS:              2 (START)      1 (STEP)
 LEVEL SHIFTS:                  0.00 (CLOSED)  0.00 (OPEN) 



 Use fine grid record 1800.2 for energy threshold  1.0D-06
 Orbital guess generated from atomic densities. Full valence occupancy:   13

 Molecular orbital dump at record        2100.2

 Initial occupancy:  13

 ITERATION    DDIFF          GRAD             ENERGY        2-EL.EN.            DIPOLE MOMENTS         DIIS   ORB.
    1      0.000D+00      0.000D+00      -153.81556927    322.658932   -0.59462    0.83328   -0.00000    0    start
    2      0.000D+00      0.141D-01      -153.58842566    297.162420   -0.04570   -0.39150    0.00000    1    diag
    3      0.352D-01      0.226D-01      -153.97022887    312.973520   -0.37887    0.57759   -0.00000    2    diag
    4      0.238D-01      0.199D-02      -153.97205079    312.686224   -0.38120    0.41897   -0.00000    3    diag
    5      0.218D-02      0.105D-02      -153.97274764    312.624128   -0.37360    0.45080   -0.00000    4    diag
    6      0.810D-03      0.140D-03      -153.97275888    312.642329   -0.37453    0.45612   -0.00000    5    diag
    7      0.128D-03      0.480D-04      -153.97276041    312.637464   -0.37528    0.45540   -0.00000    6    diag
    8      0.461D-04      0.149D-04      -153.97276057    312.642495   -0.37491    0.45513   -0.00000    7    diag
    9      0.139D-04      0.236D-05      -153.97276058    312.642651   -0.37501    0.45537   -0.00000    8    diag
   10      0.256D-05      0.196D-06      -153.97276058    312.642514   -0.37499    0.45531   -0.00000    0    orth

 Final occupancy:  13

 !RKS STATE 1.1 Energy               -153.972760578853
 Nuclear energy                        81.60955194
 One-electron energy                 -371.22042884
 Two-electron energy                  156.32125716
 Density functional                   -20.68314083     XC-SOGGA=-20.68314083
 Virial quotient                       -1.00636175
 !RKS STATE 1.1 Dipole moment          -0.37499444     0.45531164    -0.00000000
 Dipole moment /Debye                  -0.95307837     1.15721096    -0.00000000

 Orbital energies:

         1.1          2.1          3.1          4.1          5.1          6.1          7.1          8.1          9.1         10.1
    -18.662450    -9.867266    -9.815452    -0.902139    -0.660497    -0.530507    -0.453993    -0.402308    -0.344549    -0.326744

        11.1         12.1         13.1         14.1         15.1
     -0.305810    -0.270465    -0.204095     0.037348     0.071474

 HOMO     13.1    -0.204095 =      -5.5537eV
 LUMO     14.1     0.037348 =       1.0163eV
 LUMO-HOMO         0.241443 =       6.5700eV


 **********************************************************************************************************************************
 DATASETS  * FILE   NREC   LENGTH (MB)   RECORD NAMES
              1      20       43.59       500      610      700      900      950      970     1000      129      960     1100   
                                          VAR    BASINP    GEOM    SYMINP    ZMAT    AOBASIS   BASIS     P2S    ABASIS      S 
                                         1400     1410     1200     1210     1080     1600     1650     1300     1700     1800   
                                           T        V       H0       H01     AOSYM     SMH    MOLCAS    ERIS     OPER     GRID   

              2       5        3.00       700     1000      520     1800     2100   
                                         GEOM     BASIS   MCVARS    GRID      RKS  

 PROGRAMS   *        TOTAL        KS       INT
 CPU TIMES  *         5.66      4.78      0.73
 REAL TIME  *         6.59 SEC
 DISK USED  *        82.90 MB      
 **********************************************************************************************************************************


 PROGRAM * Intrinsic Basis Bonding Analysis (IBBA)          Author: G. Knizia

 Molecular orbitals read from record     2100.2  Type=RKS/CANONICAL (state 1.1)
 Fock matrix read from record            2100.2  Type=RKS/TOTAL (state 1.1)
 Orbital energies read from record       2100.2  Type=RKS/CANONICAL (state 1.1)
 Density matrix read from record         2100.2  Type=RKS/CHARGE (state 1.1)

 Number of core orbitals:           3 (   3 )
 Number of closed-shell orbitals:  10 (  10 )

 Basis set MINAO-AUTO-PP generated.      Number of basis functions:   21 

 Polarized AO type:                A = (O Ot + (1-O)(1-Ot)) P12
 Orthogonalization method:         Symmetric (Loewdin)
 Localization functional:          L = sum[A,i] <i|n_A|i>^4 -> max

 Localization group 1:  13 orbitals, occupancy  2.000
 Iterative localization: IB/PM,    7 iter; Final gradient 0.37E-09

 Bond order analysis:       [THRPRINT= 0.020]

   CEN ATOM   CEN ATOM     WIBERG.BO      RENORM.BO
     1   H  -   2   O       0.870590       0.984870

     2   O  -   3   C       0.985677       0.997167
     2   O  -   1   H       0.870590       0.984870
     2   O  -   7   H       0.030863       0.018058
     2   O  -   6   H       0.030863       0.018058

     3   C  -   4   C       1.031143       1.018771
     3   C  -   2   O       0.985677       0.997167
     3   C  -   6   H       0.936505       0.928368
     3   C  -   7   H       0.936505       0.928368

     4   C  -   3   C       1.031143       1.018771
     4   C  -   5   H       0.956620       0.987778
     4   C  -   8   H       0.953311       0.978428
     4   C  -   9   H       0.953311       0.978428

     5   H  -   4   C       0.956620       0.987778

     6   H  -   3   C       0.936505       0.928368
     6   H  -   2   O       0.030863       0.018058

     7   H  -   3   C       0.936505       0.928368
     7   H  -   2   O       0.030863       0.018058

     8   H  -   4   C       0.953311       0.978428

     9   H  -   4   C       0.953311       0.978428


 Valency analysis:

   CEN ATOM   TOT.VALENCE
     1   H       0.885493
     2   O       1.955832
     3   C       3.896693
     4   C       3.927455
     5   H       0.979050
     6   H       0.986760
     7   H       0.986760
     8   H       0.977805
     9   H       0.977805

 Total charge composition:

   CEN ATOM         s          p       ELECTRONS ->P.CHARGE
     1   H       0.66161                 0.66161    0.33839
     2   O       3.62335    4.89722      8.52056   -0.52056
     3   C       2.98252    3.07753      6.06005   -0.06005
     4   C       3.02052    3.41009      6.43060   -0.43060
     5   H       0.85526                 0.85526    0.14474
     6   H       0.88494                 0.88494    0.11506
     7   H       0.88494                 0.88494    0.11506
     8   H       0.85102                 0.85102    0.14898
     9   H       0.85102                 0.85102    0.14898

 Total charge composition, AO contributions:

   CEN ATOM SHL      SPHERICAL COMPONENTS
     1   H  1s       0.66161

     2   O  1s       1.99716
     2   O  2s       1.62619
     2   O  2p       1.42925    1.51301    1.95496

     3   C  1s       1.99250
     3   C  2s       0.99003
     3   C  2p       1.03482    0.87406    1.16865

     4   C  1s       1.99149
     4   C  2s       1.02903
     4   C  2p       1.05482    1.17171    1.18356

     5   H  1s       0.85526

     6   H  1s       0.88494

     7   H  1s       0.88494

     8   H  1s       0.85102

     9   H  1s       0.85102

 Summary of localized orbital composition:   [THRPRINT= 0.020]

   ORB  GRP  ORB.ENERGY      CENTERS/CHARGES
     1   1   -18.523600      O  2   2.000
     2   1    -9.767465      C  3   2.000
     3   1    -9.704390      C  4   2.000
     4   1    -0.679228      O  2   1.335   H  1   0.654
     5   1    -0.663772      O  2   1.250   C  3   0.744
     6   1    -0.520709      C  3   1.002   C  4   0.990
     7   1    -0.458219      O  2   1.978   (other: 0.022)
     8   1    -0.450702      C  3   1.129   H  6   0.862
     9   1    -0.450702      C  3   1.129   H  7   0.862
    10   1    -0.436416      C  4   1.135   H  5   0.848
    11   1    -0.429829      C  4   1.145   H  8   0.843
    12   1    -0.429829      C  4   1.145   H  9   0.843
    13   1    -0.231416      O  2   1.955   (other: 0.045)

 Localized orbitals saved to record      2100.2  (orbital set 2)


 **********************************************************************************************************************************
 DATASETS  * FILE   NREC   LENGTH (MB)   RECORD NAMES
              1      20       43.59       500      610      700      900      950      970     1000      129      960     1100   
                                          VAR    BASINP    GEOM    SYMINP    ZMAT    AOBASIS   BASIS     P2S    ABASIS      S 
                                         1400     1410     1200     1210     1080     1600     1650     1300     1700     1800   
                                           T        V       H0       H01     AOSYM     SMH    MOLCAS    ERIS     OPER     GRID   

              2       5        3.04       700     1000      520     1800     2100   
                                         GEOM     BASIS   MCVARS    GRID      RKS  

 PROGRAMS   *        TOTAL      IBBA        KS       INT
 CPU TIMES  *         5.69      0.03      4.78      0.73
 REAL TIME  *         6.67 SEC
 DISK USED  *        82.90 MB      
 **********************************************************************************************************************************
 Molecular orbitals read from record     2100.2  Type=RKS/LOCAL(IBO)  
 Occupation numbers read from record     2100.2  Type=RKS/LOCAL(IBO)  
 Orbital energies read from record       2100.2  Type=RKS/LOCAL(IBO)  
 Redundancy group numbers read from rec  2100.2  Type=RKS/LOCAL(IBO)  

 IBBA/SVP energy=      0.000000000000

        KS-SCF  
   -153.97276058
 **********************************************************************************************************************************
 Molpro calculation terminated
