
 Primary working directories    : /tmp/sb13343
 Secondary working directories  : /tmp/sb13343
 Wavefunction directory         : /panfs/panasas01/chem/sb13343/wfu/
 Main file repository           : /tmp/sb13343/

 SHA1      : b4a5b34a9e711420743f49e6833241d17c61fb3c
 NAME      : 2099.9.b4a5b34
 ARCHNAME  : linux/x86_64_openmp
 FC        : /cm/shared/languages/GCC-6.1/bin/gfortran
 BLASLIB   : -lblas
 id        : simonbennie

 Nodes     nprocs
 node35-006    1

 Using customized tuning parameters: mindgm=1; mindgv=20; mindgc=4; mindgr=1; noblas=0; minvec=7
 default implementation of scratch files=df  

 memory,500,m
 geomtyp=xyz
 nosym
 noorient
 geometry={
 H         -1.81763       -0.80620        0.00000
 O         -0.85078       -0.87151        0.00000
 C         -0.32298        0.45206        0.00000
 C          1.19308        0.34760        0.00000
 H          1.64898        1.34394        0.00000
 H         -0.66062        1.01252       -0.88753
 H         -0.66062        1.01252        0.88753
 H          1.53777       -0.19434       -0.88682
 H          1.53777       -0.19434        0.88682
 }
 basis={ default,svp }
 {uks,VWN,direct;wf,26,1,0}
 {ibba,bonds=1}

 Variables initialized (895), CPU time= 0.01 sec
 Commands  initialized (725), CPU time= 0.01 sec, 591 directives.
 Default parameters read. Elapsed time= 0.08 sec

 Checking input...
 Passed
1


                                         ***  PROGRAM SYSTEM MOLPRO  ***
                                       Copyright, TTI GmbH Stuttgart, 2015
                                    Version 2099.9 linked May 26 2017 16:03:21


 **********************************************************************************************************************************
 LABEL *                                                                                 
  64 bit serial version                                                                  DATE: 08-Jun-17          TIME: 11:51:11  
 **********************************************************************************************************************************

 SHA1:             b4a5b34a9e711420743f49e6833241d17c61fb3c
 **********************************************************************************************************************************
 SETTING GEOMTYP        =    XYZ

 Variable memory set to  500000000 words,  buffer space 

 ZSYMEL=NOSYM

 SETTING BASIS          =    SVP


 Recomputing integrals since basis changed


 Using spherical harmonics

 Library entry H      S def2-SVP             selected for orbital group  1
 Library entry H      P def2-SVP             selected for orbital group  1
 Library entry O      S def2-SVP             selected for orbital group  2
 Library entry O      P def2-SVP             selected for orbital group  2
 Library entry O      D def2-SVP             selected for orbital group  2
 Library entry C      S def2-SVP             selected for orbital group  3
 Library entry C      P def2-SVP             selected for orbital group  3
 Library entry C      D def2-SVP             selected for orbital group  3


 PROGRAM * SEWARD (Integral evaluation for generally contracted gaussian basis sets)     Author: Roland Lindh, 1990

 Geometry written to block  1 of record 700


 Point group  C1  



 ATOMIC COORDINATES

 NR  ATOM    CHARGE       X              Y              Z

   1  H       1.00   -3.434822896   -1.523497202    0.000000000
   2  O       8.00   -1.607741192   -1.646915215    0.000000000
   3  C       6.00   -0.610343744    0.854269592    0.000000000
   4  C       6.00    2.254594445    0.656868801    0.000000000
   5  H       1.00    3.116120585    2.539678528    0.000000000
   6  H       1.00   -1.248390872    1.913385496   -1.677188627
   7  H       1.00   -1.248390872    1.913385496    1.677188627
   8  H       1.00    2.905964143   -0.367249375   -1.675846922
   9  H       1.00    2.905964143   -0.367249375    1.675846922

 Bond lengths in Bohr (Angstrom)

 1-2  1.831245357  2-3  2.692717421  3-4  2.871730819  3-6  2.083696794  3-7  2.083696794
     ( 0.969053311)     ( 1.424924694)     ( 1.519654505)     ( 1.102644858)     ( 1.102644858)

 4-5  2.070555423  4-8  2.069193908  4-9  2.069193908
     ( 1.095690744)     ( 1.094970261)     ( 1.094970261)

 Bond angles

  1-2-3  107.87621325   2-3-4  107.79904962   2-3-6  111.02105480   2-3-7  111.02105480

  3-4-5  110.64605443   3-4-8  110.36936729   3-4-9  110.36936729   4-3-6  109.90272099

  4-3-7  109.90272099   5-4-8  108.60711935   5-4-9  108.60711935   6-3-7  107.20315121

  8-4-9  108.17296435

 NUCLEAR CHARGE:                   26
 NUMBER OF PRIMITIVE AOS:         117
 NUMBER OF SYMMETRY AOS:          114
 NUMBER OF CONTRACTIONS:           72   (  72A   )
 NUMBER OF CORE ORBITALS:           3   (   3A   )
 NUMBER OF VALENCE ORBITALS:       18   (  18A   )


 NUCLEAR REPULSION ENERGY   81.60955194


 Eigenvalues of metric

         1 0.375E-02 0.159E-01 0.292E-01 0.324E-01 0.398E-01 0.436E-01 0.556E-01 0.658E-01


 Contracted 2-electron integrals neglected if value below      1.0D-11
 AO integral compression algorithm  1   Integral accuracy      1.0D-11

     14.418 MB (compressed) written to integral file ( 45.7%)


 NUMBER OF SORTED TWO-ELECTRON INTEGRALS:    3454506.     BUFFER LENGTH:  32768
 NUMBER OF SEGMENTS:   1  SEGMENT LENGTH:    3454506      RECORD LENGTH: 524288

 Memory used in sort:       4.01 MW

 SORT1 READ     3945093. AND WROTE     2928993. INTEGRALS IN      9 RECORDS. CPU TIME:     0.05 SEC, REAL TIME:     0.10 SEC
 SORT2 READ     2928993. AND WROTE     3454506. INTEGRALS IN     55 RECORDS. CPU TIME:     0.12 SEC, REAL TIME:     0.16 SEC

 FILE SIZES:   FILE 1:    44.7 MBYTE,  FILE 4:    37.8 MBYTE,   TOTAL:     82.5 MBYTE

 OPERATOR DM      FOR CENTER  0  COORDINATES:    0.000000    0.000000    0.000000


 **********************************************************************************************************************************
 DATASETS  * FILE   NREC   LENGTH (MB)   RECORD NAMES
              1      19       42.60       500      610      700      900      950      970     1000      129      960     1100   
                                          VAR    BASINP    GEOM    SYMINP    ZMAT    AOBASIS   BASIS     P2S    ABASIS      S 
                                         1400     1410     1200     1210     1080     1600     1650     1300     1700   
                                           T        V       H0       H01     AOSYM     SMH    MOLCAS    ERIS     OPER   

 PROGRAMS   *        TOTAL       INT
 CPU TIMES  *         0.94      0.80
 REAL TIME  *         1.44 SEC
 DISK USED  *        82.90 MB      
 **********************************************************************************************************************************

 Density functional group VWN=VWN5
 Functional: VWN5(Automatically generated (new) VWN5)                          Gradient terms: 0
 Use grid at  1800.2

 Functional: VWN5                      Factor:  1.0000

 Generated new metagrid on record  1800.2 with target accuracy 1.0D-06 and 30796 points in CPU time    0.8
 Computed new grid on record 1800.1 in CPU time    0.8
   33765 words reserved for DFT integration

 PROGRAM * UKS-SCF (Unrestricted Kohn-Sham)     Authors: W. Meyer, H.-J. Werner, P.J. Knowles, 1993

 NUMBER OF ELECTRONS:      13+   13-    SPACE SYMMETRY=1    SPIN SYMMETRY: Singlet 
 CONVERGENCE THRESHOLDS:    1.00E-05 (Density)    1.00E-06 (Energy)
 MAX. NUMBER OF ITERATIONS:       60
 INTERPOLATION TYPE:            DIIS
 INTERPOLATION STEPS:              2 (START)      1 (STEP)
 LEVEL SHIFTS:                 -0.20 (ALPHA)  -0.20 (BETA) 



 Use fine grid record 1800.2 for energy threshold  1.0D-06
 Orbital guess generated from atomic densities. Full valence occupancy:   13

 Molecular orbital dump at record        2200.2

 Initial alpha occupation  13
 Initial beta  occupation  13

 ITERATION    DDIFF          GRAD             ENERGY        2-EL.EN.            DIPOLE MOMENTS         DIIS
    1      0.000D+00      0.000D+00      -134.72342296    277.849189   -1.80660   -2.67492   -0.00000    0
    2      0.117D+00      0.185D-01      -134.61198134    312.627043   -0.42489    1.15180    0.00000    1
    3      0.291D-01      0.226D-01      -135.43830240    296.894872   -0.60878   -0.15959   -0.00000    2
    4      0.466D-02      0.164D-02      -135.44545325    295.329995   -0.62909   -0.20725   -0.00000    3
    5      0.501D-02      0.667D-03      -135.44752071    295.678388   -0.60683   -0.19513   -0.00000    4
    6      0.589D-02      0.255D-03      -135.44848217    295.723718   -0.56345   -0.14963   -0.00000    5
    7      0.202D-02      0.798D-04      -135.44857485    295.767692   -0.55662   -0.14515    0.00000    6
    8      0.425D-03      0.254D-04      -135.44858010    295.774056   -0.55222   -0.14246    0.00000    7
    9      0.104D-03      0.113D-04      -135.44858077    295.777231   -0.55196   -0.14240    0.00000    6
   10      0.946D-04      0.664D-05      -135.44858107    295.778704   -0.55153   -0.14211    0.00000    7
   11      0.319D-04      0.166D-05      -135.44858110    295.777678   -0.55157   -0.14235    0.00000    8
   12      0.486D-05      0.432D-06      -135.44858110    295.777882   -0.55156   -0.14227    0.00000    8
   13      0.147D-05      0.927D-07      -135.44858110    295.777887   -0.55155   -0.14227   -0.00000    7

 Final alpha occupancy:  13
 Final beta  occupancy:  13

 !UKS STATE 1.1 Energy               -135.448581101307
 Nuclear energy                        81.60955194
 One-electron energy                 -363.33870886
 Two-electron energy                  147.88894351
 Density functional                    -1.60836769     VWN5=-1.60836769
 Virial quotient                       -0.93671697
 !UKS STATE 1.1 Dipole moment          -0.55154894    -0.14227117    -0.00000000
 Dipole moment /Debye                  -1.40180575    -0.36159355    -0.00000000

 Orbital energies for positive spin:

         1.1          2.1          3.1          4.1          5.1          6.1          7.1          8.1          9.1         10.1
    -16.622523    -8.269263    -8.238273    -0.565178    -0.359024    -0.227593    -0.183273    -0.147023    -0.076512    -0.057779

        11.1         12.1         13.1         14.1         15.1
     -0.036157     0.016404     0.081570     0.174193     0.211353

 Orbital energies for negative spin:

         1.1          2.1          3.1          4.1          5.1          6.1          7.1          8.1          9.1         10.1
    -16.622523    -8.269263    -8.238273    -0.565178    -0.359024    -0.227593    -0.183273    -0.147023    -0.076512    -0.057779

        11.1         12.1         13.1         14.1         15.1
     -0.036157     0.016404     0.081570     0.174193     0.211353

 HOMO     13.1     0.081570 =       2.2196eV
 LUMO     14.1     0.174193 =       4.7400eV
 LUMO-HOMO         0.092623 =       2.5204eV

 EXPECTATION VALUE OF S**2:            -0.00000000

 Natural orbitals saved to record    2200.2 (Orbital set 3)

 Orbital spaces for UNO-CAS (Min. occupation: 0.020  Max. occupation: 1.980):

 Closed:       13
 Active:        0


 **********************************************************************************************************************************
 DATASETS  * FILE   NREC   LENGTH (MB)   RECORD NAMES
              1      20       43.59       500      610      700      900      950      970     1000      129      960     1100   
                                          VAR    BASINP    GEOM    SYMINP    ZMAT    AOBASIS   BASIS     P2S    ABASIS      S 
                                         1400     1410     1200     1210     1080     1600     1650     1300     1700     1800   
                                           T        V       H0       H01     AOSYM     SMH    MOLCAS    ERIS     OPER     GRID   

              2       5        3.11       700     1000      520     1800     2200   
                                         GEOM     BASIS   MCVARS    GRID      UKS  

 PROGRAMS   *        TOTAL       UKS       INT
 CPU TIMES  *         5.85      4.91      0.80
 REAL TIME  *         7.55 SEC
 DISK USED  *        82.90 MB      
 **********************************************************************************************************************************


 PROGRAM * Intrinsic Basis Bonding Analysis (IBBA)          Author: G. Knizia

 Molecular orbitals read from record     2200.2  Type=UKS/ALPHA (state 1.1)
 Fock matrix read from record            2200.2  Type=UKS/TOTAL (state 1.1)
 Orbital energies read from record       2200.2  Type=UKS/ALPHA (state 1.1)
 Density matrix read from record         2200.2  Type=UKS/CHARGE (state 1.1)

 Number of core orbitals:           3 (   3 )
 Number of closed-shell orbitals:  10 (  10 )

 Basis set MINAO-AUTO-PP generated.      Number of basis functions:   21 

 Polarized AO type:                A = (O Ot + (1-O)(1-Ot)) P12
 Orthogonalization method:         Symmetric (Loewdin)
 Localization functional:          L = sum[A,i] <i|n_A|i>^4 -> max

 Localization group 1:  13 orbitals, occupancy  2.000
 Iterative localization: IB/PM,    7 iter; Final gradient 0.32E-08

 Bond order analysis:       [THRPRINT= 0.020]

   CEN ATOM   CEN ATOM     WIBERG.BO      RENORM.BO
     1   H  -   2   O       0.943292       0.969903

     2   O  -   3   C       1.075299       1.026115
     2   O  -   1   H       0.943292       0.969903
     2   O  -   7   H       0.054731       0.028794
     2   O  -   6   H       0.054731       0.028794
     2   O  -   4   C       0.053668       0.031565
     2   O  -   5   H       0.024097       0.018210

     3   C  -   2   O       1.075299       1.026115
     3   C  -   4   C       1.041452       1.034034
     3   C  -   6   H       0.908840       0.870131
     3   C  -   7   H       0.908840       0.870131

     4   C  -   3   C       1.041452       1.034034
     4   C  -   5   H       0.951323       0.968544
     4   C  -   8   H       0.948338       0.951447
     4   C  -   9   H       0.948338       0.951447
     4   C  -   2   O       0.053668       0.031565

     5   H  -   4   C       0.951323       0.968544
     5   H  -   2   O       0.024097       0.018210

     6   H  -   3   C       0.908840       0.870131
     6   H  -   2   O       0.054731       0.028794
     6   H  -   9   H       0.030890       0.031491

     7   H  -   3   C       0.908840       0.870131
     7   H  -   2   O       0.054731       0.028794
     7   H  -   8   H       0.030890       0.031491

     8   H  -   4   C       0.948338       0.951447
     8   H  -   7   H       0.030890       0.031491

     9   H  -   4   C       0.948338       0.951447
     9   H  -   6   H       0.030890       0.031491


 Valency analysis:

   CEN ATOM   TOT.VALENCE
     1   H       0.970701
     2   O       2.219869
     3   C       3.947404
     4   C       3.965533
     5   H       0.997664
     6   H       0.999561
     7   H       0.999561
     8   H       0.998461
     9   H       0.998461

 Total charge composition:

   CEN ATOM         s          p       ELECTRONS ->P.CHARGE
     1   H       0.82883                 0.82883    0.17117
     2   O       3.52382    4.69116      8.21499   -0.21499
     3   C       2.86859    3.02229      5.89088    0.10912
     4   C       2.89586    3.25434      6.15020   -0.15020
     5   H       0.95167                 0.95167    0.04833
     6   H       1.02095                 1.02095   -0.02095
     7   H       1.02095                 1.02095   -0.02095
     8   H       0.96077                 0.96077    0.03923
     9   H       0.96077                 0.96077    0.03923

 Total charge composition, AO contributions:

   CEN ATOM SHL      SPHERICAL COMPONENTS
     1   H  1s       0.82883

     2   O  1s       1.99888
     2   O  2s       1.52494
     2   O  2p       1.30077    1.48875    1.90164

     3   C  1s       1.99809
     3   C  2s       0.87049
     3   C  2p       1.04056    0.89423    1.08750

     4   C  1s       1.99776
     4   C  2s       0.89811
     4   C  2p       1.05212    1.09558    1.10664

     5   H  1s       0.95167

     6   H  1s       1.02095

     7   H  1s       1.02095

     8   H  1s       0.96077

     9   H  1s       0.96077

 Summary of localized orbital composition:   [THRPRINT= 0.020]

   ORB  GRP  ORB.ENERGY      CENTERS/CHARGES
     1   1   -16.534783      O  2   2.000
     2   1    -8.195823      C  3   2.000
     3   1    -8.157925      C  4   2.000
     4   1    -0.376843      O  2   1.188   C  3   0.805
     5   1    -0.344591      O  2   1.170   H  1   0.816
     6   1    -0.234723      C  4   1.004   C  3   0.986
     7   1    -0.161508      C  3   0.996   H  6   0.985
     8   1    -0.161508      C  3   0.996   H  7   0.985
     9   1    -0.153426      C  4   1.035   H  5   0.938   (other: 0.026)
    10   1    -0.152733      C  4   1.035   H  9   0.945   (other: 0.020)
    11   1    -0.152733      C  4   1.035   H  8   0.945   (other: 0.020)
    12   1    -0.108253      O  2   1.949   (other: 0.051)
    13   1     0.050227      O  2   1.902   C  3   0.045   H  6   0.022   H  7   0.022

 Localized orbitals saved to record      2200.2  (orbital set 4)


 **********************************************************************************************************************************
 DATASETS  * FILE   NREC   LENGTH (MB)   RECORD NAMES
              1      20       43.59       500      610      700      900      950      970     1000      129      960     1100   
                                          VAR    BASINP    GEOM    SYMINP    ZMAT    AOBASIS   BASIS     P2S    ABASIS      S 
                                         1400     1410     1200     1210     1080     1600     1650     1300     1700     1800   
                                           T        V       H0       H01     AOSYM     SMH    MOLCAS    ERIS     OPER     GRID   

              2       5        3.15       700     1000      520     1800     2200   
                                         GEOM     BASIS   MCVARS    GRID      UKS  

 PROGRAMS   *        TOTAL      IBBA       UKS       INT
 CPU TIMES  *         5.88      0.03      4.91      0.80
 REAL TIME  *         7.64 SEC
 DISK USED  *        82.90 MB      
 **********************************************************************************************************************************
 Molecular orbitals read from record     2200.2  Type=UKS/LOCAL(IBO)  
 Occupation numbers read from record     2200.2  Type=UKS/LOCAL(IBO)  
 Orbital energies read from record       2200.2  Type=UKS/LOCAL(IBO)  
 Redundancy group numbers read from rec  2200.2  Type=UKS/BETA (state 1.1)

 IBBA/SVP energy=      0.000000000000

        UKS-SCF 
   -135.44858110
 **********************************************************************************************************************************
 Molpro calculation terminated
