
 Primary working directories    : /tmp/sb13343
 Secondary working directories  : /tmp/sb13343
 Wavefunction directory         : /panfs/panasas01/chem/sb13343/wfu/
 Main file repository           : /tmp/sb13343/

 SHA1      : b4a5b34a9e711420743f49e6833241d17c61fb3c
 NAME      : 2099.9.b4a5b34
 ARCHNAME  : linux/x86_64_openmp
 FC        : /cm/shared/languages/GCC-6.1/bin/gfortran
 BLASLIB   : -lblas
 id        : simonbennie

 Nodes     nprocs
 node32-002    1

 Using customized tuning parameters: mindgm=1; mindgv=20; mindgc=4; mindgr=1; noblas=0; minvec=7
 default implementation of scratch files=df  

 memory,500,m
 geomtyp=xyz
 nosym
 noorient
 geometry={
 H         -1.81763       -0.80620        0.00000
 O         -0.85078       -0.87151        0.00000
 C         -0.32298        0.45206        0.00000
 C          1.19308        0.34760        0.00000
 H          1.64898        1.34394        0.00000
 H         -0.66062        1.01252       -0.88753
 H         -0.66062        1.01252        0.88753
 H          1.53777       -0.19434       -0.88682
 H          1.53777       -0.19434        0.88682
 }
 basis={ default,svp }
 {ks,M11-L,direct;wf,26,1,0}
 {ibba,bonds=1}

 Variables initialized (895), CPU time= 0.00 sec
 Commands  initialized (725), CPU time= 0.02 sec, 591 directives.
 Default parameters read. Elapsed time= 0.12 sec

 Checking input...
 Passed
1


                                         ***  PROGRAM SYSTEM MOLPRO  ***
                                       Copyright, TTI GmbH Stuttgart, 2015
                                    Version 2099.9 linked May 26 2017 16:03:21


 **********************************************************************************************************************************
 LABEL *                                                                                 
  64 bit serial version                                                                  DATE: 08-Jun-17          TIME: 12:05:03  
 **********************************************************************************************************************************

 SHA1:             b4a5b34a9e711420743f49e6833241d17c61fb3c
 **********************************************************************************************************************************
 SETTING GEOMTYP        =    XYZ

 Variable memory set to  500000000 words,  buffer space 

 ZSYMEL=NOSYM

 SETTING BASIS          =    SVP


 Recomputing integrals since basis changed


 Using spherical harmonics

 Library entry H      S def2-SVP             selected for orbital group  1
 Library entry H      P def2-SVP             selected for orbital group  1
 Library entry O      S def2-SVP             selected for orbital group  2
 Library entry O      P def2-SVP             selected for orbital group  2
 Library entry O      D def2-SVP             selected for orbital group  2
 Library entry C      S def2-SVP             selected for orbital group  3
 Library entry C      P def2-SVP             selected for orbital group  3
 Library entry C      D def2-SVP             selected for orbital group  3


 PROGRAM * SEWARD (Integral evaluation for generally contracted gaussian basis sets)     Author: Roland Lindh, 1990

 Geometry written to block  1 of record 700


 Point group  C1  



 ATOMIC COORDINATES

 NR  ATOM    CHARGE       X              Y              Z

   1  H       1.00   -3.434822896   -1.523497202    0.000000000
   2  O       8.00   -1.607741192   -1.646915215    0.000000000
   3  C       6.00   -0.610343744    0.854269592    0.000000000
   4  C       6.00    2.254594445    0.656868801    0.000000000
   5  H       1.00    3.116120585    2.539678528    0.000000000
   6  H       1.00   -1.248390872    1.913385496   -1.677188627
   7  H       1.00   -1.248390872    1.913385496    1.677188627
   8  H       1.00    2.905964143   -0.367249375   -1.675846922
   9  H       1.00    2.905964143   -0.367249375    1.675846922

 Bond lengths in Bohr (Angstrom)

 1-2  1.831245357  2-3  2.692717421  3-4  2.871730819  3-6  2.083696794  3-7  2.083696794
     ( 0.969053311)     ( 1.424924694)     ( 1.519654505)     ( 1.102644858)     ( 1.102644858)

 4-5  2.070555423  4-8  2.069193908  4-9  2.069193908
     ( 1.095690744)     ( 1.094970261)     ( 1.094970261)

 Bond angles

  1-2-3  107.87621325   2-3-4  107.79904962   2-3-6  111.02105480   2-3-7  111.02105480

  3-4-5  110.64605443   3-4-8  110.36936729   3-4-9  110.36936729   4-3-6  109.90272099

  4-3-7  109.90272099   5-4-8  108.60711935   5-4-9  108.60711935   6-3-7  107.20315121

  8-4-9  108.17296435

 NUCLEAR CHARGE:                   26
 NUMBER OF PRIMITIVE AOS:         117
 NUMBER OF SYMMETRY AOS:          114
 NUMBER OF CONTRACTIONS:           72   (  72A   )
 NUMBER OF CORE ORBITALS:           3   (   3A   )
 NUMBER OF VALENCE ORBITALS:       18   (  18A   )


 NUCLEAR REPULSION ENERGY   81.60955194


 Eigenvalues of metric

         1 0.375E-02 0.159E-01 0.292E-01 0.324E-01 0.398E-01 0.436E-01 0.556E-01 0.658E-01


 Contracted 2-electron integrals neglected if value below      1.0D-11
 AO integral compression algorithm  1   Integral accuracy      1.0D-11

     14.418 MB (compressed) written to integral file ( 45.7%)


 NUMBER OF SORTED TWO-ELECTRON INTEGRALS:    3454506.     BUFFER LENGTH:  32768
 NUMBER OF SEGMENTS:   1  SEGMENT LENGTH:    3454506      RECORD LENGTH: 524288

 Memory used in sort:       4.01 MW

 SORT1 READ     3945093. AND WROTE     2928993. INTEGRALS IN      9 RECORDS. CPU TIME:     0.05 SEC, REAL TIME:     0.10 SEC
 SORT2 READ     2928993. AND WROTE     3454506. INTEGRALS IN     55 RECORDS. CPU TIME:     0.12 SEC, REAL TIME:     0.15 SEC

 FILE SIZES:   FILE 1:    44.7 MBYTE,  FILE 4:    37.8 MBYTE,   TOTAL:     82.5 MBYTE

 OPERATOR DM      FOR CENTER  0  COORDINATES:    0.000000    0.000000    0.000000


 **********************************************************************************************************************************
 DATASETS  * FILE   NREC   LENGTH (MB)   RECORD NAMES
              1      19       42.60       500      610      700      900      950      970     1000      129      960     1100   
                                          VAR    BASINP    GEOM    SYMINP    ZMAT    AOBASIS   BASIS     P2S    ABASIS      S 
                                         1400     1410     1200     1210     1080     1600     1650     1300     1700   
                                           T        V       H0       H01     AOSYM     SMH    MOLCAS    ERIS     OPER   

 PROGRAMS   *        TOTAL       INT
 CPU TIMES  *         1.15      0.99
 REAL TIME  *         2.11 SEC
 DISK USED  *        82.90 MB      
 **********************************************************************************************************************************

 Density functional group M11-L=XC-M11-L
 Functional: XC-M11-L(via MFM 1.6)                                             Gradient terms: 1
 Use grid at  1800.2

 Functional: XC-M11-L                  Factor:  1.0000

 Generated new metagrid on record  1800.2 with target accuracy 1.0D-06 and 30796 points in CPU time    0.8
 Computed new grid on record 1800.1 in CPU time    0.8
   61197 words reserved for DFT integration

 PROGRAM * RKS-SCF (Restricted closed shell Kohn-Sham)     Authors: W. Meyer, H.-J. Werner, P.J. Knowles, 1993

 NUMBER OF ELECTRONS:      13+   13-    SPACE SYMMETRY=1    SPIN SYMMETRY: Singlet 
 CONVERGENCE THRESHOLDS:    1.00E-05 (Density)    1.00E-06 (Energy)
 MAX. NUMBER OF ITERATIONS:       60
 INTERPOLATION TYPE:            DIIS
 INTERPOLATION STEPS:              2 (START)      1 (STEP)
 LEVEL SHIFTS:                  0.00 (CLOSED)  0.00 (OPEN) 



 Use fine grid record 1800.2 for energy threshold  1.0D-06
 Orbital guess generated from atomic densities. Full valence occupancy:   13

 Molecular orbital dump at record        2100.2

 Initial occupancy:  13

 ITERATION    DDIFF          GRAD             ENERGY        2-EL.EN.            DIPOLE MOMENTS         DIIS   ORB.
    1      0.000D+00      0.000D+00      -154.70082994    321.955788   -0.56842    0.91986   -0.00000    0    start
    2      0.000D+00      0.130D-01      -154.59498771    300.125397   -0.07087   -0.30428    0.00000    1    diag
    3      0.294D-01      0.178D-01      -154.83992036    312.882388   -0.37462    0.57700   -0.00000    2    diag
    4      0.196D-01      0.123D-02      -154.84059385    312.675546   -0.36689    0.44858    0.00000    3    diag
    5      0.164D-02      0.781D-03      -154.84100753    312.655958   -0.36257    0.48860    0.00000    4    diag
    6      0.673D-03      0.146D-03      -154.84101890    312.652355   -0.36283    0.49051    0.00000    5    diag
    7      0.144D-03      0.493D-04      -154.84102059    312.638578   -0.36336    0.48921    0.00000    6    diag
    8      0.478D-04      0.130D-04      -154.84102072    312.639668   -0.36288    0.48887    0.00000    7    diag
    9      0.121D-04      0.187D-05      -154.84102072    312.639206   -0.36295    0.48906    0.00000    8    diag
   10      0.204D-05      0.275D-06      -154.84102072    312.639139   -0.36295    0.48901    0.00000    0    orth

 Final occupancy:  13

 !RKS STATE 1.1 Energy               -154.841020724862
 Nuclear energy                        81.60955194
 One-electron energy                 -371.13852928
 Two-electron energy                  156.31956933
 Density functional                   -21.63161271     XC-M11-L=-21.63161271
 Virial quotient                       -1.00574019
 !RKS STATE 1.1 Dipole moment          -0.36294521     0.48900765     0.00000000
 Dipole moment /Debye                  -0.92245429     1.24285208     0.00000000

 Orbital energies:

         1.1          2.1          3.1          4.1          5.1          6.1          7.1          8.1          9.1         10.1
    -19.373938   -10.409226   -10.352853    -1.018889    -0.719730    -0.577808    -0.487455    -0.427147    -0.379620    -0.354779

        11.1         12.1         13.1         14.1         15.1
     -0.334157    -0.310587    -0.247044     0.009861     0.048003

 HOMO     13.1    -0.247044 =      -6.7224eV
 LUMO     14.1     0.009861 =       0.2683eV
 LUMO-HOMO         0.256905 =       6.9907eV


 **********************************************************************************************************************************
 DATASETS  * FILE   NREC   LENGTH (MB)   RECORD NAMES
              1      20       43.59       500      610      700      900      950      970     1000      129      960     1100   
                                          VAR    BASINP    GEOM    SYMINP    ZMAT    AOBASIS   BASIS     P2S    ABASIS      S 
                                         1400     1410     1200     1210     1080     1600     1650     1300     1700     1800   
                                           T        V       H0       H01     AOSYM     SMH    MOLCAS    ERIS     OPER     GRID   

              2       5        3.00       700     1000      520     1800     2100   
                                         GEOM     BASIS   MCVARS    GRID      RKS  

 PROGRAMS   *        TOTAL        KS       INT
 CPU TIMES  *        11.78     10.64      0.99
 REAL TIME  *        17.84 SEC
 DISK USED  *        82.90 MB      
 **********************************************************************************************************************************


 PROGRAM * Intrinsic Basis Bonding Analysis (IBBA)          Author: G. Knizia

 Molecular orbitals read from record     2100.2  Type=RKS/CANONICAL (state 1.1)
 Fock matrix read from record            2100.2  Type=RKS/TOTAL (state 1.1)
 Orbital energies read from record       2100.2  Type=RKS/CANONICAL (state 1.1)
 Density matrix read from record         2100.2  Type=RKS/CHARGE (state 1.1)

 Number of core orbitals:           3 (   3 )
 Number of closed-shell orbitals:  10 (  10 )

 Basis set MINAO-AUTO-PP generated.      Number of basis functions:   21 

 Polarized AO type:                A = (O Ot + (1-O)(1-Ot)) P12
 Orthogonalization method:         Symmetric (Loewdin)
 Localization functional:          L = sum[A,i] <i|n_A|i>^4 -> max

 Localization group 1:  13 orbitals, occupancy  2.000
 Iterative localization: IB/PM,    7 iter; Final gradient 0.21E-09

 Bond order analysis:       [THRPRINT= 0.020]

   CEN ATOM   CEN ATOM     WIBERG.BO      RENORM.BO
     1   H  -   2   O       0.854651       0.985310

     2   O  -   3   C       0.971610       0.999882
     2   O  -   1   H       0.854651       0.985310
     2   O  -   7   H       0.029701       0.017175
     2   O  -   6   H       0.029701       0.017175

     3   C  -   4   C       1.036634       1.024944
     3   C  -   2   O       0.971610       0.999882
     3   C  -   6   H       0.939902       0.927245
     3   C  -   7   H       0.939902       0.927245

     4   C  -   3   C       1.036634       1.024944
     4   C  -   5   H       0.962497       0.989551
     4   C  -   8   H       0.956816       0.978203
     4   C  -   9   H       0.956816       0.978203

     5   H  -   4   C       0.962497       0.989551

     6   H  -   3   C       0.939902       0.927245
     6   H  -   2   O       0.029701       0.017175

     7   H  -   3   C       0.939902       0.927245
     7   H  -   2   O       0.029701       0.017175

     8   H  -   4   C       0.956816       0.978203

     9   H  -   4   C       0.956816       0.978203


 Valency analysis:

   CEN ATOM   TOT.VALENCE
     1   H       0.869536
     2   O       1.916621
     3   C       3.893327
     4   C       3.940500
     5   H       0.981216
     6   H       0.989699
     7   H       0.989699
     8   H       0.979700
     9   H       0.979700

 Total charge composition:

   CEN ATOM         s          p       ELECTRONS ->P.CHARGE
     1   H       0.63880                 0.63880    0.36120
     2   O       3.66810    4.90599      8.57409   -0.57409
     3   C       3.00790    2.99141      5.99931    0.00069
     4   C       3.05680    3.35600      6.41280   -0.41280
     5   H       0.86295                 0.86295    0.13705
     6   H       0.89851                 0.89851    0.10149
     7   H       0.89851                 0.89851    0.10149
     8   H       0.85752                 0.85752    0.14248
     9   H       0.85752                 0.85752    0.14248

 Total charge composition, AO contributions:

   CEN ATOM SHL      SPHERICAL COMPONENTS
     1   H  1s       0.63880

     2   O  1s       1.99654
     2   O  2s       1.67156
     2   O  2p       1.43591    1.51342    1.95666

     3   C  1s       1.98990
     3   C  2s       1.01800
     3   C  2p       1.01335    0.84215    1.13591

     4   C  1s       1.98870
     4   C  2s       1.06810
     4   C  2p       1.04368    1.15068    1.16164

     5   H  1s       0.86295

     6   H  1s       0.89851

     7   H  1s       0.89851

     8   H  1s       0.85752

     9   H  1s       0.85752

 Summary of localized orbital composition:   [THRPRINT= 0.020]

   ORB  GRP  ORB.ENERGY      CENTERS/CHARGES
     1   1   -19.199546      O  2   2.000
     2   1   -10.299955      C  3   2.000
     3   1   -10.229769      C  4   2.000
     4   1    -0.743125      O  2   1.358   H  1   0.631
     5   1    -0.716287      O  2   1.277   C  3   0.716
     6   1    -0.586583      O  2   1.981
     7   1    -0.567230      C  3   0.998   C  4   0.995
     8   1    -0.484912      C  3   1.114   H  6   0.877
     9   1    -0.484912      C  3   1.114   H  7   0.877
    10   1    -0.471152      C  4   1.127   H  5   0.857
    11   1    -0.465289      C  4   1.138   H  8   0.850
    12   1    -0.465289      C  4   1.138   H  9   0.850
    13   1    -0.279185      O  2   1.957   (other: 0.043)

 Localized orbitals saved to record      2100.2  (orbital set 2)


 **********************************************************************************************************************************
 DATASETS  * FILE   NREC   LENGTH (MB)   RECORD NAMES
              1      20       43.59       500      610      700      900      950      970     1000      129      960     1100   
                                          VAR    BASINP    GEOM    SYMINP    ZMAT    AOBASIS   BASIS     P2S    ABASIS      S 
                                         1400     1410     1200     1210     1080     1600     1650     1300     1700     1800   
                                           T        V       H0       H01     AOSYM     SMH    MOLCAS    ERIS     OPER     GRID   

              2       5        3.04       700     1000      520     1800     2100   
                                         GEOM     BASIS   MCVARS    GRID      RKS  

 PROGRAMS   *        TOTAL      IBBA        KS       INT
 CPU TIMES  *        11.81      0.02     10.64      0.99
 REAL TIME  *        17.94 SEC
 DISK USED  *        82.90 MB      
 **********************************************************************************************************************************
 Molecular orbitals read from record     2100.2  Type=RKS/LOCAL(IBO)  
 Occupation numbers read from record     2100.2  Type=RKS/LOCAL(IBO)  
 Orbital energies read from record       2100.2  Type=RKS/LOCAL(IBO)  
 Redundancy group numbers read from rec  2100.2  Type=RKS/LOCAL(IBO)  

 IBBA/SVP energy=      0.000000000000

        KS-SCF  
   -154.84102072
 **********************************************************************************************************************************
 Molpro calculation terminated
