
 Primary working directories    : /tmp/sb13343
 Secondary working directories  : /tmp/sb13343
 Wavefunction directory         : /panfs/panasas01/chem/sb13343/wfu/
 Main file repository           : /tmp/sb13343/

 SHA1      : b4a5b34a9e711420743f49e6833241d17c61fb3c
 NAME      : 2099.9.b4a5b34
 ARCHNAME  : linux/x86_64_openmp
 FC        : /cm/shared/languages/GCC-6.1/bin/gfortran
 BLASLIB   : -lblas
 id        : simonbennie

 Nodes     nprocs
 node32-020    1

 Using customized tuning parameters: mindgm=1; mindgv=20; mindgc=4; mindgr=1; noblas=0; minvec=7
 default implementation of scratch files=df  

 memory,500,m
 geomtyp=xyz
 nosym
 noorient
 geometry={
 H         -1.81763       -0.80620        0.00000
 O         -0.85078       -0.87151        0.00000
 C         -0.32298        0.45206        0.00000
 C          1.19308        0.34760        0.00000
 H          1.64898        1.34394        0.00000
 H         -0.66062        1.01252       -0.88753
 H         -0.66062        1.01252        0.88753
 H          1.53777       -0.19434       -0.88682
 H          1.53777       -0.19434        0.88682
 }
 basis={ default,sto-3g }
 {uks,B-VWN,direct;wf,26,1,0}
 {ibba,bonds=1}

 Variables initialized (895), CPU time= 0.00 sec
 Commands  initialized (725), CPU time= 0.02 sec, 591 directives.
 Default parameters read. Elapsed time= 0.08 sec

 Checking input...
 Passed
1


                                         ***  PROGRAM SYSTEM MOLPRO  ***
                                       Copyright, TTI GmbH Stuttgart, 2015
                                    Version 2099.9 linked May 26 2017 16:03:21


 **********************************************************************************************************************************
 LABEL *                                                                                 
  64 bit serial version                                                                  DATE: 08-Jun-17          TIME: 11:36:15  
 **********************************************************************************************************************************

 SHA1:             b4a5b34a9e711420743f49e6833241d17c61fb3c
 **********************************************************************************************************************************
 SETTING GEOMTYP        =    XYZ

 Variable memory set to  500000000 words,  buffer space 

 ZSYMEL=NOSYM

 SETTING BASIS          =    STO-3G


 Recomputing integrals since basis changed


 Using spherical harmonics

 Library entry H      S STO-3G               selected for orbital group  1
 Library entry O      S STO-3G               selected for orbital group  2
 Library entry O      P STO-3G               selected for orbital group  2
 Library entry C      S STO-3G               selected for orbital group  3
 Library entry C      P STO-3G               selected for orbital group  3


 PROGRAM * SEWARD (Integral evaluation for generally contracted gaussian basis sets)     Author: Roland Lindh, 1990

 Geometry written to block  1 of record 700


 Point group  C1  



 ATOMIC COORDINATES

 NR  ATOM    CHARGE       X              Y              Z

   1  H       1.00   -3.434822896   -1.523497202    0.000000000
   2  O       8.00   -1.607741192   -1.646915215    0.000000000
   3  C       6.00   -0.610343744    0.854269592    0.000000000
   4  C       6.00    2.254594445    0.656868801    0.000000000
   5  H       1.00    3.116120585    2.539678528    0.000000000
   6  H       1.00   -1.248390872    1.913385496   -1.677188627
   7  H       1.00   -1.248390872    1.913385496    1.677188627
   8  H       1.00    2.905964143   -0.367249375   -1.675846922
   9  H       1.00    2.905964143   -0.367249375    1.675846922

 Bond lengths in Bohr (Angstrom)

 1-2  1.831245357  2-3  2.692717421  3-4  2.871730819  3-6  2.083696794  3-7  2.083696794
     ( 0.969053311)     ( 1.424924694)     ( 1.519654505)     ( 1.102644858)     ( 1.102644858)

 4-5  2.070555423  4-8  2.069193908  4-9  2.069193908
     ( 1.095690744)     ( 1.094970261)     ( 1.094970261)

 Bond angles

  1-2-3  107.87621325   2-3-4  107.79904962   2-3-6  111.02105480   2-3-7  111.02105480

  3-4-5  110.64605443   3-4-8  110.36936729   3-4-9  110.36936729   4-3-6  109.90272099

  4-3-7  109.90272099   5-4-8  108.60711935   5-4-9  108.60711935   6-3-7  107.20315121

  8-4-9  108.17296435

 NUCLEAR CHARGE:                   26
 NUMBER OF PRIMITIVE AOS:          63
 NUMBER OF SYMMETRY AOS:           63
 NUMBER OF CONTRACTIONS:           21   (  21A   )
 NUMBER OF CORE ORBITALS:           3   (   3A   )
 NUMBER OF VALENCE ORBITALS:       18   (  18A   )


 NUCLEAR REPULSION ENERGY   81.60955194


 Eigenvalues of metric

         1 0.212E+00 0.263E+00 0.352E+00 0.355E+00 0.377E+00 0.393E+00 0.407E+00 0.473E+00


 Contracted 2-electron integrals neglected if value below      1.0D-11
 AO integral compression algorithm  1   Integral accuracy      1.0D-11

     0.262 MB (compressed) written to integral file (100.0%)


 NUMBER OF SORTED TWO-ELECTRON INTEGRALS:      26796.     BUFFER LENGTH:  32768
 NUMBER OF SEGMENTS:   1  SEGMENT LENGTH:      26796      RECORD LENGTH: 524288

 Memory used in sort:       0.58 MW

 SORT1 READ       32379. AND WROTE       21718. INTEGRALS IN      1 RECORDS. CPU TIME:     0.00 SEC, REAL TIME:     0.01 SEC
 SORT2 READ       21718. AND WROTE       26796. INTEGRALS IN      1 RECORDS. CPU TIME:     0.01 SEC, REAL TIME:     0.01 SEC

 FILE SIZES:   FILE 1:    30.4 MBYTE,  FILE 4:     4.2 MBYTE,   TOTAL:     34.6 MBYTE

 OPERATOR DM      FOR CENTER  0  COORDINATES:    0.000000    0.000000    0.000000


 **********************************************************************************************************************************
 DATASETS  * FILE   NREC   LENGTH (MB)   RECORD NAMES
              1      19       30.21       500      610      700      900      950      970     1000      129      960     1100   
                                          VAR    BASINP    GEOM    SYMINP    ZMAT    AOBASIS   BASIS     P2S    ABASIS      S 
                                         1400     1410     1200     1210     1080     1600     1650     1300     1700   
                                           T        V       H0       H01     AOSYM     SMH    MOLCAS    ERIS     OPER   

 PROGRAMS   *        TOTAL       INT
 CPU TIMES  *         0.39      0.24
 REAL TIME  *         0.72 SEC
 DISK USED  *        34.99 MB      
 **********************************************************************************************************************************

 Density functional group B-VWN=B88+VWN5
 Functional: B88(Automatically generated (new) B88)                            Gradient terms: 1
 Functional: VWN5(Automatically generated (new) VWN5)                          Gradient terms: 0
 Use grid at  1800.2

 Functional: B88                       Factor:  1.0000
 Functional: VWN5                      Factor:  1.0000

 Generated new metagrid on record  1800.2 with target accuracy 1.0D-06 and 30796 points in CPU time    0.7
 Computed new grid on record 1800.1 in CPU time    0.8
   20895 words reserved for DFT integration

 PROGRAM * UKS-SCF (Unrestricted Kohn-Sham)     Authors: W. Meyer, H.-J. Werner, P.J. Knowles, 1993

 NUMBER OF ELECTRONS:      13+   13-    SPACE SYMMETRY=1    SPIN SYMMETRY: Singlet 
 CONVERGENCE THRESHOLDS:    1.00E-05 (Density)    1.00E-06 (Energy)
 MAX. NUMBER OF ITERATIONS:       60
 INTERPOLATION TYPE:            DIIS
 INTERPOLATION STEPS:              2 (START)      1 (STEP)
 LEVEL SHIFTS:                 -0.20 (ALPHA)  -0.20 (BETA) 



 Use fine grid record 1800.2 for energy threshold  1.0D-06
 Orbital guess generated from atomic densities. Full valence occupancy:   13

 Molecular orbital dump at record        2200.2

 Initial alpha occupation  13
 Initial beta  occupation  13

 ITERATION    DDIFF          GRAD             ENERGY        2-EL.EN.            DIPOLE MOMENTS         DIIS
    1      0.000D+00      0.000D+00      -153.57709665    322.095135   -0.59681    1.02619    0.00000    0
    2      0.703D-01      0.224D-01      -153.73606675    312.556655   -0.23715    0.24546   -0.00000    1
    3      0.113D-01      0.485D-02      -153.74246861    313.932094   -0.29938    0.37606   -0.00000    2
    4      0.167D-02      0.525D-03      -153.74257968    313.924794   -0.29722    0.37334   -0.00000    3
    5      0.712D-03      0.187D-03      -153.74259756    313.917993   -0.29800    0.37496   -0.00000    4
    6      0.230D-03      0.421D-04      -153.74259895    313.917924   -0.29815    0.37384   -0.00000    5
    7      0.488D-04      0.154D-04      -153.74259903    313.918156   -0.29821    0.37436   -0.00000    6
    8      0.124D-04      0.359D-05      -153.74259904    313.918159   -0.29816    0.37427   -0.00000    6
    9      0.168D-05      0.311D-06      -153.74259904    313.918178   -0.29816    0.37427   -0.00000    6
   10      0.188D-06      0.345D-07      -153.74259904    313.918173   -0.29816    0.37427   -0.00000    5

 Final alpha occupancy:  13
 Final beta  occupancy:  13

 !UKS STATE 1.1 Energy               -153.742599039957
 Nuclear energy                        81.60955194
 One-electron energy                 -369.82873059
 Two-electron energy                  156.95908642
 Density functional                   -22.48250680     B88=-20.81500008 VWN5= -1.66750672
 Virial quotient                       -1.01983385
 !UKS STATE 1.1 Dipole moment          -0.29815729     0.37426798    -0.00000000
 Dipole moment /Debye                  -0.75779061     0.95123201    -0.00000000

 Orbital energies for positive spin:

         1.1          2.1          3.1          4.1          5.1          6.1          7.1          8.1          9.1         10.1
    -18.558143    -9.838796    -9.794206    -0.875474    -0.651882    -0.524714    -0.413560    -0.388365    -0.320032    -0.304888

        11.1         12.1         13.1         14.1         15.1
     -0.296018    -0.178976    -0.092669     0.247157     0.330325

 Orbital energies for negative spin:

         1.1          2.1          3.1          4.1          5.1          6.1          7.1          8.1          9.1         10.1
    -18.558143    -9.838796    -9.794206    -0.875474    -0.651882    -0.524714    -0.413560    -0.388365    -0.320032    -0.304888

        11.1         12.1         13.1         14.1         15.1
     -0.296018    -0.178976    -0.092669     0.247157     0.330325

 HOMO     13.1    -0.092669 =      -2.5217eV
 LUMO     14.1     0.247157 =       6.7255eV
 LUMO-HOMO         0.339826 =       9.2471eV

 EXPECTATION VALUE OF S**2:            -0.00000000

 Natural orbitals saved to record    2200.2 (Orbital set 3)

 Orbital spaces for UNO-CAS (Min. occupation: 0.020  Max. occupation: 1.980):

 Closed:       13
 Active:        0


 **********************************************************************************************************************************
 DATASETS  * FILE   NREC   LENGTH (MB)   RECORD NAMES
              1      20       31.20       500      610      700      900      950      970     1000      129      960     1100   
                                          VAR    BASINP    GEOM    SYMINP    ZMAT    AOBASIS   BASIS     P2S    ABASIS      S 
                                         1400     1410     1200     1210     1080     1600     1650     1300     1700     1800   
                                           T        V       H0       H01     AOSYM     SMH    MOLCAS    ERIS     OPER     GRID   

              2       5        2.91       700     1000      520     1800     2200   
                                         GEOM     BASIS   MCVARS    GRID      UKS  

 PROGRAMS   *        TOTAL       UKS       INT
 CPU TIMES  *         2.76      2.37      0.24
 REAL TIME  *         3.21 SEC
 DISK USED  *        34.99 MB      
 **********************************************************************************************************************************


 PROGRAM * Intrinsic Basis Bonding Analysis (IBBA)          Author: G. Knizia

 Molecular orbitals read from record     2200.2  Type=UKS/ALPHA (state 1.1)
 Fock matrix read from record            2200.2  Type=UKS/TOTAL (state 1.1)
 Orbital energies read from record       2200.2  Type=UKS/ALPHA (state 1.1)
 Density matrix read from record         2200.2  Type=UKS/CHARGE (state 1.1)

 Number of core orbitals:           3 (   3 )
 Number of closed-shell orbitals:  10 (  10 )

 Basis set MINAO-AUTO-PP generated.      Number of basis functions:   21 

 Polarized AO type:                A = (O Ot + (1-O)(1-Ot)) P12
 Orthogonalization method:         Symmetric (Loewdin)
 Localization functional:          L = sum[A,i] <i|n_A|i>^4 -> max

 Localization group 1:  13 orbitals, occupancy  2.000
 Iterative localization: IB/PM,    7 iter; Final gradient 0.13E-09

 Bond order analysis:       [THRPRINT= 0.020]

   CEN ATOM   CEN ATOM     WIBERG.BO      RENORM.BO
     1   H  -   2   O       0.928666       0.984971

     2   O  -   3   C       1.026513       1.014465
     2   O  -   1   H       0.928666       0.984971
     2   O  -   7   H       0.031573       0.018224
     2   O  -   6   H       0.031573       0.018224

     3   C  -   2   O       1.026513       1.014465
     3   C  -   4   C       1.015841       1.006467
     3   C  -   6   H       0.942729       0.931639
     3   C  -   7   H       0.942729       0.931639

     4   C  -   3   C       1.015841       1.006467
     4   C  -   5   H       0.966282       0.991159
     4   C  -   8   H       0.963844       0.986201
     4   C  -   9   H       0.963844       0.986201

     5   H  -   4   C       0.966282       0.991159

     6   H  -   3   C       0.942729       0.931639
     6   H  -   2   O       0.031573       0.018224

     7   H  -   3   C       0.942729       0.931639
     7   H  -   2   O       0.031573       0.018224

     8   H  -   4   C       0.963844       0.986201

     9   H  -   4   C       0.963844       0.986201


 Valency analysis:

   CEN ATOM   TOT.VALENCE
     1   H       0.945052
     2   O       2.040846
     3   C       3.932133
     4   C       3.936170
     5   H       0.982894
     6   H       0.989121
     7   H       0.989121
     8   H       0.982295
     9   H       0.982295

 Total charge composition:

   CEN ATOM         s          p       ELECTRONS ->P.CHARGE
     1   H       0.76559                 0.76559    0.23441
     2   O       3.67856    4.65639      8.33495   -0.33495
     3   C       2.98557    3.13439      6.11996   -0.11996
     4   C       2.99694    3.38806      6.38501   -0.38501
     5   H       0.86921                 0.86921    0.13079
     6   H       0.89570                 0.89570    0.10430
     7   H       0.89570                 0.89570    0.10430
     8   H       0.86694                 0.86694    0.13306
     9   H       0.86694                 0.86694    0.13306

 Total charge composition, AO contributions:

   CEN ATOM SHL      SPHERICAL COMPONENTS
     1   H  1s       0.76559

     2   O  1s       1.99726
     2   O  2s       1.68130
     2   O  2p       1.31248    1.39113    1.95278

     3   C  1s       1.99277
     3   C  2s       0.99281
     3   C  2p       1.04469    0.92485    1.16485

     4   C  1s       1.99187
     4   C  2s       1.00507
     4   C  2p       1.05401    1.16364    1.17041

     5   H  1s       0.86921

     6   H  1s       0.89570

     7   H  1s       0.89570

     8   H  1s       0.86694

     9   H  1s       0.86694

 Summary of localized orbital composition:   [THRPRINT= 0.020]

   ORB  GRP  ORB.ENERGY      CENTERS/CHARGES
     1   1   -18.396379      O  2   2.000
     2   1    -9.737665      C  3   2.000
     3   1    -9.683467      C  4   2.000
     4   1    -0.615788      O  2   1.231   H  1   0.759
     5   1    -0.585107      O  2   1.164   C  3   0.831
     6   1    -0.496502      C  3   1.003   C  4   0.987
     7   1    -0.445893      C  3   1.120   H  7   0.873
     8   1    -0.445893      C  3   1.120   H  6   0.873
     9   1    -0.434041      O  2   1.985
    10   1    -0.433569      C  4   1.126   H  5   0.863
    11   1    -0.427248      C  4   1.130   H  9   0.861
    12   1    -0.427248      C  4   1.130   H  8   0.861
    13   1    -0.108926      O  2   1.953   (other: 0.047)

 Localized orbitals saved to record      2200.2  (orbital set 4)


 **********************************************************************************************************************************
 DATASETS  * FILE   NREC   LENGTH (MB)   RECORD NAMES
              1      20       31.20       500      610      700      900      950      970     1000      129      960     1100   
                                          VAR    BASINP    GEOM    SYMINP    ZMAT    AOBASIS   BASIS     P2S    ABASIS      S 
                                         1400     1410     1200     1210     1080     1600     1650     1300     1700     1800   
                                           T        V       H0       H01     AOSYM     SMH    MOLCAS    ERIS     OPER     GRID   

              2       5        2.92       700     1000      520     1800     2200   
                                         GEOM     BASIS   MCVARS    GRID      UKS  

 PROGRAMS   *        TOTAL      IBBA       UKS       INT
 CPU TIMES  *         2.79      0.02      2.37      0.24
 REAL TIME  *         3.32 SEC
 DISK USED  *        34.99 MB      
 **********************************************************************************************************************************
 Molecular orbitals read from record     2200.2  Type=UKS/LOCAL(IBO)  
 Occupation numbers read from record     2200.2  Type=UKS/LOCAL(IBO)  
 Orbital energies read from record       2200.2  Type=UKS/LOCAL(IBO)  
 Redundancy group numbers read from rec  2200.2  Type=UKS/BETA (state 1.1)

 IBBA/STO-3G energy=      0.000000000000

        UKS-SCF 
   -153.74259904
 **********************************************************************************************************************************
 Molpro calculation terminated
