
 Primary working directories    : /tmp/sb13343
 Secondary working directories  : /tmp/sb13343
 Wavefunction directory         : /panfs/panasas01/chem/sb13343/wfu/
 Main file repository           : /tmp/sb13343/

 SHA1      : b4a5b34a9e711420743f49e6833241d17c61fb3c
 NAME      : 2099.9.b4a5b34
 ARCHNAME  : linux/x86_64_openmp
 FC        : /cm/shared/languages/GCC-6.1/bin/gfortran
 BLASLIB   : -lblas
 id        : simonbennie

 Nodes     nprocs
 node44-015    1

 Using customized tuning parameters: mindgm=1; mindgv=20; mindgc=4; mindgr=1; noblas=0; minvec=7
 default implementation of scratch files=df  

 memory,500,m
 geomtyp=xyz
 nosym
 noorient
 geometry={
 H         -1.81763       -0.80620        0.00000
 O         -0.85078       -0.87151        0.00000
 C         -0.32298        0.45206        0.00000
 C          1.19308        0.34760        0.00000
 H          1.64898        1.34394        0.00000
 H         -0.66062        1.01252       -0.88753
 H         -0.66062        1.01252        0.88753
 H          1.53777       -0.19434       -0.88682
 H          1.53777       -0.19434        0.88682
 }
 basis={ default,svp }
 {uks,LDA,direct;wf,26,1,0}
 {ibba,bonds=1}

 Variables initialized (895), CPU time= 0.01 sec
 Commands  initialized (725), CPU time= 0.01 sec, 591 directives.
 Default parameters read. Elapsed time= 0.08 sec

 Checking input...
 Passed
1


                                         ***  PROGRAM SYSTEM MOLPRO  ***
                                       Copyright, TTI GmbH Stuttgart, 2015
                                    Version 2099.9 linked May 26 2017 16:03:21


 **********************************************************************************************************************************
 LABEL *                                                                                 
  64 bit serial version                                                                  DATE: 08-Jun-17          TIME: 11:58:39  
 **********************************************************************************************************************************

 SHA1:             b4a5b34a9e711420743f49e6833241d17c61fb3c
 **********************************************************************************************************************************
 SETTING GEOMTYP        =    XYZ

 Variable memory set to  500000000 words,  buffer space 

 ZSYMEL=NOSYM

 SETTING BASIS          =    SVP


 Recomputing integrals since basis changed


 Using spherical harmonics

 Library entry H      S def2-SVP             selected for orbital group  1
 Library entry H      P def2-SVP             selected for orbital group  1
 Library entry O      S def2-SVP             selected for orbital group  2
 Library entry O      P def2-SVP             selected for orbital group  2
 Library entry O      D def2-SVP             selected for orbital group  2
 Library entry C      S def2-SVP             selected for orbital group  3
 Library entry C      P def2-SVP             selected for orbital group  3
 Library entry C      D def2-SVP             selected for orbital group  3


 PROGRAM * SEWARD (Integral evaluation for generally contracted gaussian basis sets)     Author: Roland Lindh, 1990

 Geometry written to block  1 of record 700


 Point group  C1  



 ATOMIC COORDINATES

 NR  ATOM    CHARGE       X              Y              Z

   1  H       1.00   -3.434822896   -1.523497202    0.000000000
   2  O       8.00   -1.607741192   -1.646915215    0.000000000
   3  C       6.00   -0.610343744    0.854269592    0.000000000
   4  C       6.00    2.254594445    0.656868801    0.000000000
   5  H       1.00    3.116120585    2.539678528    0.000000000
   6  H       1.00   -1.248390872    1.913385496   -1.677188627
   7  H       1.00   -1.248390872    1.913385496    1.677188627
   8  H       1.00    2.905964143   -0.367249375   -1.675846922
   9  H       1.00    2.905964143   -0.367249375    1.675846922

 Bond lengths in Bohr (Angstrom)

 1-2  1.831245357  2-3  2.692717421  3-4  2.871730819  3-6  2.083696794  3-7  2.083696794
     ( 0.969053311)     ( 1.424924694)     ( 1.519654505)     ( 1.102644858)     ( 1.102644858)

 4-5  2.070555423  4-8  2.069193908  4-9  2.069193908
     ( 1.095690744)     ( 1.094970261)     ( 1.094970261)

 Bond angles

  1-2-3  107.87621325   2-3-4  107.79904962   2-3-6  111.02105480   2-3-7  111.02105480

  3-4-5  110.64605443   3-4-8  110.36936729   3-4-9  110.36936729   4-3-6  109.90272099

  4-3-7  109.90272099   5-4-8  108.60711935   5-4-9  108.60711935   6-3-7  107.20315121

  8-4-9  108.17296435

 NUCLEAR CHARGE:                   26
 NUMBER OF PRIMITIVE AOS:         117
 NUMBER OF SYMMETRY AOS:          114
 NUMBER OF CONTRACTIONS:           72   (  72A   )
 NUMBER OF CORE ORBITALS:           3   (   3A   )
 NUMBER OF VALENCE ORBITALS:       18   (  18A   )


 NUCLEAR REPULSION ENERGY   81.60955194


 Eigenvalues of metric

         1 0.375E-02 0.159E-01 0.292E-01 0.324E-01 0.398E-01 0.436E-01 0.556E-01 0.658E-01


 Contracted 2-electron integrals neglected if value below      1.0D-11
 AO integral compression algorithm  1   Integral accuracy      1.0D-11

     14.418 MB (compressed) written to integral file ( 45.7%)


 NUMBER OF SORTED TWO-ELECTRON INTEGRALS:    3454506.     BUFFER LENGTH:  32768
 NUMBER OF SEGMENTS:   1  SEGMENT LENGTH:    3454506      RECORD LENGTH: 524288

 Memory used in sort:       4.01 MW

 SORT1 READ     3945093. AND WROTE     2928993. INTEGRALS IN      9 RECORDS. CPU TIME:     0.04 SEC, REAL TIME:     0.08 SEC
 SORT2 READ     2928993. AND WROTE     3454506. INTEGRALS IN     55 RECORDS. CPU TIME:     0.11 SEC, REAL TIME:     0.13 SEC

 FILE SIZES:   FILE 1:    44.7 MBYTE,  FILE 4:    37.8 MBYTE,   TOTAL:     82.5 MBYTE

 OPERATOR DM      FOR CENTER  0  COORDINATES:    0.000000    0.000000    0.000000


 **********************************************************************************************************************************
 DATASETS  * FILE   NREC   LENGTH (MB)   RECORD NAMES
              1      19       42.60       500      610      700      900      950      970     1000      129      960     1100   
                                          VAR    BASINP    GEOM    SYMINP    ZMAT    AOBASIS   BASIS     P2S    ABASIS      S 
                                         1400     1410     1200     1210     1080     1600     1650     1300     1700   
                                           T        V       H0       H01     AOSYM     SMH    MOLCAS    ERIS     OPER   

 PROGRAMS   *        TOTAL       INT
 CPU TIMES  *         0.89      0.75
 REAL TIME  *         1.64 SEC
 DISK USED  *        82.90 MB      
 **********************************************************************************************************************************

 Density functional group LDA=DIRAC+VWN5
 Functional: DIRAC(Automatically generated (new) DIRAC)                        Gradient terms: 0
 Functional: VWN5(Automatically generated (new) VWN5)                          Gradient terms: 0
 Use grid at  1800.2

 Functional: DIRAC                     Factor:  1.0000
 Functional: VWN5                      Factor:  1.0000

 Generated new metagrid on record  1800.2 with target accuracy 1.0D-06 and 30796 points in CPU time    0.7
 Computed new grid on record 1800.1 in CPU time    0.7
   33765 words reserved for DFT integration

 PROGRAM * UKS-SCF (Unrestricted Kohn-Sham)     Authors: W. Meyer, H.-J. Werner, P.J. Knowles, 1993

 NUMBER OF ELECTRONS:      13+   13-    SPACE SYMMETRY=1    SPIN SYMMETRY: Singlet 
 CONVERGENCE THRESHOLDS:    1.00E-05 (Density)    1.00E-06 (Energy)
 MAX. NUMBER OF ITERATIONS:       60
 INTERPOLATION TYPE:            DIIS
 INTERPOLATION STEPS:              2 (START)      1 (STEP)
 LEVEL SHIFTS:                 -0.20 (ALPHA)  -0.20 (BETA) 



 Use fine grid record 1800.2 for energy threshold  1.0D-06
 Orbital guess generated from atomic densities. Full valence occupancy:   13

 Molecular orbital dump at record        2200.2

 Initial alpha occupation  13
 Initial beta  occupation  13

 ITERATION    DDIFF          GRAD             ENERGY        2-EL.EN.            DIPOLE MOMENTS         DIIS
    1      0.000D+00      0.000D+00      -153.43129911    323.527939   -0.60364    0.87308   -0.00000    0
    2      0.184D-01      0.824D-02      -153.56117666    307.780535   -0.28046    0.36048   -0.00000    1
    3      0.674D-02      0.507D-02      -153.61211815    313.002571   -0.38360    0.54391   -0.00000    2
    4      0.137D-02      0.668D-03      -153.61318232    312.799184   -0.38282    0.48922   -0.00000    3
    5      0.103D-02      0.260D-03      -153.61347938    312.741963   -0.38261    0.47659   -0.00000    4
    6      0.695D-03      0.783D-04      -153.61353118    312.714033   -0.38408    0.46568   -0.00000    5
    7      0.138D-03      0.188D-04      -153.61353341    312.709344   -0.38365    0.46419   -0.00000    6
    8      0.284D-04      0.755D-05      -153.61353360    312.711415   -0.38345    0.46407   -0.00000    7
    9      0.107D-04      0.264D-05      -153.61353363    312.710313   -0.38354    0.46400   -0.00000    6
   10      0.308D-05      0.524D-06      -153.61353363    312.710700   -0.38351    0.46397   -0.00000    7
   11      0.506D-06      0.173D-06      -153.61353363    312.710489   -0.38350    0.46397   -0.00000    6

 Final alpha occupancy:  13
 Final beta  occupancy:  13

 !UKS STATE 1.1 Energy               -153.613533630776
 Nuclear energy                        81.60955194
 One-electron energy                 -371.26716695
 Two-electron energy                  156.35524452
 Density functional                   -20.31116314     DIRAC=-18.65405455 VWN5= -1.65710859
 Virial quotient                       -1.00531136
 !UKS STATE 1.1 Dipole moment          -0.38350380     0.46396928    -0.00000000
 Dipole moment /Debye                  -0.97470559     1.17921504    -0.00000000

 Orbital energies for positive spin:

         1.1          2.1          3.1          4.1          5.1          6.1          7.1          8.1          9.1         10.1
    -18.590719    -9.823039    -9.770448    -0.902433    -0.662689    -0.534210    -0.461738    -0.410010    -0.352513    -0.333693

        11.1         12.1         13.1         14.1         15.1
     -0.312792    -0.277793    -0.212325     0.027476     0.061353

 Orbital energies for negative spin:

         1.1          2.1          3.1          4.1          5.1          6.1          7.1          8.1          9.1         10.1
    -18.590718    -9.823039    -9.770447    -0.902432    -0.662689    -0.534209    -0.461738    -0.410010    -0.352512    -0.333693

        11.1         12.1         13.1         14.1         15.1
     -0.312792    -0.277793    -0.212325     0.027476     0.061353

 HOMO    -13.1    -0.212325 =      -5.7776eV
 LUMO    -14.1     0.027476 =       0.7477eV
 LUMO-HOMO         0.239800 =       6.5253eV

 EXPECTATION VALUE OF S**2:             0.00000000

 Occupation number threshold for canonical orbitals:  1.999000 (occupied),  0.001000 (virtual)

 Number of pseudo-canonical orbitals per symmetry:   13
 Number of active natural orbitals per symmetry:      0

 Natural orbitals saved to record    2200.2 (Orbital set 3)

 Orbital spaces for UNO-CAS (Min. occupation: 0.020  Max. occupation: 1.980):

 Closed:       13
 Active:        0


 **********************************************************************************************************************************
 DATASETS  * FILE   NREC   LENGTH (MB)   RECORD NAMES
              1      20       43.59       500      610      700      900      950      970     1000      129      960     1100   
                                          VAR    BASINP    GEOM    SYMINP    ZMAT    AOBASIS   BASIS     P2S    ABASIS      S 
                                         1400     1410     1200     1210     1080     1600     1650     1300     1700     1800   
                                           T        V       H0       H01     AOSYM     SMH    MOLCAS    ERIS     OPER     GRID   

              2       5        3.11       700     1000      520     1800     2200   
                                         GEOM     BASIS   MCVARS    GRID      UKS  

 PROGRAMS   *        TOTAL       UKS       INT
 CPU TIMES  *         5.29      4.40      0.75
 REAL TIME  *         6.62 SEC
 DISK USED  *        82.90 MB      
 **********************************************************************************************************************************


 PROGRAM * Intrinsic Basis Bonding Analysis (IBBA)          Author: G. Knizia

 Molecular orbitals read from record     2200.2  Type=UKS/ALPHA (state 1.1)
 Fock matrix read from record            2200.2  Type=UKS/TOTAL (state 1.1)
 Orbital energies read from record       2200.2  Type=UKS/ALPHA (state 1.1)
 Density matrix read from record         2200.2  Type=UKS/CHARGE (state 1.1)

 Number of core orbitals:           3 (   3 )
 Number of closed-shell orbitals:  10 (  10 )

 Basis set MINAO-AUTO-PP generated.      Number of basis functions:   21 

 Polarized AO type:                A = (O Ot + (1-O)(1-Ot)) P12
 Orthogonalization method:         Symmetric (Loewdin)
 Localization functional:          L = sum[A,i] <i|n_A|i>^4 -> max

 Localization group 1:  13 orbitals, occupancy  2.000
 Iterative localization: IB/PM,    7 iter; Final gradient 0.46E-09

 Bond order analysis:       [THRPRINT= 0.020]

   CEN ATOM   CEN ATOM     WIBERG.BO      RENORM.BO
     1   H  -   2   O       0.869195       0.984969

     2   O  -   3   C       0.984071       0.995818
     2   O  -   1   H       0.869195       0.984969
     2   O  -   7   H       0.030546       0.017936
     2   O  -   6   H       0.030546       0.017936
     2   O  -   4   C       0.020224       0.011057

     3   C  -   4   C       1.029931       1.017976
     3   C  -   2   O       0.984071       0.995818
     3   C  -   6   H       0.935917       0.929580
     3   C  -   7   H       0.935917       0.929580

     4   C  -   3   C       1.029931       1.017976
     4   C  -   5   H       0.954938       0.987697
     4   C  -   8   H       0.951747       0.978526
     4   C  -   9   H       0.951747       0.978526
     4   C  -   2   O       0.020224       0.011057

     5   H  -   4   C       0.954938       0.987697

     6   H  -   3   C       0.935917       0.929580
     6   H  -   2   O       0.030546       0.017936

     7   H  -   3   C       0.935917       0.929580
     7   H  -   2   O       0.030546       0.017936

     8   H  -   4   C       0.951747       0.978526

     9   H  -   4   C       0.951747       0.978526


 Valency analysis:

   CEN ATOM   TOT.VALENCE
     1   H       0.883833
     2   O       1.953160
     3   C       3.893352
     4   C       3.922306
     5   H       0.978095
     6   H       0.985907
     7   H       0.985907
     8   H       0.976810
     9   H       0.976810

 Total charge composition:

   CEN ATOM         s          p       ELECTRONS ->P.CHARGE
     1   H       0.65917                 0.65917    0.34083
     2   O       3.61573    4.90842      8.52415   -0.52415
     3   C       2.97472    3.09220      6.06692   -0.06692
     4   C       3.01306    3.42670      6.43976   -0.43976
     5   H       0.85200                 0.85200    0.14800
     6   H       0.88129                 0.88129    0.11871
     7   H       0.88129                 0.88129    0.11871
     8   H       0.84772                 0.84772    0.15228
     9   H       0.84772                 0.84772    0.15228

 Total charge composition, AO contributions:

   CEN ATOM SHL      SPHERICAL COMPONENTS
     1   H  1s       0.65917

     2   O  1s       1.99729
     2   O  2s       1.61843
     2   O  2p       1.43468    1.51807    1.95567

     3   C  1s       1.99299
     3   C  2s       0.98173
     3   C  2p       1.03965    0.87720    1.17535

     4   C  1s       1.99203
     4   C  2s       1.02104
     4   C  2p       1.05845    1.17794    1.19030

     5   H  1s       0.85200

     6   H  1s       0.88129

     7   H  1s       0.88129

     8   H  1s       0.84772

     9   H  1s       0.84772

 Summary of localized orbital composition:   [THRPRINT= 0.020]

   ORB  GRP  ORB.ENERGY      CENTERS/CHARGES
     1   1   -18.456061      O  2   2.000
     2   1    -9.724818      C  3   2.000
     3   1    -9.661234      C  4   2.000
     4   1    -0.685416      O  2   1.338   H  1   0.652
     5   1    -0.672319      O  2   1.251   C  3   0.744
     6   1    -0.526845      C  3   1.003   C  4   0.988
     7   1    -0.456092      C  3   1.132   H  6   0.858
     8   1    -0.456092      C  3   1.132   H  7   0.858
     9   1    -0.454428      O  2   1.977   (other: 0.023)
    10   1    -0.441557      C  4   1.138   H  5   0.844
    11   1    -0.434775      C  4   1.148   H  8   0.840
    12   1    -0.434775      C  4   1.148   H  9   0.840
    13   1    -0.240029      O  2   1.956   (other: 0.044)

 Localized orbitals saved to record      2200.2  (orbital set 4)


 **********************************************************************************************************************************
 DATASETS  * FILE   NREC   LENGTH (MB)   RECORD NAMES
              1      20       43.59       500      610      700      900      950      970     1000      129      960     1100   
                                          VAR    BASINP    GEOM    SYMINP    ZMAT    AOBASIS   BASIS     P2S    ABASIS      S 
                                         1400     1410     1200     1210     1080     1600     1650     1300     1700     1800   
                                           T        V       H0       H01     AOSYM     SMH    MOLCAS    ERIS     OPER     GRID   

              2       5        3.15       700     1000      520     1800     2200   
                                         GEOM     BASIS   MCVARS    GRID      UKS  

 PROGRAMS   *        TOTAL      IBBA       UKS       INT
 CPU TIMES  *         5.32      0.03      4.40      0.75
 REAL TIME  *         6.73 SEC
 DISK USED  *        82.90 MB      
 **********************************************************************************************************************************
 Molecular orbitals read from record     2200.2  Type=UKS/LOCAL(IBO)  
 Occupation numbers read from record     2200.2  Type=UKS/LOCAL(IBO)  
 Orbital energies read from record       2200.2  Type=UKS/LOCAL(IBO)  
 Redundancy group numbers read from rec  2200.2  Type=UKS/BETA (state 1.1)

 IBBA/SVP energy=      0.000000000000

        UKS-SCF 
   -153.61353363
 **********************************************************************************************************************************
 Molpro calculation terminated
