
 Primary working directories    : /tmp/sb13343
 Secondary working directories  : /tmp/sb13343
 Wavefunction directory         : /panfs/panasas01/chem/sb13343/wfu/
 Main file repository           : /tmp/sb13343/

 SHA1      : b4a5b34a9e711420743f49e6833241d17c61fb3c
 NAME      : 2099.9.b4a5b34
 ARCHNAME  : linux/x86_64_openmp
 FC        : /cm/shared/languages/GCC-6.1/bin/gfortran
 BLASLIB   : -lblas
 id        : simonbennie

 Nodes     nprocs
 node32-017    1

 Using customized tuning parameters: mindgm=1; mindgv=20; mindgc=4; mindgr=1; noblas=0; minvec=7
 default implementation of scratch files=df  

 memory,500,m
 geomtyp=xyz
 nosym
 noorient
 geometry={
 H         -1.57413        0.33845        0.00000
 C         -0.49500        0.20144        0.00000
 C          0.18857       -0.05954       -1.30114
 C          0.18857       -0.05954        1.30114
 H         -0.33790        0.40751       -2.14134
 H         -0.33790        0.40751        2.14134
 H          1.22176        0.31596       -1.29638
 H          1.22176        0.31596        1.29638
 H          0.25678       -1.13976       -1.52896
 H          0.25678       -1.13976        1.52896
 }
 basis={ default,svp }
 {ks,B97,direct;wf,25,1,1}
 {ibba,bonds=1}

 Variables initialized (895), CPU time= 0.01 sec
 Commands  initialized (725), CPU time= 0.01 sec, 591 directives.
 Default parameters read. Elapsed time= 0.08 sec

 Checking input...
 Passed
1


                                         ***  PROGRAM SYSTEM MOLPRO  ***
                                       Copyright, TTI GmbH Stuttgart, 2015
                                    Version 2099.9 linked May 26 2017 16:03:21


 **********************************************************************************************************************************
 LABEL *                                                                                 
  64 bit serial version                                                                  DATE: 08-Jun-17          TIME: 15:21:53  
 **********************************************************************************************************************************

 SHA1:             b4a5b34a9e711420743f49e6833241d17c61fb3c
 **********************************************************************************************************************************
 SETTING GEOMTYP        =    XYZ

 Variable memory set to  500000000 words,  buffer space 

 ZSYMEL=NOSYM

 SETTING BASIS          =    SVP


 Recomputing integrals since basis changed


 Using spherical harmonics

 Library entry H      S def2-SVP             selected for orbital group  1
 Library entry H      P def2-SVP             selected for orbital group  1
 Library entry C      S def2-SVP             selected for orbital group  2
 Library entry C      P def2-SVP             selected for orbital group  2
 Library entry C      D def2-SVP             selected for orbital group  2


 PROGRAM * SEWARD (Integral evaluation for generally contracted gaussian basis sets)     Author: Roland Lindh, 1990

 Geometry written to block  1 of record 700


 Point group  C1  



 ATOMIC COORDINATES

 NR  ATOM    CHARGE       X              Y              Z

   1  H       1.00   -2.974674584    0.639577807    0.000000000
   2  C       6.00   -0.935414432    0.380666431    0.000000000
   3  C       6.00    0.356345655   -0.112514293   -2.458798250
   4  C       6.00    0.356345655   -0.112514293    2.458798250
   5  H       1.00   -0.638538457    0.770082293   -4.046546140
   6  H       1.00   -0.638538457    0.770082293    4.046546140
   7  H       1.00    2.308791790    0.597077866   -2.449803153
   8  H       1.00    2.308791790    0.597077866    2.449803153
   9  H       1.00    0.485243874   -2.153834248   -2.889315655
  10  H       1.00    0.485243874   -2.153834248    2.889315655

 Bond lengths in Bohr (Angstrom)

 1-2  2.055630578  2-3  2.820914777  2-4  2.820914777  3-5  2.071162595  3-7  2.077413742
     ( 1.087792856)     ( 1.492763814)     ( 1.492763814)     ( 1.096012045)     ( 1.099320010)

  3- 9  2.090202656   4- 6  2.071162595   4- 8  2.077413742   4-10  2.090202656
       ( 1.106087612)       ( 1.096012045)       ( 1.099320010)       ( 1.106087612)

 Bond angles

  1-2-3  118.44375943   1-2-4  118.44375943   2-3-5  111.94558337   2-3-7  111.52358867

  2- 3- 9  112.24140213   2- 4- 6  111.94558337   2- 4- 8  111.52358867   2- 4-10  112.24140213

  3-2-4  121.29758064   5-3-7  108.01204745   5-3-9  106.73207413   6-4-8  108.01204745

  6- 4-10  106.73207413   7- 3- 9  106.05262855   8- 4-10  106.05262855

 NUCLEAR CHARGE:                   25
 NUMBER OF PRIMITIVE AOS:         124
 NUMBER OF SYMMETRY AOS:          121
 NUMBER OF CONTRACTIONS:           77   (  77A   )
 NUMBER OF CORE ORBITALS:           3   (   3A   )
 NUMBER OF VALENCE ORBITALS:       19   (  19A   )


 NUCLEAR REPULSION ENERGY   75.20704826


 Eigenvalues of metric

         1 0.402E-02 0.537E-02 0.229E-01 0.265E-01 0.266E-01 0.379E-01 0.436E-01 0.492E-01


 Contracted 2-electron integrals neglected if value below      1.0D-11
 AO integral compression algorithm  1   Integral accuracy      1.0D-11

     19.923 MB (compressed) written to integral file ( 49.4%)


 NUMBER OF SORTED TWO-ELECTRON INTEGRALS:    4510506.     BUFFER LENGTH:  32768
 NUMBER OF SEGMENTS:   1  SEGMENT LENGTH:    4510506      RECORD LENGTH: 524288

 Memory used in sort:       5.07 MW

 SORT1 READ     5074366. AND WROTE     4244391. INTEGRALS IN     13 RECORDS. CPU TIME:     0.06 SEC, REAL TIME:     0.12 SEC
 SORT2 READ     4244391. AND WROTE     4510506. INTEGRALS IN     76 RECORDS. CPU TIME:     0.14 SEC, REAL TIME:     0.18 SEC

 FILE SIZES:   FILE 1:    50.3 MBYTE,  FILE 4:    54.6 MBYTE,   TOTAL:    104.8 MBYTE

 OPERATOR DM      FOR CENTER  0  COORDINATES:    0.000000    0.000000    0.000000


 **********************************************************************************************************************************
 DATASETS  * FILE   NREC   LENGTH (MB)   RECORD NAMES
              1      19       47.44       500      610      700      900      950      970     1000      129      960     1100   
                                          VAR    BASINP    GEOM    SYMINP    ZMAT    AOBASIS   BASIS     P2S    ABASIS      S 
                                         1400     1410     1200     1210     1080     1600     1650     1300     1700   
                                           T        V       H0       H01     AOSYM     SMH    MOLCAS    ERIS     OPER   

 PROGRAMS   *        TOTAL       INT
 CPU TIMES  *         1.19      1.04
 REAL TIME  *         1.65 SEC
 DISK USED  *       105.25 MB      
 **********************************************************************************************************************************

 Density functional group B97=B97DF
 Functional: B97DF(Automatically generated (new) B97DF)                        Gradient terms: 1
 Use grid at  1800.2


 Exact exchange will be calculated, factor:  0.1943

 Functional: B97DF                     Factor:  1.0000

 Generated new metagrid on record  1800.2 with target accuracy 1.0D-06 and 32470 points in CPU time    0.7
 Computed new grid on record 1800.1 in CPU time    0.8
   65184 words reserved for DFT integration

 PROGRAM * RKS-SCF (Restricted open shell Kohn-Sham)     Authors: W. Meyer, H.-J. Werner, P.J. Knowles, 1993

 NUMBER OF ELECTRONS:      13+   12-    SPACE SYMMETRY=1    SPIN SYMMETRY: Doublet 
 CONVERGENCE THRESHOLDS:    1.00E-05 (Density)    1.00E-06 (Energy)
 MAX. NUMBER OF ITERATIONS:       60
 INTERPOLATION TYPE:            DIIS
 INTERPOLATION STEPS:              2 (START)      1 (STEP)
 LEVEL SHIFTS:                 -0.60 (CLOSED) -0.30 (OPEN) 



 Use fine grid record 1800.2 for energy threshold  1.0D-06
 Orbital guess generated from atomic densities. Full valence occupancy:   13

 Molecular orbital dump at record        2100.2

 Initial alpha occupancy:  13
 Initial beta  occupancy:  12
 Wave function symmetry:    1

 ITERATION    DDIFF          GRAD             ENERGY        2-EL.EN.            DIPOLE MOMENTS         DIIS   ORB.
    1      0.000D+00      0.000D+00      -118.22663109    263.869292    0.18778   -0.25130    0.00000    0    start
    2      0.000D+00      0.108D-01      -118.33714504    254.673078    0.05238   -0.10181   -0.00000    1    diag,B
    3      0.112D-01      0.316D-02      -118.34514831    256.189618    0.04917   -0.11507   -0.00000    2    diag,B
    4      0.291D-02      0.568D-03      -118.34593901    256.049306    0.03831   -0.10326   -0.00000    3    diag,B
    5      0.139D-02      0.213D-03      -118.34607824    256.020463    0.03553   -0.10015   -0.00000    4    diag,B
    6      0.713D-03      0.625D-04      -118.34608986    256.005714    0.03402   -0.09824   -0.00000    5    diag,B
    7      0.219D-03      0.176D-04      -118.34609082    256.006003    0.03432   -0.09834   -0.00000    6    fixocc
    8      0.673D-04      0.601D-05      -118.34609096    256.006195    0.03441   -0.09839   -0.00000    7    diag,B
    9      0.289D-04      0.166D-05      -118.34609097    256.006182    0.03442   -0.09843   -0.00000    8    diag,B
   10      0.738D-05      0.507D-06      -118.34609097    256.006163    0.03441   -0.09843   -0.00000    0    orth

 Final alpha occupancy:  13
 Final beta  occupancy:  12

 !RKS STATE 1.1 Energy               -118.346090974666
 Nuclear energy                        75.20704826
 One-electron energy                 -306.25703887
 Two-electron energy                  128.00308129
 Density functional                   -15.29918165     B97DF=-15.29918165
 Virial quotient                       -1.01281604
 !RKS STATE 1.1 Dipole moment           0.03441136    -0.09843154    -0.00000000
 Dipole moment /Debye                   0.08745924    -0.25017162    -0.00000000

 Orbital energies:

         1.1          2.1          3.1          4.1          5.1          6.1          7.1          8.1          9.1         10.1
    -10.166106   -10.166105   -10.165423    -0.761685    -0.679336    -0.550627    -0.444730    -0.413942    -0.402113    -0.378187

        11.1         12.1         13.1         14.1         15.1
     -0.349893    -0.340812    -0.180951     0.073371     0.100977

 HOMO     13.1    -0.180951 =      -4.9239eV
 LUMO     14.1     0.073371 =       1.9965eV
 LUMO-HOMO         0.254322 =       6.9205eV


 **********************************************************************************************************************************
 DATASETS  * FILE   NREC   LENGTH (MB)   RECORD NAMES
              1      20       48.47       500      610      700      900      950      970     1000      129      960     1100   
                                          VAR    BASINP    GEOM    SYMINP    ZMAT    AOBASIS   BASIS     P2S    ABASIS      S 
                                         1400     1410     1200     1210     1080     1600     1650     1300     1700     1800   
                                           T        V       H0       H01     AOSYM     SMH    MOLCAS    ERIS     OPER     GRID   

              2       5        3.08       700     1000      520     1800     2100   
                                         GEOM     BASIS   MCVARS    GRID      RKS  

 PROGRAMS   *        TOTAL        KS       INT
 CPU TIMES  *         8.07      6.88      1.04
 REAL TIME  *         9.10 SEC
 DISK USED  *       105.25 MB      
 **********************************************************************************************************************************


 PROGRAM * Intrinsic Basis Bonding Analysis (IBBA)          Author: G. Knizia

 Molecular orbitals read from record     2100.2  Type=RKS/CANONICAL (state 1.1)
 Fock matrix read from record            2100.2  Type=RKS/TOTAL (state 1.1)
 Orbital energies read from record       2100.2  Type=RKS/CANONICAL (state 1.1)
 Density matrix read from record         2100.2  Type=RKS/CHARGE (state 1.1)

 Number of core orbitals:           3 (   3 )
 Number of closed-shell orbitals:   9 (   9 )
 Number of active  orbitals:        1 (   1 )

 Basis set MINAO-AUTO-PP generated.      Number of basis functions:   22 

 Polarized AO type:                A = (O Ot + (1-O)(1-Ot)) P12
 Orthogonalization method:         Symmetric (Loewdin)
 Localization functional:          L = sum[A,i] <i|n_A|i>^4 -> max

 Localization group 1:  12 orbitals, occupancy  2.000
 Iterative localization: IB/PM,    7 iter; Final gradient 0.39E-08

 Bond order analysis:       [THRPRINT= 0.020]

   CEN ATOM   CEN ATOM     WIBERG.BO      RENORM.BO
     1   H  -   2   C       0.955254       0.968783

     2   C  -   4   C       1.100129       1.495462
     2   C  -   3   C       1.100129       1.495462
     2   C  -   1   H       0.955254       0.968783
     2   C  -   9   H       0.040680       0.306264
     2   C  -  10   H       0.040680       0.306264

     3   C  -   2   C       1.100129       1.495462
     3   C  -   5   H       0.957288       0.989008
     3   C  -   7   H       0.948726       0.988016
     3   C  -   9   H       0.918190       0.998198

     4   C  -   2   C       1.100129       1.495462
     4   C  -   6   H       0.957288       0.989008
     4   C  -   8   H       0.948726       0.988016
     4   C  -  10   H       0.918190       0.998198

     5   H  -   3   C       0.957288       0.989008

     6   H  -   4   C       0.957288       0.989008

     7   H  -   3   C       0.948726       0.988016

     8   H  -   4   C       0.948726       0.988016

     9   H  -   3   C       0.918190       0.998198
     9   H  -   2   C       0.040680       0.306264

    10   H  -   4   C       0.918190       0.998198
    10   H  -   2   C       0.040680       0.306264


 Valency analysis:

   CEN ATOM   TOT.VALENCE
     1   H       0.984263
     2   C       3.274747
     3   C       3.942419
     4   C       3.942419
     5   H       0.979582
     6   H       0.979582
     7   H       0.978664
     8   H       0.978664
     9   H       0.968742
    10   H       0.968742
 Localization group 2:   1 orbitals, occupancy  1.000
 Iterative localization: IB/PM,    1 iter; Final gradient 0.00E+00

 Bond order analysis:       [THRPRINT= 0.020]

   CEN ATOM   CEN ATOM     WIBERG.BO      RENORM.BO

     2   C  -   9   H       0.080589       0.500000
     2   C  -  10   H       0.080589       0.500000
     2   C  -   7   H       0.025000       0.500000
     2   C  -   8   H       0.025000       0.500000





     7   H  -   2   C       0.025000       0.500000

     8   H  -   2   C       0.025000       0.500000

     9   H  -   2   C       0.080589       0.500000

    10   H  -   2   C       0.080589       0.500000


 Valency analysis:

   CEN ATOM   TOT.VALENCE
     1   H       0.000879
     2   C       0.235667
     3   C       0.004050
     4   C       0.004050
     5   H       0.009636
     6   H       0.009636
     7   H       0.028531
     8   H       0.028531
     9   H       0.088968
    10   H       0.088968

 Total charge composition:

   CEN ATOM         s          p       ELECTRONS ->P.CHARGE
     1   H       0.87499                 0.87499    0.12501
     2   C       3.00759    3.12561      6.13320   -0.13320
     3   C       3.01344    3.38224      6.39568   -0.39568
     4   C       3.01344    3.38224      6.39568   -0.39568
     5   H       0.86195                 0.86195    0.13805
     6   H       0.86195                 0.86195    0.13805
     7   H       0.86841                 0.86841    0.13159
     8   H       0.86841                 0.86841    0.13159
     9   H       0.86986                 0.86986    0.13014
    10   H       0.86986                 0.86986    0.13014

 Total charge composition, AO contributions:

   CEN ATOM SHL      SPHERICAL COMPONENTS
     1   H  1s       0.87499

     2   C  1s       1.99234
     2   C  2s       1.01525
     2   C  2p       1.10135    1.01970    1.00456

     3   C  1s       1.99073
     3   C  2s       1.02272
     3   C  2p       1.13996    1.14601    1.09627

     4   C  1s       1.99073
     4   C  2s       1.02272
     4   C  2p       1.13996    1.14601    1.09627

     5   H  1s       0.86195

     6   H  1s       0.86195

     7   H  1s       0.86841

     8   H  1s       0.86841

     9   H  1s       0.86986

    10   H  1s       0.86986

 Active orbital charges:

   CEN ATOM         s          p       ELECTRONS ->SPIN.DEN
     1   H       0.00044                 0.00044    0.00044
     2   C       0.00848    0.85506      0.86355    0.86355
     3   C       0.00011    0.00192      0.00203    0.00203
     4   C       0.00011    0.00192      0.00203    0.00203
     5   H       0.00484                 0.00484    0.00484
     6   H       0.00484                 0.00484    0.00484
     7   H       0.01448                 0.01448    0.01448
     8   H       0.01448                 0.01448    0.01448
     9   H       0.04666                 0.04666    0.04666
    10   H       0.04666                 0.04666    0.04666

 Active orbital charges, AO contributions:

   CEN ATOM SHL      SPHERICAL COMPONENTS
     1   H  1s       0.00044

     2   C  1s       0.00001
     2   C  2s       0.00848
     2   C  2p       0.03441    0.82065    0.00000

     3   C  1s       0.00000
     3   C  2s       0.00011
     3   C  2p       0.00001    0.00183    0.00009

     4   C  1s       0.00000
     4   C  2s       0.00011
     4   C  2p       0.00001    0.00183    0.00009

     5   H  1s       0.00484

     6   H  1s       0.00484

     7   H  1s       0.01448

     8   H  1s       0.01448

     9   H  1s       0.04666

    10   H  1s       0.04666

 Summary of localized orbital composition:   [THRPRINT= 0.020]

   ORB  GRP  ORB.ENERGY      CENTERS/CHARGES
     1   1   -10.065697      C  2   2.000
     2   1   -10.050281      C  3   2.000
     3   1   -10.050281      C  4   2.000
     4   1    -0.594007      C  4   1.007   C  2   0.986
     5   1    -0.594007      C  3   1.007   C  2   0.986
     6   1    -0.511096      C  2   1.122   H  1   0.865
     7   1    -0.494517      C  3   1.122   H  9   0.820   C  2   0.056
     8   1    -0.494517      C  4   1.122   H 10   0.820   C  2   0.056
     9   1    -0.491328      C  3   1.126   H  7   0.849   C  2   0.020
    10   1    -0.491328      C  4   1.126   H  8   0.849   C  2   0.020
    11   1    -0.490953      C  3   1.132   H  5   0.851
    12   1    -0.490953      C  4   1.132   H  6   0.851
    13   2    -0.107907      C  2   0.864   H  9   0.047   H 10   0.047   (other: 0.043)

 Localized orbitals saved to record      2100.2  (orbital set 2)


 **********************************************************************************************************************************
 DATASETS  * FILE   NREC   LENGTH (MB)   RECORD NAMES
              1      20       48.47       500      610      700      900      950      970     1000      129      960     1100   
                                          VAR    BASINP    GEOM    SYMINP    ZMAT    AOBASIS   BASIS     P2S    ABASIS      S 
                                         1400     1410     1200     1210     1080     1600     1650     1300     1700     1800   
                                           T        V       H0       H01     AOSYM     SMH    MOLCAS    ERIS     OPER     GRID   

              2       5        3.13       700     1000      520     1800     2100   
                                         GEOM     BASIS   MCVARS    GRID      RKS  

 PROGRAMS   *        TOTAL      IBBA        KS       INT
 CPU TIMES  *         8.10      0.03      6.88      1.04
 REAL TIME  *         9.20 SEC
 DISK USED  *       105.25 MB      
 **********************************************************************************************************************************
 Molecular orbitals read from record     2100.2  Type=RKS/LOCAL(IBO)  
 Occupation numbers read from record     2100.2  Type=RKS/LOCAL(IBO)  
 Orbital energies read from record       2100.2  Type=RKS/LOCAL(IBO)  
 Redundancy group numbers read from rec  2100.2  Type=RKS/LOCAL(IBO)  

 IBBA/SVP energy=      0.000000000000

        KS-SCF  
   -118.34609097
 **********************************************************************************************************************************
 Molpro calculation terminated
