
 Primary working directories    : /tmp/sb13343
 Secondary working directories  : /tmp/sb13343
 Wavefunction directory         : /panfs/panasas01/chem/sb13343/wfu/
 Main file repository           : /tmp/sb13343/

 SHA1      : b4a5b34a9e711420743f49e6833241d17c61fb3c
 NAME      : 2099.9.b4a5b34
 ARCHNAME  : linux/x86_64_openmp
 FC        : /cm/shared/languages/GCC-6.1/bin/gfortran
 BLASLIB   : -lblas
 id        : simonbennie

 Nodes     nprocs
 node32-043    1

 Using customized tuning parameters: mindgm=1; mindgv=20; mindgc=4; mindgr=1; noblas=0; minvec=7
 default implementation of scratch files=df  

 memory,500,m
 geomtyp=xyz
 nosym
 noorient
 geometry={
 H         -1.57413        0.33845        0.00000
 C         -0.49500        0.20144        0.00000
 C          0.18857       -0.05954       -1.30114
 C          0.18857       -0.05954        1.30114
 H         -0.33790        0.40751       -2.14134
 H         -0.33790        0.40751        2.14134
 H          1.22176        0.31596       -1.29638
 H          1.22176        0.31596        1.29638
 H          0.25678       -1.13976       -1.52896
 H          0.25678       -1.13976        1.52896
 }
 basis={ default,svp }
 {uks,PBE0MOL,direct;wf,25,1,1}
 {ibba,bonds=1}

 Variables initialized (895), CPU time= 0.00 sec
 Commands  initialized (725), CPU time= 0.01 sec, 591 directives.
 Default parameters read. Elapsed time= 0.07 sec

 Checking input...
 Passed
1


                                         ***  PROGRAM SYSTEM MOLPRO  ***
                                       Copyright, TTI GmbH Stuttgart, 2015
                                    Version 2099.9 linked May 26 2017 16:03:21


 **********************************************************************************************************************************
 LABEL *                                                                                 
  64 bit serial version                                                                  DATE: 08-Jun-17          TIME: 15:27:45  
 **********************************************************************************************************************************

 SHA1:             b4a5b34a9e711420743f49e6833241d17c61fb3c
 **********************************************************************************************************************************
 SETTING GEOMTYP        =    XYZ

 Variable memory set to  500000000 words,  buffer space 

 ZSYMEL=NOSYM

 SETTING BASIS          =    SVP


 Recomputing integrals since basis changed


 Using spherical harmonics

 Library entry H      S def2-SVP             selected for orbital group  1
 Library entry H      P def2-SVP             selected for orbital group  1
 Library entry C      S def2-SVP             selected for orbital group  2
 Library entry C      P def2-SVP             selected for orbital group  2
 Library entry C      D def2-SVP             selected for orbital group  2


 PROGRAM * SEWARD (Integral evaluation for generally contracted gaussian basis sets)     Author: Roland Lindh, 1990

 Geometry written to block  1 of record 700


 Point group  C1  



 ATOMIC COORDINATES

 NR  ATOM    CHARGE       X              Y              Z

   1  H       1.00   -2.974674584    0.639577807    0.000000000
   2  C       6.00   -0.935414432    0.380666431    0.000000000
   3  C       6.00    0.356345655   -0.112514293   -2.458798250
   4  C       6.00    0.356345655   -0.112514293    2.458798250
   5  H       1.00   -0.638538457    0.770082293   -4.046546140
   6  H       1.00   -0.638538457    0.770082293    4.046546140
   7  H       1.00    2.308791790    0.597077866   -2.449803153
   8  H       1.00    2.308791790    0.597077866    2.449803153
   9  H       1.00    0.485243874   -2.153834248   -2.889315655
  10  H       1.00    0.485243874   -2.153834248    2.889315655

 Bond lengths in Bohr (Angstrom)

 1-2  2.055630578  2-3  2.820914777  2-4  2.820914777  3-5  2.071162595  3-7  2.077413742
     ( 1.087792856)     ( 1.492763814)     ( 1.492763814)     ( 1.096012045)     ( 1.099320010)

  3- 9  2.090202656   4- 6  2.071162595   4- 8  2.077413742   4-10  2.090202656
       ( 1.106087612)       ( 1.096012045)       ( 1.099320010)       ( 1.106087612)

 Bond angles

  1-2-3  118.44375943   1-2-4  118.44375943   2-3-5  111.94558337   2-3-7  111.52358867

  2- 3- 9  112.24140213   2- 4- 6  111.94558337   2- 4- 8  111.52358867   2- 4-10  112.24140213

  3-2-4  121.29758064   5-3-7  108.01204745   5-3-9  106.73207413   6-4-8  108.01204745

  6- 4-10  106.73207413   7- 3- 9  106.05262855   8- 4-10  106.05262855

 NUCLEAR CHARGE:                   25
 NUMBER OF PRIMITIVE AOS:         124
 NUMBER OF SYMMETRY AOS:          121
 NUMBER OF CONTRACTIONS:           77   (  77A   )
 NUMBER OF CORE ORBITALS:           3   (   3A   )
 NUMBER OF VALENCE ORBITALS:       19   (  19A   )


 NUCLEAR REPULSION ENERGY   75.20704826


 Eigenvalues of metric

         1 0.402E-02 0.537E-02 0.229E-01 0.265E-01 0.266E-01 0.379E-01 0.436E-01 0.492E-01


 Contracted 2-electron integrals neglected if value below      1.0D-11
 AO integral compression algorithm  1   Integral accuracy      1.0D-11

     19.923 MB (compressed) written to integral file ( 49.4%)


 NUMBER OF SORTED TWO-ELECTRON INTEGRALS:    4510506.     BUFFER LENGTH:  32768
 NUMBER OF SEGMENTS:   1  SEGMENT LENGTH:    4510506      RECORD LENGTH: 524288

 Memory used in sort:       5.07 MW

 SORT1 READ     5074366. AND WROTE     4244391. INTEGRALS IN     13 RECORDS. CPU TIME:     0.06 SEC, REAL TIME:     0.12 SEC
 SORT2 READ     4244391. AND WROTE     4510506. INTEGRALS IN     76 RECORDS. CPU TIME:     0.13 SEC, REAL TIME:     0.18 SEC

 FILE SIZES:   FILE 1:    50.3 MBYTE,  FILE 4:    54.6 MBYTE,   TOTAL:    104.8 MBYTE

 OPERATOR DM      FOR CENTER  0  COORDINATES:    0.000000    0.000000    0.000000


 **********************************************************************************************************************************
 DATASETS  * FILE   NREC   LENGTH (MB)   RECORD NAMES
              1      19       47.44       500      610      700      900      950      970     1000      129      960     1100   
                                          VAR    BASINP    GEOM    SYMINP    ZMAT    AOBASIS   BASIS     P2S    ABASIS      S 
                                         1400     1410     1200     1210     1080     1600     1650     1300     1700   
                                           T        V       H0       H01     AOSYM     SMH    MOLCAS    ERIS     OPER   

 PROGRAMS   *        TOTAL       INT
 CPU TIMES  *         1.05      0.91
 REAL TIME  *         2.24 SEC
 DISK USED  *       105.25 MB      
 **********************************************************************************************************************************

 Density functional group PBE0MOL=PBEX+PW91C
 Functional: PBEX(Automatically generated (new) PBEX)                          Gradient terms: 1
 Functional: PW91C(Automatically generated (new) PW91C)                        Gradient terms: 1
 Use grid at  1800.2


 Exact exchange will be calculated, factor:  0.2500

 Functional: PBEX                      Factor:  0.7500
 Functional: PW91C                     Factor:  1.0000

 Generated new metagrid on record  1800.2 with target accuracy 1.0D-06 and 32470 points in CPU time    0.7
 Computed new grid on record 1800.1 in CPU time    0.8
   65184 words reserved for DFT integration

 PROGRAM * UKS-SCF (Unrestricted Kohn-Sham)     Authors: W. Meyer, H.-J. Werner, P.J. Knowles, 1993

 NUMBER OF ELECTRONS:      13+   12-    SPACE SYMMETRY=1    SPIN SYMMETRY: Doublet 
 CONVERGENCE THRESHOLDS:    1.00E-05 (Density)    1.00E-06 (Energy)
 MAX. NUMBER OF ITERATIONS:       60
 INTERPOLATION TYPE:            DIIS
 INTERPOLATION STEPS:              2 (START)      1 (STEP)
 LEVEL SHIFTS:                 -0.20 (ALPHA)  -0.20 (BETA) 



 Use fine grid record 1800.2 for energy threshold  1.0D-06
 Orbital guess generated from atomic densities. Full valence occupancy:   13

 Molecular orbital dump at record        2200.2

 Initial alpha occupation  13
 Initial beta  occupation  12

 ITERATION    DDIFF          GRAD             ENERGY        2-EL.EN.            DIPOLE MOMENTS         DIIS
    1      0.000D+00      0.000D+00      -118.18033836    261.343136    0.19683   -0.25711    0.00000    0
    2      0.108D-01      0.563D-02      -118.27824688    252.420024    0.08002   -0.12829   -0.00000    1
    3      0.297D-02      0.190D-02      -118.28819689    254.153301    0.06031   -0.12579   -0.00000    2
    4      0.129D-02      0.369D-03      -118.28927787    254.059587    0.04549   -0.11167   -0.00000    3
    5      0.648D-03      0.157D-03      -118.28951264    254.029802    0.03477   -0.10167   -0.00000    4
    6      0.172D-03      0.506D-04      -118.28954076    254.031698    0.03315   -0.09877   -0.00000    5
    7      0.436D-04      0.155D-04      -118.28954265    254.029576    0.03204   -0.09755   -0.00000    6
    8      0.125D-04      0.567D-05      -118.28954277    254.030901    0.03220   -0.09758   -0.00000    7
    9      0.381D-05      0.132D-05      -118.28954278    254.030733    0.03227   -0.09757   -0.00000    7
   10      0.158D-05      0.437D-06      -118.28954278    254.030655    0.03227   -0.09756   -0.00000    7

 Final alpha occupancy:  13
 Final beta  occupancy:  12

 !UKS STATE 1.1 Energy               -118.289542784206
 Nuclear energy                        75.20704826
 One-electron energy                 -306.27433810
 Two-electron energy                  127.01532730
 Density functional                   -14.23758025     PBEX=-17.86350196 PW91C= -0.83995378
 Virial quotient                       -1.01266078
 !UKS STATE 1.1 Dipole moment           0.03226574    -0.09756032    -0.00000000
 Dipole moment /Debye                   0.08200597    -0.24795735    -0.00000000

 Orbital energies for positive spin:

         1.1          2.1          3.1          4.1          5.1          6.1          7.1          8.1          9.1         10.1
    -10.239731   -10.230170   -10.230159    -0.795758    -0.702243    -0.580646    -0.463960    -0.440948    -0.420630    -0.395538

        11.1         12.1         13.1         14.1         15.1
     -0.365840    -0.356937    -0.197585     0.077330     0.106108

 Orbital energies for negative spin:

         1.1          2.1          3.1          4.1          5.1          6.1          7.1          8.1          9.1         10.1
    -10.231343   -10.231335   -10.223981    -0.776398    -0.699821    -0.557311    -0.458285    -0.420728    -0.414406    -0.388896

        11.1         12.1         13.1         14.1         15.1
     -0.362168    -0.351515    -0.021313     0.080116     0.110516

 HOMO     13.1    -0.197585 =      -5.3766eV
 LUMO    -13.1    -0.021313 =      -0.5799eV
 LUMO-HOMO         0.176273 =       4.7966eV

 EXPECTATION VALUE OF S**2:             0.75479942

 Occupation number threshold for canonical orbitals:  1.999000 (occupied),  0.001000 (virtual)

 Number of pseudo-canonical orbitals per symmetry:   11
 Number of active natural orbitals per symmetry:      3

 Natural orbitals saved to record    2200.2 (Orbital set 3)

 Orbital spaces for UNO-CAS (Min. occupation: 0.020  Max. occupation: 1.980):

 Closed:       12
 Active:        1


 **********************************************************************************************************************************
 DATASETS  * FILE   NREC   LENGTH (MB)   RECORD NAMES
              1      20       48.47       500      610      700      900      950      970     1000      129      960     1100   
                                          VAR    BASINP    GEOM    SYMINP    ZMAT    AOBASIS   BASIS     P2S    ABASIS      S 
                                         1400     1410     1200     1210     1080     1600     1650     1300     1700     1800   
                                           T        V       H0       H01     AOSYM     SMH    MOLCAS    ERIS     OPER     GRID   

              2       5        3.16       700     1000      520     1800     2200   
                                         GEOM     BASIS   MCVARS    GRID      UKS  

 PROGRAMS   *        TOTAL       UKS       INT
 CPU TIMES  *         8.13      7.08      0.91
 REAL TIME  *         9.55 SEC
 DISK USED  *       105.25 MB      
 **********************************************************************************************************************************


 PROGRAM * Intrinsic Basis Bonding Analysis (IBBA)          Author: G. Knizia

 Molecular orbitals read from record     2200.2  Type=UKS/ALPHA (state 1.1)
 Fock matrix read from record            2200.2  Type=UKS/TOTAL (state 1.1)
 Orbital energies read from record       2200.2  Type=UKS/ALPHA (state 1.1)
 Density matrix read from record         2200.2  Type=UKS/CHARGE (state 1.1)

 Number of core orbitals:           3 (   3 )
 Number of closed-shell orbitals:   9 (   9 )
 Number of active  orbitals:        1 (   1 )

 Basis set MINAO-AUTO-PP generated.      Number of basis functions:   22 

 Polarized AO type:                A = (O Ot + (1-O)(1-Ot)) P12
 Orthogonalization method:         Symmetric (Loewdin)
 Localization functional:          L = sum[A,i] <i|n_A|i>^4 -> max

 Localization group 1:  12 orbitals, occupancy  2.000
 Iterative localization: IB/PM,    8 iter; Final gradient 0.23E-09

 Bond order analysis:       [THRPRINT= 0.020]

   CEN ATOM   CEN ATOM     WIBERG.BO      RENORM.BO
     1   H  -   2   C       0.945881       0.968605

     2   C  -   3   C       1.185185       1.482143
     2   C  -   4   C       1.185185       1.482143
     2   C  -   1   H       0.945881       0.968605
     2   C  -   9   H       0.070608       0.269816
     2   C  -  10   H       0.070608       0.269816
     2   C  -   7   H       0.022891       0.080443
     2   C  -   8   H       0.022891       0.080443

     3   C  -   2   C       1.185185       1.482143
     3   C  -   5   H       0.949642       0.988713
     3   C  -   7   H       0.930124       0.987739
     3   C  -   9   H       0.860144       0.996241

     4   C  -   2   C       1.185185       1.482143
     4   C  -   6   H       0.949642       0.988713
     4   C  -   8   H       0.930124       0.987739
     4   C  -  10   H       0.860144       0.996241

     5   H  -   3   C       0.949642       0.988713

     6   H  -   4   C       0.949642       0.988713

     7   H  -   3   C       0.930124       0.987739
     7   H  -   2   C       0.022891       0.080443

     8   H  -   4   C       0.930124       0.987739
     8   H  -   2   C       0.022891       0.080443

     9   H  -   3   C       0.860144       0.996241
     9   H  -   2   C       0.070608       0.269816

    10   H  -   4   C       0.860144       0.996241
    10   H  -   2   C       0.070608       0.269816


 Valency analysis:

   CEN ATOM   TOT.VALENCE
     1   H       0.974424
     2   C       3.521898
     3   C       3.951570
     4   C       3.951570
     5   H       0.977868
     6   H       0.977868
     7   H       0.975084
     8   H       0.975084
     9   H       0.956782
    10   H       0.956782
 Localization group 2:   1 orbitals, occupancy  1.000
 Iterative localization: IB/PM,    1 iter; Final gradient 0.00E+00

 Bond order analysis:       [THRPRINT= 0.020]

   CEN ATOM   CEN ATOM     WIBERG.BO      RENORM.BO

     2   C  -   9   H       0.104527       0.500000
     2   C  -  10   H       0.104527       0.500000
     2   C  -   7   H       0.032902       0.500000
     2   C  -   8   H       0.032902       0.500000
     2   C  -   3   C       0.020606       0.500000
     2   C  -   4   C       0.020606       0.500000

     3   C  -   2   C       0.020606       0.500000

     4   C  -   2   C       0.020606       0.500000



     7   H  -   2   C       0.032902       0.500000

     8   H  -   2   C       0.032902       0.500000

     9   H  -   2   C       0.104527       0.500000

    10   H  -   2   C       0.104527       0.500000


 Valency analysis:

   CEN ATOM   TOT.VALENCE
     1   H       0.001714
     2   C       0.339526
     3   C       0.025962
     4   C       0.025962
     5   H       0.014016
     6   H       0.014016
     7   H       0.041124
     8   H       0.041124
     9   H       0.124546
    10   H       0.124546

 Total charge composition:

   CEN ATOM         s          p       ELECTRONS ->P.CHARGE
     1   H       0.84093                 0.84093    0.15907
     2   C       3.05174    3.26137      6.31311   -0.31311
     3   C       3.00606    3.33663      6.34270   -0.34270
     4   C       3.00606    3.33663      6.34270   -0.34270
     5   H       0.85829                 0.85829    0.14171
     6   H       0.85829                 0.85829    0.14171
     7   H       0.86316                 0.86316    0.13684
     8   H       0.86316                 0.86316    0.13684
     9   H       0.85884                 0.85884    0.14116
    10   H       0.85884                 0.85884    0.14116

 Total charge composition, AO contributions:

   CEN ATOM SHL      SPHERICAL COMPONENTS
     1   H  1s       0.84093

     2   C  1s       1.99223
     2   C  2s       1.05951
     2   C  2p       1.12831    1.10729    1.02577

     3   C  1s       1.99076
     3   C  2s       1.01531
     3   C  2p       1.13486    1.12139    1.08038

     4   C  1s       1.99076
     4   C  2s       1.01531
     4   C  2p       1.13486    1.12139    1.08038

     5   H  1s       0.85829

     6   H  1s       0.85829

     7   H  1s       0.86316

     8   H  1s       0.86316

     9   H  1s       0.85884

    10   H  1s       0.85884

 Active orbital charges:

   CEN ATOM         s          p       ELECTRONS ->SPIN.DEN
     1   H       0.00086                 0.00086    0.00086
     2   C       0.00553    0.77773      0.78326    0.78326
     3   C       0.00014    0.01302      0.01315    0.01315
     4   C       0.00014    0.01302      0.01315    0.01315
     5   H       0.00706                 0.00706    0.00706
     6   H       0.00706                 0.00706    0.00706
     7   H       0.02100                 0.02100    0.02100
     8   H       0.02100                 0.02100    0.02100
     9   H       0.06673                 0.06673    0.06673
    10   H       0.06673                 0.06673    0.06673

 Active orbital charges, AO contributions:

   CEN ATOM SHL      SPHERICAL COMPONENTS
     1   H  1s       0.00086

     2   C  1s       0.00001
     2   C  2s       0.00552
     2   C  2p       0.03224    0.74549    0.00000

     3   C  1s       0.00000
     3   C  2s       0.00014
     3   C  2p       0.00012    0.01279    0.00010

     4   C  1s       0.00000
     4   C  2s       0.00014
     4   C  2p       0.00012    0.01279    0.00010

     5   H  1s       0.00706

     6   H  1s       0.00706

     7   H  1s       0.02100

     8   H  1s       0.02100

     9   H  1s       0.06673

    10   H  1s       0.06673

 Summary of localized orbital composition:   [THRPRINT= 0.020]

   ORB  GRP  ORB.ENERGY      CENTERS/CHARGES
     1   1   -10.127621      C  2   2.000
     2   1   -10.114949      C  4   2.000
     3   1   -10.114949      C  3   2.000
     4   1    -0.613118      C  2   1.014   C  4   0.979
     5   1    -0.613118      C  2   1.014   C  3   0.979
     6   1    -0.530568      C  2   1.157   H  1   0.830
     7   1    -0.510760      C  3   1.093   H  9   0.785   C  2   0.116
     8   1    -0.510760      C  4   1.093   H 10   0.785   C  2   0.116
     9   1    -0.506710      C  3   1.119   H  7   0.836   C  2   0.038
    10   1    -0.506710      C  4   1.119   H  8   0.836   C  2   0.038
    11   1    -0.506573      C  3   1.131   H  5   0.845   (other: 0.024)
    12   1    -0.506573      C  4   1.131   H  6   0.845   (other: 0.024)
    13   2    -0.109640      C  2   0.783   H  9   0.067   H 10   0.067   H  7   0.021   H  8   0.021   (other: 0.041)

 Localized orbitals saved to record      2200.2  (orbital set 4)


 **********************************************************************************************************************************
 DATASETS  * FILE   NREC   LENGTH (MB)   RECORD NAMES
              1      20       48.47       500      610      700      900      950      970     1000      129      960     1100   
                                          VAR    BASINP    GEOM    SYMINP    ZMAT    AOBASIS   BASIS     P2S    ABASIS      S 
                                         1400     1410     1200     1210     1080     1600     1650     1300     1700     1800   
                                           T        V       H0       H01     AOSYM     SMH    MOLCAS    ERIS     OPER     GRID   

              2       5        3.21       700     1000      520     1800     2200   
                                         GEOM     BASIS   MCVARS    GRID      UKS  

 PROGRAMS   *        TOTAL      IBBA       UKS       INT
 CPU TIMES  *         8.16      0.03      7.08      0.91
 REAL TIME  *         9.63 SEC
 DISK USED  *       105.25 MB      
 **********************************************************************************************************************************
 Molecular orbitals read from record     2200.2  Type=UKS/LOCAL(IBO)  
 Occupation numbers read from record     2200.2  Type=UKS/LOCAL(IBO)  
 Orbital energies read from record       2200.2  Type=UKS/LOCAL(IBO)  
 Redundancy group numbers read from rec  2200.2  Type=UKS/BETA (state 1.1)

 IBBA/SVP energy=      0.000000000000

        UKS-SCF 
   -118.28954278
 **********************************************************************************************************************************
 Molpro calculation terminated
