
 Primary working directories    : /tmp/sb13343
 Secondary working directories  : /tmp/sb13343
 Wavefunction directory         : /panfs/panasas01/chem/sb13343/wfu/
 Main file repository           : /tmp/sb13343/

 SHA1      : b4a5b34a9e711420743f49e6833241d17c61fb3c
 NAME      : 2099.9.b4a5b34
 ARCHNAME  : linux/x86_64_openmp
 FC        : /cm/shared/languages/GCC-6.1/bin/gfortran
 BLASLIB   : -lblas
 id        : simonbennie

 Nodes     nprocs
 node32-018    1

 Using customized tuning parameters: mindgm=1; mindgv=20; mindgc=4; mindgr=1; noblas=0; minvec=7
 default implementation of scratch files=df  

 memory,500,m
 geomtyp=xyz
 nosym
 noorient
 geometry={
 H         -1.57413        0.33845        0.00000
 C         -0.49500        0.20144        0.00000
 C          0.18857       -0.05954       -1.30114
 C          0.18857       -0.05954        1.30114
 H         -0.33790        0.40751       -2.14134
 H         -0.33790        0.40751        2.14134
 H          1.22176        0.31596       -1.29638
 H          1.22176        0.31596        1.29638
 H          0.25678       -1.13976       -1.52896
 H          0.25678       -1.13976        1.52896
 }
 basis={ default,svp }
 {ks,CS,direct;wf,25,1,1}
 {ibba,bonds=1}

 Variables initialized (895), CPU time= 0.00 sec
 Commands  initialized (725), CPU time= 0.02 sec, 591 directives.
 Default parameters read. Elapsed time= 0.08 sec

 Checking input...
 Passed
1


                                         ***  PROGRAM SYSTEM MOLPRO  ***
                                       Copyright, TTI GmbH Stuttgart, 2015
                                    Version 2099.9 linked May 26 2017 16:03:21


 **********************************************************************************************************************************
 LABEL *                                                                                 
  64 bit serial version                                                                  DATE: 08-Jun-17          TIME: 15:16:01  
 **********************************************************************************************************************************

 SHA1:             b4a5b34a9e711420743f49e6833241d17c61fb3c
 **********************************************************************************************************************************
 SETTING GEOMTYP        =    XYZ

 Variable memory set to  500000000 words,  buffer space 

 ZSYMEL=NOSYM

 SETTING BASIS          =    SVP


 Recomputing integrals since basis changed


 Using spherical harmonics

 Library entry H      S def2-SVP             selected for orbital group  1
 Library entry H      P def2-SVP             selected for orbital group  1
 Library entry C      S def2-SVP             selected for orbital group  2
 Library entry C      P def2-SVP             selected for orbital group  2
 Library entry C      D def2-SVP             selected for orbital group  2


 PROGRAM * SEWARD (Integral evaluation for generally contracted gaussian basis sets)     Author: Roland Lindh, 1990

 Geometry written to block  1 of record 700


 Point group  C1  



 ATOMIC COORDINATES

 NR  ATOM    CHARGE       X              Y              Z

   1  H       1.00   -2.974674584    0.639577807    0.000000000
   2  C       6.00   -0.935414432    0.380666431    0.000000000
   3  C       6.00    0.356345655   -0.112514293   -2.458798250
   4  C       6.00    0.356345655   -0.112514293    2.458798250
   5  H       1.00   -0.638538457    0.770082293   -4.046546140
   6  H       1.00   -0.638538457    0.770082293    4.046546140
   7  H       1.00    2.308791790    0.597077866   -2.449803153
   8  H       1.00    2.308791790    0.597077866    2.449803153
   9  H       1.00    0.485243874   -2.153834248   -2.889315655
  10  H       1.00    0.485243874   -2.153834248    2.889315655

 Bond lengths in Bohr (Angstrom)

 1-2  2.055630578  2-3  2.820914777  2-4  2.820914777  3-5  2.071162595  3-7  2.077413742
     ( 1.087792856)     ( 1.492763814)     ( 1.492763814)     ( 1.096012045)     ( 1.099320010)

  3- 9  2.090202656   4- 6  2.071162595   4- 8  2.077413742   4-10  2.090202656
       ( 1.106087612)       ( 1.096012045)       ( 1.099320010)       ( 1.106087612)

 Bond angles

  1-2-3  118.44375943   1-2-4  118.44375943   2-3-5  111.94558337   2-3-7  111.52358867

  2- 3- 9  112.24140213   2- 4- 6  111.94558337   2- 4- 8  111.52358867   2- 4-10  112.24140213

  3-2-4  121.29758064   5-3-7  108.01204745   5-3-9  106.73207413   6-4-8  108.01204745

  6- 4-10  106.73207413   7- 3- 9  106.05262855   8- 4-10  106.05262855

 NUCLEAR CHARGE:                   25
 NUMBER OF PRIMITIVE AOS:         124
 NUMBER OF SYMMETRY AOS:          121
 NUMBER OF CONTRACTIONS:           77   (  77A   )
 NUMBER OF CORE ORBITALS:           3   (   3A   )
 NUMBER OF VALENCE ORBITALS:       19   (  19A   )


 NUCLEAR REPULSION ENERGY   75.20704826


 Eigenvalues of metric

         1 0.402E-02 0.537E-02 0.229E-01 0.265E-01 0.266E-01 0.379E-01 0.436E-01 0.492E-01


 Contracted 2-electron integrals neglected if value below      1.0D-11
 AO integral compression algorithm  1   Integral accuracy      1.0D-11

     19.923 MB (compressed) written to integral file ( 49.4%)


 NUMBER OF SORTED TWO-ELECTRON INTEGRALS:    4510506.     BUFFER LENGTH:  32768
 NUMBER OF SEGMENTS:   1  SEGMENT LENGTH:    4510506      RECORD LENGTH: 524288

 Memory used in sort:       5.07 MW

 SORT1 READ     5074366. AND WROTE     4244391. INTEGRALS IN     13 RECORDS. CPU TIME:     0.05 SEC, REAL TIME:     0.12 SEC
 SORT2 READ     4244391. AND WROTE     4510506. INTEGRALS IN     76 RECORDS. CPU TIME:     0.15 SEC, REAL TIME:     0.17 SEC

 FILE SIZES:   FILE 1:    50.3 MBYTE,  FILE 4:    54.6 MBYTE,   TOTAL:    104.8 MBYTE

 OPERATOR DM      FOR CENTER  0  COORDINATES:    0.000000    0.000000    0.000000


 **********************************************************************************************************************************
 DATASETS  * FILE   NREC   LENGTH (MB)   RECORD NAMES
              1      19       47.44       500      610      700      900      950      970     1000      129      960     1100   
                                          VAR    BASINP    GEOM    SYMINP    ZMAT    AOBASIS   BASIS     P2S    ABASIS      S 
                                         1400     1410     1200     1210     1080     1600     1650     1300     1700   
                                           T        V       H0       H01     AOSYM     SMH    MOLCAS    ERIS     OPER   

 PROGRAMS   *        TOTAL       INT
 CPU TIMES  *         1.01      0.87
 REAL TIME  *         1.48 SEC
 DISK USED  *       105.25 MB      
 **********************************************************************************************************************************

 Density functional group CS=CS1
 Functional: CS1(Colle-Salvetti (Gradient form))                               Gradient terms: 1
 Use grid at  1800.2

 Functional: CS1                       Factor:  1.0000

 Generated new metagrid on record  1800.2 with target accuracy 1.0D-06 and 32470 points in CPU time    0.7
 Computed new grid on record 1800.1 in CPU time    0.8
   65184 words reserved for DFT integration

 PROGRAM * RKS-SCF (Restricted open shell Kohn-Sham)     Authors: W. Meyer, H.-J. Werner, P.J. Knowles, 1993

 NUMBER OF ELECTRONS:      13+   12-    SPACE SYMMETRY=1    SPIN SYMMETRY: Doublet 
 CONVERGENCE THRESHOLDS:    1.00E-05 (Density)    1.00E-06 (Energy)
 MAX. NUMBER OF ITERATIONS:       60
 INTERPOLATION TYPE:            DIIS
 INTERPOLATION STEPS:              2 (START)      1 (STEP)
 LEVEL SHIFTS:                 -0.60 (CLOSED) -0.30 (OPEN) 



 Use fine grid record 1800.2 for energy threshold  1.0D-06
 Orbital guess generated from atomic densities. Full valence occupancy:   13

 Molecular orbital dump at record        2100.2

 Initial alpha occupancy:  13
 Initial beta  occupancy:  12
 Wave function symmetry:    1

 ITERATION    DDIFF          GRAD             ENERGY        2-EL.EN.            DIPOLE MOMENTS         DIIS   ORB.
    1      0.000D+00      0.000D+00      -100.73787160    242.676635   -0.17325    0.18999   -0.00000    0    start
    2      0.000D+00      0.976D-02      -100.78998966    252.710372    0.06971   -0.07363   -0.00000    1    diag,B
    3      0.188D-01      0.601D-02      -100.81980878    249.005506   -0.03656    0.04147   -0.00000    2    diag,B
    4      0.513D-02      0.371D-03      -100.82004003    249.118064   -0.02432    0.01235   -0.00000    3    diag,B
    5      0.166D-02      0.200D-03      -100.82011578    249.137034   -0.02932    0.01132   -0.00000    4    diag,B
    6      0.884D-03      0.688D-04      -100.82014997    249.147312   -0.03018    0.00440   -0.00000    5    diag,B
    7      0.895D-03      0.320D-04      -100.82016649    249.151546   -0.03152   -0.00101   -0.00000    6    fixocc
    8      0.667D-03      0.185D-04      -100.82017561    249.153532   -0.03227   -0.00506   -0.00000    7    diag,B
    9      0.584D-03      0.950D-05      -100.82017860    249.154286   -0.03273   -0.00795   -0.00000    8    diag,B
   10      0.363D-03      0.494D-05      -100.82017937    249.154579   -0.03287   -0.00927   -0.00000    9    orth
   11      0.204D-03      0.212D-05      -100.82017947    249.154662   -0.03295   -0.00973   -0.00000    9    diag,B
   12      0.680D-04      0.101D-05      -100.82017949    249.154552   -0.03299   -0.00987   -0.00000    9    diag,B
   13      0.294D-04      0.424D-06      -100.82017949    249.154658   -0.03299   -0.00992   -0.00000    9    diag,B
   14      0.883D-05      0.198D-06      -100.82017950    249.154579   -0.03299   -0.00992   -0.00000    0    orth

 Final alpha occupancy:  13
 Final beta  occupancy:  12

 !RKS STATE 1.1 Energy               -100.820179495097
 Nuclear energy                        75.20704826
 One-electron energy                 -299.85636620
 Two-electron energy                  124.57728959
 Density functional                    -0.74815114     CS1=-0.74815114
 Virial quotient                       -0.91879722
 !RKS STATE 1.1 Dipole moment          -0.03299470    -0.00991859    -0.00000000
 Dipole moment /Debye                  -0.08385866    -0.02520888    -0.00000000

 Orbital energies:

         1.1          2.1          3.1          4.1          5.1          6.1          7.1          8.1          9.1         10.1
     -8.202675    -8.202664    -8.188106    -0.373601    -0.292530    -0.184867    -0.124526    -0.106025    -0.079165    -0.054122

        11.1         12.1         13.1         14.1         15.1
     -0.022869    -0.011435     0.141384     0.193275     0.228955

 HOMO     13.1     0.141384 =       3.8473eV
 LUMO     14.1     0.193275 =       5.2593eV
 LUMO-HOMO         0.051890 =       1.4120eV


 **********************************************************************************************************************************
 DATASETS  * FILE   NREC   LENGTH (MB)   RECORD NAMES
              1      20       48.47       500      610      700      900      950      970     1000      129      960     1100   
                                          VAR    BASINP    GEOM    SYMINP    ZMAT    AOBASIS   BASIS     P2S    ABASIS      S 
                                         1400     1410     1200     1210     1080     1600     1650     1300     1700     1800   
                                           T        V       H0       H01     AOSYM     SMH    MOLCAS    ERIS     OPER     GRID   

              2       5        3.08       700     1000      520     1800     2100   
                                         GEOM     BASIS   MCVARS    GRID      RKS  

 PROGRAMS   *        TOTAL        KS       INT
 CPU TIMES  *        15.45     14.43      0.87
 REAL TIME  *        16.10 SEC
 DISK USED  *       105.25 MB      
 **********************************************************************************************************************************


 PROGRAM * Intrinsic Basis Bonding Analysis (IBBA)          Author: G. Knizia

 Molecular orbitals read from record     2100.2  Type=RKS/CANONICAL (state 1.1)
 Fock matrix read from record            2100.2  Type=RKS/TOTAL (state 1.1)
 Orbital energies read from record       2100.2  Type=RKS/CANONICAL (state 1.1)
 Density matrix read from record         2100.2  Type=RKS/CHARGE (state 1.1)

 Number of core orbitals:           3 (   3 )
 Number of closed-shell orbitals:   9 (   9 )
 Number of active  orbitals:        1 (   1 )

 Basis set MINAO-AUTO-PP generated.      Number of basis functions:   22 

 Polarized AO type:                A = (O Ot + (1-O)(1-Ot)) P12
 Orthogonalization method:         Symmetric (Loewdin)
 Localization functional:          L = sum[A,i] <i|n_A|i>^4 -> max

 Localization group 1:  12 orbitals, occupancy  2.000
 Iterative localization: IB/PM,    8 iter; Final gradient 0.38E-08

 Bond order analysis:       [THRPRINT= 0.020]

   CEN ATOM   CEN ATOM     WIBERG.BO      RENORM.BO
     1   H  -   2   C       0.945587       0.952383

     2   C  -   4   C       1.198184       1.487711
     2   C  -   3   C       1.198184       1.487711
     2   C  -   1   H       0.945587       0.952383
     2   C  -   9   H       0.079726       0.250943
     2   C  -  10   H       0.079726       0.250943
     2   C  -   7   H       0.028562       0.080204
     2   C  -   8   H       0.028562       0.080204

     3   C  -   2   C       1.198184       1.487711
     3   C  -   5   H       0.944407       0.979601
     3   C  -   7   H       0.918027       0.970249
     3   C  -   9   H       0.852861       0.993684

     4   C  -   2   C       1.198184       1.487711
     4   C  -   6   H       0.944407       0.979601
     4   C  -   8   H       0.918027       0.970249
     4   C  -  10   H       0.852861       0.993684

     5   H  -   3   C       0.944407       0.979601

     6   H  -   4   C       0.944407       0.979601

     7   H  -   3   C       0.918027       0.970249
     7   H  -   2   C       0.028562       0.080204

     8   H  -   4   C       0.918027       0.970249
     8   H  -   2   C       0.028562       0.080204

     9   H  -   3   C       0.852861       0.993684
     9   H  -   2   C       0.079726       0.250943

    10   H  -   4   C       0.852861       0.993684
    10   H  -   2   C       0.079726       0.250943


 Valency analysis:

   CEN ATOM   TOT.VALENCE
     1   H       0.999621
     2   C       3.586904
     3   C       3.960543
     4   C       3.960543
     5   H       0.995429
     6   H       0.995429
     7   H       0.993236
     8   H       0.993236
     9   H       0.976952
    10   H       0.976952
 Localization group 2:   1 orbitals, occupancy  1.000
 Iterative localization: IB/PM,    1 iter; Final gradient 0.00E+00

 Bond order analysis:       [THRPRINT= 0.020]

   CEN ATOM   CEN ATOM     WIBERG.BO      RENORM.BO

     2   C  -  10   H       0.145531       0.500000
     2   C  -   9   H       0.145531       0.500000
     2   C  -   7   H       0.046427       0.500000
     2   C  -   8   H       0.046427       0.500000





     7   H  -   2   C       0.046427       0.500000

     8   H  -   2   C       0.046427       0.500000

     9   H  -   2   C       0.145531       0.500000
     9   H  -  10   H       0.021777       0.500000

    10   H  -   2   C       0.145531       0.500000
    10   H  -   9   H       0.021777       0.500000


 Valency analysis:

   CEN ATOM   TOT.VALENCE
     1   H       0.000756
     2   C       0.422114
     3   C       0.008601
     4   C       0.008601
     5   H       0.018204
     6   H       0.018204
     7   H       0.064361
     8   H       0.064361
     9   H       0.186918
    10   H       0.186918

 Total charge composition:

   CEN ATOM         s          p       ELECTRONS ->P.CHARGE
     1   H       0.98090                 0.98090    0.01910
     2   C       2.89942    3.12150      6.02091   -0.02091
     3   C       2.88065    3.27328      6.15393   -0.15393
     4   C       2.88065    3.27328      6.15393   -0.15393
     5   H       0.94158                 0.94158    0.05842
     6   H       0.94158                 0.94158    0.05842
     7   H       0.95105                 0.95105    0.04895
     8   H       0.95105                 0.95105    0.04895
     9   H       0.95253                 0.95253    0.04747
    10   H       0.95253                 0.95253    0.04747

 Total charge composition, AO contributions:

   CEN ATOM SHL      SPHERICAL COMPONENTS
     1   H  1s       0.98090

     2   C  1s       1.99823
     2   C  2s       0.90119
     2   C  2p       1.04590    1.06235    1.01324

     3   C  1s       1.99772
     3   C  2s       0.88293
     3   C  2p       1.09629    1.08040    1.09659

     4   C  1s       1.99772
     4   C  2s       0.88293
     4   C  2p       1.09629    1.08040    1.09659

     5   H  1s       0.94158

     6   H  1s       0.94158

     7   H  1s       0.95105

     8   H  1s       0.95105

     9   H  1s       0.95253

    10   H  1s       0.95253

 Active orbital charges:

   CEN ATOM         s          p       ELECTRONS ->SPIN.DEN
     1   H       0.00038                 0.00038    0.00038
     2   C       0.00541    0.69193      0.69734    0.69734
     3   C       0.00055    0.00376      0.00432    0.00432
     4   C       0.00055    0.00376      0.00432    0.00432
     5   H       0.00919                 0.00919    0.00919
     6   H       0.00919                 0.00919    0.00919
     7   H       0.03329                 0.03329    0.03329
     8   H       0.03329                 0.03329    0.03329
     9   H       0.10435                 0.10435    0.10435
    10   H       0.10435                 0.10435    0.10435

 Active orbital charges, AO contributions:

   CEN ATOM SHL      SPHERICAL COMPONENTS
     1   H  1s       0.00038

     2   C  1s       0.00000
     2   C  2s       0.00541
     2   C  2p       0.02607    0.66586    0.00000

     3   C  1s       0.00000
     3   C  2s       0.00055
     3   C  2p       0.00007    0.00365    0.00005

     4   C  1s       0.00000
     4   C  2s       0.00055
     4   C  2p       0.00007    0.00365    0.00005

     5   H  1s       0.00919

     6   H  1s       0.00919

     7   H  1s       0.03329

     8   H  1s       0.03329

     9   H  1s       0.10435

    10   H  1s       0.10435

 Summary of localized orbital composition:   [THRPRINT= 0.020]

   ORB  GRP  ORB.ENERGY      CENTERS/CHARGES
     1   1    -8.122266      C  4   2.000
     2   1    -8.122266      C  3   2.000
     3   1    -8.116200      C  2   2.000
     4   1    -0.228893      C  4   1.027   C  2   0.961
     5   1    -0.228893      C  3   1.027   C  2   0.961
     6   1    -0.151848      C  4   1.028   H 10   0.834   C  2   0.128
     7   1    -0.151848      C  3   1.028   H  9   0.834   C  2   0.128
     8   1    -0.146837      C  2   1.005   H  1   0.968   (other: 0.027)
     9   1    -0.145232      C  3   1.036   H  7   0.904   C  2   0.046
    10   1    -0.145232      C  4   1.036   H  8   0.904   C  2   0.046
    11   1    -0.141546      C  4   1.043   H  6   0.921   C  2   0.024
    12   1    -0.141546      C  3   1.043   H  5   0.921   C  2   0.024
    13   2     0.132496      C  2   0.697   H 10   0.104   H  9   0.104   H  7   0.033   H  8   0.033   (other: 0.027)

 Localized orbitals saved to record      2100.2  (orbital set 2)


 **********************************************************************************************************************************
 DATASETS  * FILE   NREC   LENGTH (MB)   RECORD NAMES
              1      20       48.47       500      610      700      900      950      970     1000      129      960     1100   
                                          VAR    BASINP    GEOM    SYMINP    ZMAT    AOBASIS   BASIS     P2S    ABASIS      S 
                                         1400     1410     1200     1210     1080     1600     1650     1300     1700     1800   
                                           T        V       H0       H01     AOSYM     SMH    MOLCAS    ERIS     OPER     GRID   

              2       5        3.13       700     1000      520     1800     2100   
                                         GEOM     BASIS   MCVARS    GRID      RKS  

 PROGRAMS   *        TOTAL      IBBA        KS       INT
 CPU TIMES  *        15.48      0.03     14.43      0.87
 REAL TIME  *        16.19 SEC
 DISK USED  *       105.25 MB      
 **********************************************************************************************************************************
 Molecular orbitals read from record     2100.2  Type=RKS/LOCAL(IBO)  
 Occupation numbers read from record     2100.2  Type=RKS/LOCAL(IBO)  
 Orbital energies read from record       2100.2  Type=RKS/LOCAL(IBO)  
 Redundancy group numbers read from rec  2100.2  Type=RKS/LOCAL(IBO)  

 IBBA/SVP energy=      0.000000000000

        KS-SCF  
   -100.82017950
 **********************************************************************************************************************************
 Molpro calculation terminated
