
 Primary working directories    : /tmp/sb13343
 Secondary working directories  : /tmp/sb13343
 Wavefunction directory         : /panfs/panasas01/chem/sb13343/wfu/
 Main file repository           : /tmp/sb13343/

 SHA1      : b4a5b34a9e711420743f49e6833241d17c61fb3c
 NAME      : 2099.9.b4a5b34
 ARCHNAME  : linux/x86_64_openmp
 FC        : /cm/shared/languages/GCC-6.1/bin/gfortran
 BLASLIB   : -lblas
 id        : simonbennie

 Nodes     nprocs
 node32-043    1

 Using customized tuning parameters: mindgm=1; mindgv=20; mindgc=4; mindgr=1; noblas=0; minvec=7
 default implementation of scratch files=df  

 memory,500,m
 geomtyp=xyz
 nosym
 noorient
 geometry={
 H         -1.57413        0.33845        0.00000
 C         -0.49500        0.20144        0.00000
 C          0.18857       -0.05954       -1.30114
 C          0.18857       -0.05954        1.30114
 H         -0.33790        0.40751       -2.14134
 H         -0.33790        0.40751        2.14134
 H          1.22176        0.31596       -1.29638
 H          1.22176        0.31596        1.29638
 H          0.25678       -1.13976       -1.52896
 H          0.25678       -1.13976        1.52896
 }
 basis={ default,svp }
 {uks,M06-2X,direct;wf,25,1,1}
 {ibba,bonds=1}

 Variables initialized (895), CPU time= 0.00 sec
 Commands  initialized (725), CPU time= 0.01 sec, 591 directives.
 Default parameters read. Elapsed time= 0.08 sec

 Checking input...
 Passed
1


                                         ***  PROGRAM SYSTEM MOLPRO  ***
                                       Copyright, TTI GmbH Stuttgart, 2015
                                    Version 2099.9 linked May 26 2017 16:03:21


 **********************************************************************************************************************************
 LABEL *                                                                                 
  64 bit serial version                                                                  DATE: 08-Jun-17          TIME: 15:33:05  
 **********************************************************************************************************************************

 SHA1:             b4a5b34a9e711420743f49e6833241d17c61fb3c
 **********************************************************************************************************************************
 SETTING GEOMTYP        =    XYZ

 Variable memory set to  500000000 words,  buffer space 

 ZSYMEL=NOSYM

 SETTING BASIS          =    SVP


 Recomputing integrals since basis changed


 Using spherical harmonics

 Library entry H      S def2-SVP             selected for orbital group  1
 Library entry H      P def2-SVP             selected for orbital group  1
 Library entry C      S def2-SVP             selected for orbital group  2
 Library entry C      P def2-SVP             selected for orbital group  2
 Library entry C      D def2-SVP             selected for orbital group  2


 PROGRAM * SEWARD (Integral evaluation for generally contracted gaussian basis sets)     Author: Roland Lindh, 1990

 Geometry written to block  1 of record 700


 Point group  C1  



 ATOMIC COORDINATES

 NR  ATOM    CHARGE       X              Y              Z

   1  H       1.00   -2.974674584    0.639577807    0.000000000
   2  C       6.00   -0.935414432    0.380666431    0.000000000
   3  C       6.00    0.356345655   -0.112514293   -2.458798250
   4  C       6.00    0.356345655   -0.112514293    2.458798250
   5  H       1.00   -0.638538457    0.770082293   -4.046546140
   6  H       1.00   -0.638538457    0.770082293    4.046546140
   7  H       1.00    2.308791790    0.597077866   -2.449803153
   8  H       1.00    2.308791790    0.597077866    2.449803153
   9  H       1.00    0.485243874   -2.153834248   -2.889315655
  10  H       1.00    0.485243874   -2.153834248    2.889315655

 Bond lengths in Bohr (Angstrom)

 1-2  2.055630578  2-3  2.820914777  2-4  2.820914777  3-5  2.071162595  3-7  2.077413742
     ( 1.087792856)     ( 1.492763814)     ( 1.492763814)     ( 1.096012045)     ( 1.099320010)

  3- 9  2.090202656   4- 6  2.071162595   4- 8  2.077413742   4-10  2.090202656
       ( 1.106087612)       ( 1.096012045)       ( 1.099320010)       ( 1.106087612)

 Bond angles

  1-2-3  118.44375943   1-2-4  118.44375943   2-3-5  111.94558337   2-3-7  111.52358867

  2- 3- 9  112.24140213   2- 4- 6  111.94558337   2- 4- 8  111.52358867   2- 4-10  112.24140213

  3-2-4  121.29758064   5-3-7  108.01204745   5-3-9  106.73207413   6-4-8  108.01204745

  6- 4-10  106.73207413   7- 3- 9  106.05262855   8- 4-10  106.05262855

 NUCLEAR CHARGE:                   25
 NUMBER OF PRIMITIVE AOS:         124
 NUMBER OF SYMMETRY AOS:          121
 NUMBER OF CONTRACTIONS:           77   (  77A   )
 NUMBER OF CORE ORBITALS:           3   (   3A   )
 NUMBER OF VALENCE ORBITALS:       19   (  19A   )


 NUCLEAR REPULSION ENERGY   75.20704826


 Eigenvalues of metric

         1 0.402E-02 0.537E-02 0.229E-01 0.265E-01 0.266E-01 0.379E-01 0.436E-01 0.492E-01


 Contracted 2-electron integrals neglected if value below      1.0D-11
 AO integral compression algorithm  1   Integral accuracy      1.0D-11

     19.923 MB (compressed) written to integral file ( 49.4%)


 NUMBER OF SORTED TWO-ELECTRON INTEGRALS:    4510506.     BUFFER LENGTH:  32768
 NUMBER OF SEGMENTS:   1  SEGMENT LENGTH:    4510506      RECORD LENGTH: 524288

 Memory used in sort:       5.07 MW

 SORT1 READ     5074366. AND WROTE     4244391. INTEGRALS IN     13 RECORDS. CPU TIME:     0.05 SEC, REAL TIME:     0.11 SEC
 SORT2 READ     4244391. AND WROTE     4510506. INTEGRALS IN     76 RECORDS. CPU TIME:     0.14 SEC, REAL TIME:     0.17 SEC

 FILE SIZES:   FILE 1:    50.3 MBYTE,  FILE 4:    54.6 MBYTE,   TOTAL:    104.8 MBYTE

 OPERATOR DM      FOR CENTER  0  COORDINATES:    0.000000    0.000000    0.000000


 **********************************************************************************************************************************
 DATASETS  * FILE   NREC   LENGTH (MB)   RECORD NAMES
              1      19       47.44       500      610      700      900      950      970     1000      129      960     1100   
                                          VAR    BASINP    GEOM    SYMINP    ZMAT    AOBASIS   BASIS     P2S    ABASIS      S 
                                         1400     1410     1200     1210     1080     1600     1650     1300     1700   
                                           T        V       H0       H01     AOSYM     SMH    MOLCAS    ERIS     OPER   

 PROGRAMS   *        TOTAL       INT
 CPU TIMES  *         1.02      0.88
 REAL TIME  *         1.45 SEC
 DISK USED  *       105.25 MB      
 **********************************************************************************************************************************

 Density functional group M06-2X=XC-M06-2X
 Functional: XC-M06-2X(via MFM 1.6)                                            Gradient terms: 1
 Use grid at  1800.2


 Exact exchange will be calculated, factor:  0.5400

 Functional: XC-M06-2X                 Factor:  1.0000

 Generated new metagrid on record  1800.2 with target accuracy 1.0D-06 and 32470 points in CPU time    0.7
 Computed new grid on record 1800.1 in CPU time    0.8
   65184 words reserved for DFT integration

 PROGRAM * UKS-SCF (Unrestricted Kohn-Sham)     Authors: W. Meyer, H.-J. Werner, P.J. Knowles, 1993

 NUMBER OF ELECTRONS:      13+   12-    SPACE SYMMETRY=1    SPIN SYMMETRY: Doublet 
 CONVERGENCE THRESHOLDS:    1.00E-05 (Density)    1.00E-06 (Energy)
 MAX. NUMBER OF ITERATIONS:       60
 INTERPOLATION TYPE:            DIIS
 INTERPOLATION STEPS:              2 (START)      1 (STEP)
 LEVEL SHIFTS:                 -0.20 (ALPHA)  -0.20 (BETA) 



 Use fine grid record 1800.2 for energy threshold  1.0D-06
 Orbital guess generated from atomic densities. Full valence occupancy:   13

 Molecular orbital dump at record        2200.2

 Initial alpha occupation  13
 Initial beta  occupation  12

 ITERATION    DDIFF          GRAD             ENERGY        2-EL.EN.            DIPOLE MOMENTS         DIIS
    1      0.000D+00      0.000D+00      -118.23922873    248.656788    0.21251   -0.26340    0.00000    0
    2      0.762D-02      0.432D-02      -118.30251502    242.616058    0.09566   -0.14250   -0.00000    1
    3      0.192D-02      0.125D-02      -118.30768615    243.519323    0.06786   -0.12773   -0.00000    2
    4      0.139D-02      0.494D-03      -118.30965811    243.427959    0.04047   -0.10427   -0.00000    3
    5      0.566D-03      0.188D-03      -118.30996081    243.407149    0.03075   -0.09439   -0.00000    4
    6      0.212D-03      0.669D-04      -118.31000786    243.406269    0.02917   -0.09104   -0.00000    5
    7      0.542D-04      0.175D-04      -118.31001055    243.405518    0.02845   -0.08990   -0.00000    6
    8      0.155D-04      0.544D-05      -118.31001073    243.406829    0.02862   -0.08991   -0.00000    7
    9      0.730D-05      0.175D-05      -118.31001077    243.406647    0.02870   -0.08992   -0.00000    7
   10      0.311D-05      0.609D-06      -118.31001077    243.406679    0.02870   -0.08991   -0.00000    7

 Final alpha occupancy:  13
 Final beta  occupancy:  12

 !UKS STATE 1.1 Energy               -118.310010770589
 Nuclear energy                        75.20704826
 One-electron energy                 -306.18132973
 Two-electron energy                  121.70333971
 Density functional                    -9.03906901     XC-M06-2X=-9.03906901
 Virial quotient                       -1.01266172
 !UKS STATE 1.1 Dipole moment           0.02870342    -0.08991291    -0.00000000
 Dipole moment /Debye                   0.07295203    -0.22852086    -0.00000000

 Orbital energies for positive spin:

         1.1          2.1          3.1          4.1          5.1          6.1          7.1          8.1          9.1         10.1
    -10.550381   -10.543451   -10.543432    -0.866957    -0.770536    -0.641195    -0.519779    -0.494006    -0.472765    -0.446612

        11.1         12.1         13.1         14.1         15.1
     -0.413796    -0.405933    -0.234562     0.109720     0.138477

 Orbital energies for negative spin:

         1.1          2.1          3.1          4.1          5.1          6.1          7.1          8.1          9.1         10.1
    -10.544186   -10.544172   -10.542709    -0.847045    -0.767013    -0.616562    -0.511205    -0.470999    -0.464495    -0.438203

        11.1         12.1         13.1         14.1         15.1
     -0.409567    -0.400306     0.018416     0.104980     0.140336

 HOMO     13.1    -0.234562 =      -6.3828eV
 LUMO    -13.1     0.018416 =       0.5011eV
 LUMO-HOMO         0.252978 =       6.8839eV

 EXPECTATION VALUE OF S**2:             0.75508115

 Occupation number threshold for canonical orbitals:  1.999000 (occupied),  0.001000 (virtual)

 Number of pseudo-canonical orbitals per symmetry:   11
 Number of active natural orbitals per symmetry:      3

 Natural orbitals saved to record    2200.2 (Orbital set 3)

 Orbital spaces for UNO-CAS (Min. occupation: 0.020  Max. occupation: 1.980):

 Closed:       12
 Active:        1


 **********************************************************************************************************************************
 DATASETS  * FILE   NREC   LENGTH (MB)   RECORD NAMES
              1      20       48.47       500      610      700      900      950      970     1000      129      960     1100   
                                          VAR    BASINP    GEOM    SYMINP    ZMAT    AOBASIS   BASIS     P2S    ABASIS      S 
                                         1400     1410     1200     1210     1080     1600     1650     1300     1700     1800   
                                           T        V       H0       H01     AOSYM     SMH    MOLCAS    ERIS     OPER     GRID   

              2       5        3.16       700     1000      520     1800     2200   
                                         GEOM     BASIS   MCVARS    GRID      UKS  

 PROGRAMS   *        TOTAL       UKS       INT
 CPU TIMES  *        18.79     17.77      0.88
 REAL TIME  *        19.35 SEC
 DISK USED  *       105.25 MB      
 **********************************************************************************************************************************


 PROGRAM * Intrinsic Basis Bonding Analysis (IBBA)          Author: G. Knizia

 Molecular orbitals read from record     2200.2  Type=UKS/ALPHA (state 1.1)
 Fock matrix read from record            2200.2  Type=UKS/TOTAL (state 1.1)
 Orbital energies read from record       2200.2  Type=UKS/ALPHA (state 1.1)
 Density matrix read from record         2200.2  Type=UKS/CHARGE (state 1.1)

 Number of core orbitals:           3 (   3 )
 Number of closed-shell orbitals:   9 (   9 )
 Number of active  orbitals:        1 (   1 )

 Basis set MINAO-AUTO-PP generated.      Number of basis functions:   22 

 Polarized AO type:                A = (O Ot + (1-O)(1-Ot)) P12
 Orthogonalization method:         Symmetric (Loewdin)
 Localization functional:          L = sum[A,i] <i|n_A|i>^4 -> max

 Localization group 1:  12 orbitals, occupancy  2.000
 Iterative localization: IB/PM,    8 iter; Final gradient 0.49E-09

 Bond order analysis:       [THRPRINT= 0.020]

   CEN ATOM   CEN ATOM     WIBERG.BO      RENORM.BO
     1   H  -   2   C       0.945808       0.970325

     2   C  -   3   C       1.180842       1.482867
     2   C  -   4   C       1.180842       1.482867
     2   C  -   1   H       0.945808       0.970325
     2   C  -   9   H       0.069907       0.271348
     2   C  -  10   H       0.069907       0.271348
     2   C  -   7   H       0.022334       0.079446
     2   C  -   8   H       0.022334       0.079446

     3   C  -   2   C       1.180842       1.482867
     3   C  -   5   H       0.950792       0.989111
     3   C  -   7   H       0.932007       0.988489
     3   C  -   9   H       0.861766       0.996370

     4   C  -   2   C       1.180842       1.482867
     4   C  -   6   H       0.950792       0.989111
     4   C  -   8   H       0.932007       0.988489
     4   C  -  10   H       0.861766       0.996370

     5   H  -   3   C       0.950792       0.989111

     6   H  -   4   C       0.950792       0.989111

     7   H  -   3   C       0.932007       0.988489
     7   H  -   2   C       0.022334       0.079446

     8   H  -   4   C       0.932007       0.988489
     8   H  -   2   C       0.022334       0.079446

     9   H  -   3   C       0.861766       0.996370
     9   H  -   2   C       0.069907       0.271348

    10   H  -   4   C       0.861766       0.996370
    10   H  -   2   C       0.069907       0.271348


 Valency analysis:

   CEN ATOM   TOT.VALENCE
     1   H       0.973395
     2   C       3.510346
     3   C       3.951050
     4   C       3.951050
     5   H       0.978695
     6   H       0.978695
     7   H       0.976013
     8   H       0.976013
     9   H       0.957984
    10   H       0.957984
 Localization group 2:   1 orbitals, occupancy  1.000
 Iterative localization: IB/PM,    1 iter; Final gradient 0.00E+00

 Bond order analysis:       [THRPRINT= 0.020]

   CEN ATOM   CEN ATOM     WIBERG.BO      RENORM.BO

     2   C  -   9   H       0.102272       0.500000
     2   C  -  10   H       0.102272       0.500000
     2   C  -   7   H       0.032075       0.500000
     2   C  -   8   H       0.032075       0.500000
     2   C  -   3   C       0.020829       0.500000
     2   C  -   4   C       0.020829       0.500000

     3   C  -   2   C       0.020829       0.500000

     4   C  -   2   C       0.020829       0.500000



     7   H  -   2   C       0.032075       0.500000

     8   H  -   2   C       0.032075       0.500000

     9   H  -   2   C       0.102272       0.500000

    10   H  -   2   C       0.102272       0.500000


 Valency analysis:

   CEN ATOM   TOT.VALENCE
     1   H       0.001848
     2   C       0.333663
     3   C       0.026071
     4   C       0.026071
     5   H       0.013762
     6   H       0.013762
     7   H       0.039857
     8   H       0.039857
     9   H       0.121309
    10   H       0.121309

 Total charge composition:

   CEN ATOM         s          p       ELECTRONS ->P.CHARGE
     1   H       0.83781                 0.83781    0.16219
     2   C       3.03893    3.28511      6.32405   -0.32405
     3   C       2.99610    3.33666      6.33275   -0.33275
     4   C       2.99610    3.33666      6.33275   -0.33275
     5   H       0.86097                 0.86097    0.13903
     6   H       0.86097                 0.86097    0.13903
     7   H       0.86546                 0.86546    0.13454
     8   H       0.86546                 0.86546    0.13454
     9   H       0.85988                 0.85988    0.14012
    10   H       0.85988                 0.85988    0.14012

 Total charge composition, AO contributions:

   CEN ATOM SHL      SPHERICAL COMPONENTS
     1   H  1s       0.83781

     2   C  1s       1.99188
     2   C  2s       1.04705
     2   C  2p       1.14078    1.10640    1.03793

     3   C  1s       1.99042
     3   C  2s       1.00568
     3   C  2p       1.13534    1.12303    1.07829

     4   C  1s       1.99042
     4   C  2s       1.00568
     4   C  2p       1.13534    1.12303    1.07829

     5   H  1s       0.86097

     6   H  1s       0.86097

     7   H  1s       0.86546

     8   H  1s       0.86546

     9   H  1s       0.85988

    10   H  1s       0.85988

 Active orbital charges:

   CEN ATOM         s          p       ELECTRONS ->SPIN.DEN
     1   H       0.00093                 0.00093    0.00093
     2   C       0.00552    0.78287      0.78839    0.78839
     3   C       0.00013    0.01308      0.01321    0.01321
     4   C       0.00013    0.01308      0.01321    0.01321
     5   H       0.00693                 0.00693    0.00693
     6   H       0.00693                 0.00693    0.00693
     7   H       0.02034                 0.02034    0.02034
     8   H       0.02034                 0.02034    0.02034
     9   H       0.06486                 0.06486    0.06486
    10   H       0.06486                 0.06486    0.06486

 Active orbital charges, AO contributions:

   CEN ATOM SHL      SPHERICAL COMPONENTS
     1   H  1s       0.00093

     2   C  1s       0.00001
     2   C  2s       0.00551
     2   C  2p       0.03240    0.75047    0.00000

     3   C  1s       0.00000
     3   C  2s       0.00013
     3   C  2p       0.00010    0.01283    0.00014

     4   C  1s       0.00000
     4   C  2s       0.00013
     4   C  2p       0.00010    0.01283    0.00014

     5   H  1s       0.00693

     6   H  1s       0.00693

     7   H  1s       0.02034

     8   H  1s       0.02034

     9   H  1s       0.06486

    10   H  1s       0.06486

 Summary of localized orbital composition:   [THRPRINT= 0.020]

   ORB  GRP  ORB.ENERGY      CENTERS/CHARGES
     1   1   -10.440092      C  2   2.000
     2   1   -10.425788      C  4   2.000
     3   1   -10.425788      C  3   2.000
     4   1    -0.672203      C  2   1.019   C  3   0.974
     5   1    -0.672203      C  2   1.019   C  4   0.974
     6   1    -0.586686      C  2   1.162   H  1   0.826
     7   1    -0.565611      C  3   1.092   H  9   0.788   C  2   0.114
     8   1    -0.565611      C  4   1.092   H 10   0.788   C  2   0.114
     9   1    -0.562485      C  4   1.117   H  8   0.839   C  2   0.037
    10   1    -0.562485      C  3   1.117   H  7   0.839   C  2   0.037
    11   1    -0.562305      C  3   1.129   H  5   0.848   (other: 0.023)
    12   1    -0.562305      C  4   1.129   H  6   0.848   (other: 0.023)
    13   2    -0.107239      C  2   0.788   H  9   0.065   H 10   0.065   H  7   0.020   H  8   0.020   (other: 0.041)

 Localized orbitals saved to record      2200.2  (orbital set 4)


 **********************************************************************************************************************************
 DATASETS  * FILE   NREC   LENGTH (MB)   RECORD NAMES
              1      20       48.47       500      610      700      900      950      970     1000      129      960     1100   
                                          VAR    BASINP    GEOM    SYMINP    ZMAT    AOBASIS   BASIS     P2S    ABASIS      S 
                                         1400     1410     1200     1210     1080     1600     1650     1300     1700     1800   
                                           T        V       H0       H01     AOSYM     SMH    MOLCAS    ERIS     OPER     GRID   

              2       5        3.21       700     1000      520     1800     2200   
                                         GEOM     BASIS   MCVARS    GRID      UKS  

 PROGRAMS   *        TOTAL      IBBA       UKS       INT
 CPU TIMES  *        18.82      0.02     17.77      0.88
 REAL TIME  *        19.44 SEC
 DISK USED  *       105.25 MB      
 **********************************************************************************************************************************
 Molecular orbitals read from record     2200.2  Type=UKS/LOCAL(IBO)  
 Occupation numbers read from record     2200.2  Type=UKS/LOCAL(IBO)  
 Orbital energies read from record       2200.2  Type=UKS/LOCAL(IBO)  
 Redundancy group numbers read from rec  2200.2  Type=UKS/BETA (state 1.1)

 IBBA/SVP energy=      0.000000000000

        UKS-SCF 
   -118.31001077
 **********************************************************************************************************************************
 Molpro calculation terminated
