
 Primary working directories    : /tmp/sb13343
 Secondary working directories  : /tmp/sb13343
 Wavefunction directory         : /panfs/panasas01/chem/sb13343/wfu/
 Main file repository           : /tmp/sb13343/

 SHA1      : b4a5b34a9e711420743f49e6833241d17c61fb3c
 NAME      : 2099.9.b4a5b34
 ARCHNAME  : linux/x86_64_openmp
 FC        : /cm/shared/languages/GCC-6.1/bin/gfortran
 BLASLIB   : -lblas
 id        : simonbennie

 Nodes     nprocs
 node32-002    1

 Using customized tuning parameters: mindgm=1; mindgv=20; mindgc=4; mindgr=1; noblas=0; minvec=7
 default implementation of scratch files=df  

 memory,500,m
 geomtyp=xyz
 nosym
 noorient
 geometry={
 H         -1.57413        0.33845        0.00000
 C         -0.49500        0.20144        0.00000
 C          0.18857       -0.05954       -1.30114
 C          0.18857       -0.05954        1.30114
 H         -0.33790        0.40751       -2.14134
 H         -0.33790        0.40751        2.14134
 H          1.22176        0.31596       -1.29638
 H          1.22176        0.31596        1.29638
 H          0.25678       -1.13976       -1.52896
 H          0.25678       -1.13976        1.52896
 }
 basis={ default,svp }
 {uks,M08-HX,direct;wf,25,1,1}
 {ibba,bonds=1}

 Variables initialized (895), CPU time= 0.00 sec
 Commands  initialized (725), CPU time= 0.01 sec, 591 directives.
 Default parameters read. Elapsed time= 0.12 sec

 Checking input...
 Passed
1


                                         ***  PROGRAM SYSTEM MOLPRO  ***
                                       Copyright, TTI GmbH Stuttgart, 2015
                                    Version 2099.9 linked May 26 2017 16:03:21


 **********************************************************************************************************************************
 LABEL *                                                                                 
  64 bit serial version                                                                  DATE: 08-Jun-17          TIME: 15:29:53  
 **********************************************************************************************************************************

 SHA1:             b4a5b34a9e711420743f49e6833241d17c61fb3c
 **********************************************************************************************************************************
 SETTING GEOMTYP        =    XYZ

 Variable memory set to  500000000 words,  buffer space 

 ZSYMEL=NOSYM

 SETTING BASIS          =    SVP


 Recomputing integrals since basis changed


 Using spherical harmonics

 Library entry H      S def2-SVP             selected for orbital group  1
 Library entry H      P def2-SVP             selected for orbital group  1
 Library entry C      S def2-SVP             selected for orbital group  2
 Library entry C      P def2-SVP             selected for orbital group  2
 Library entry C      D def2-SVP             selected for orbital group  2


 PROGRAM * SEWARD (Integral evaluation for generally contracted gaussian basis sets)     Author: Roland Lindh, 1990

 Geometry written to block  1 of record 700


 Point group  C1  



 ATOMIC COORDINATES

 NR  ATOM    CHARGE       X              Y              Z

   1  H       1.00   -2.974674584    0.639577807    0.000000000
   2  C       6.00   -0.935414432    0.380666431    0.000000000
   3  C       6.00    0.356345655   -0.112514293   -2.458798250
   4  C       6.00    0.356345655   -0.112514293    2.458798250
   5  H       1.00   -0.638538457    0.770082293   -4.046546140
   6  H       1.00   -0.638538457    0.770082293    4.046546140
   7  H       1.00    2.308791790    0.597077866   -2.449803153
   8  H       1.00    2.308791790    0.597077866    2.449803153
   9  H       1.00    0.485243874   -2.153834248   -2.889315655
  10  H       1.00    0.485243874   -2.153834248    2.889315655

 Bond lengths in Bohr (Angstrom)

 1-2  2.055630578  2-3  2.820914777  2-4  2.820914777  3-5  2.071162595  3-7  2.077413742
     ( 1.087792856)     ( 1.492763814)     ( 1.492763814)     ( 1.096012045)     ( 1.099320010)

  3- 9  2.090202656   4- 6  2.071162595   4- 8  2.077413742   4-10  2.090202656
       ( 1.106087612)       ( 1.096012045)       ( 1.099320010)       ( 1.106087612)

 Bond angles

  1-2-3  118.44375943   1-2-4  118.44375943   2-3-5  111.94558337   2-3-7  111.52358867

  2- 3- 9  112.24140213   2- 4- 6  111.94558337   2- 4- 8  111.52358867   2- 4-10  112.24140213

  3-2-4  121.29758064   5-3-7  108.01204745   5-3-9  106.73207413   6-4-8  108.01204745

  6- 4-10  106.73207413   7- 3- 9  106.05262855   8- 4-10  106.05262855

 NUCLEAR CHARGE:                   25
 NUMBER OF PRIMITIVE AOS:         124
 NUMBER OF SYMMETRY AOS:          121
 NUMBER OF CONTRACTIONS:           77   (  77A   )
 NUMBER OF CORE ORBITALS:           3   (   3A   )
 NUMBER OF VALENCE ORBITALS:       19   (  19A   )


 NUCLEAR REPULSION ENERGY   75.20704826


 Eigenvalues of metric

         1 0.402E-02 0.537E-02 0.229E-01 0.265E-01 0.266E-01 0.379E-01 0.436E-01 0.492E-01


 Contracted 2-electron integrals neglected if value below      1.0D-11
 AO integral compression algorithm  1   Integral accuracy      1.0D-11

     19.923 MB (compressed) written to integral file ( 49.4%)


 NUMBER OF SORTED TWO-ELECTRON INTEGRALS:    4510506.     BUFFER LENGTH:  32768
 NUMBER OF SEGMENTS:   1  SEGMENT LENGTH:    4510506      RECORD LENGTH: 524288

 Memory used in sort:       5.07 MW

 SORT1 READ     5074366. AND WROTE     4244391. INTEGRALS IN     13 RECORDS. CPU TIME:     0.07 SEC, REAL TIME:     0.22 SEC
 SORT2 READ     4244391. AND WROTE     4510506. INTEGRALS IN     76 RECORDS. CPU TIME:     0.16 SEC, REAL TIME:     0.27 SEC

 FILE SIZES:   FILE 1:    50.3 MBYTE,  FILE 4:    54.6 MBYTE,   TOTAL:    104.8 MBYTE

 OPERATOR DM      FOR CENTER  0  COORDINATES:    0.000000    0.000000    0.000000


 **********************************************************************************************************************************
 DATASETS  * FILE   NREC   LENGTH (MB)   RECORD NAMES
              1      19       47.44       500      610      700      900      950      970     1000      129      960     1100   
                                          VAR    BASINP    GEOM    SYMINP    ZMAT    AOBASIS   BASIS     P2S    ABASIS      S 
                                         1400     1410     1200     1210     1080     1600     1650     1300     1700   
                                           T        V       H0       H01     AOSYM     SMH    MOLCAS    ERIS     OPER   

 PROGRAMS   *        TOTAL       INT
 CPU TIMES  *         1.30      1.14
 REAL TIME  *         2.64 SEC
 DISK USED  *       105.25 MB      
 **********************************************************************************************************************************

 Density functional group M08-HX=XC-M08-HX
 Functional: XC-M08-HX(via MFM 1.6)                                            Gradient terms: 1
 Use grid at  1800.2


 Exact exchange will be calculated, factor:  0.5223

 Functional: XC-M08-HX                 Factor:  1.0000

 Generated new metagrid on record  1800.2 with target accuracy 1.0D-06 and 32470 points in CPU time    0.8
 Computed new grid on record 1800.1 in CPU time    0.8
   65184 words reserved for DFT integration

 PROGRAM * UKS-SCF (Unrestricted Kohn-Sham)     Authors: W. Meyer, H.-J. Werner, P.J. Knowles, 1993

 NUMBER OF ELECTRONS:      13+   12-    SPACE SYMMETRY=1    SPIN SYMMETRY: Doublet 
 CONVERGENCE THRESHOLDS:    1.00E-05 (Density)    1.00E-06 (Energy)
 MAX. NUMBER OF ITERATIONS:       60
 INTERPOLATION TYPE:            DIIS
 INTERPOLATION STEPS:              2 (START)      1 (STEP)
 LEVEL SHIFTS:                 -0.20 (ALPHA)  -0.20 (BETA) 



 Use fine grid record 1800.2 for energy threshold  1.0D-06
 Orbital guess generated from atomic densities. Full valence occupancy:   13

 Molecular orbital dump at record        2200.2

 Initial alpha occupation  13
 Initial beta  occupation  12

 ITERATION    DDIFF          GRAD             ENERGY        2-EL.EN.            DIPOLE MOMENTS         DIIS
    1      0.000D+00      0.000D+00      -118.29064188    248.789987    0.20695   -0.25899    0.00000    0
    2      0.726D-02      0.405D-02      -118.34563650    243.167541    0.09351   -0.14092   -0.00000    1
    3      0.183D-02      0.124D-02      -118.35053777    244.017116    0.06739   -0.12858   -0.00000    2
    4      0.146D-02      0.480D-03      -118.35242379    243.926248    0.04094   -0.10721   -0.00000    3
    5      0.560D-03      0.174D-03      -118.35268819    243.902238    0.03122   -0.09786   -0.00000    4
    6      0.209D-03      0.596D-04      -118.35272487    243.904474    0.02992   -0.09505   -0.00000    5
    7      0.495D-04      0.149D-04      -118.35272677    243.903675    0.02929   -0.09400   -0.00000    6
    8      0.148D-04      0.469D-05      -118.35272691    243.904667    0.02944   -0.09400   -0.00000    7
    9      0.684D-05      0.153D-05      -118.35272693    243.904487    0.02952   -0.09401   -0.00000    7
   10      0.274D-05      0.561D-06      -118.35272694    243.904504    0.02952   -0.09399   -0.00000    7

 Final alpha occupancy:  13
 Final beta  occupancy:  12

 !UKS STATE 1.1 Energy               -118.352726938600
 Nuclear energy                        75.20704826
 One-electron energy                 -306.11891809
 Two-electron energy                  121.95225193
 Density functional                    -9.39310904     XC-M08-HX=-9.39310904
 Virial quotient                       -1.01393494
 !UKS STATE 1.1 Dipole moment           0.02952277    -0.09399491    -0.00000000
 Dipole moment /Debye                   0.07503448    -0.23889559    -0.00000000

 Orbital energies for positive spin:

         1.1          2.1          3.1          4.1          5.1          6.1          7.1          8.1          9.1         10.1
    -10.549695   -10.534855   -10.534838    -0.876259    -0.777457    -0.645909    -0.521920    -0.495883    -0.477247    -0.449352

        11.1         12.1         13.1         14.1         15.1
     -0.419039    -0.409161    -0.236557     0.083533     0.114498

 Orbital energies for negative spin:

         1.1          2.1          3.1          4.1          5.1          6.1          7.1          8.1          9.1         10.1
    -10.536434   -10.536424   -10.530887    -0.853414    -0.771745    -0.621372    -0.514983    -0.473919    -0.468005    -0.440899

        11.1         12.1         13.1         14.1         15.1
     -0.412690    -0.403425     0.009308     0.080774     0.117432

 HOMO     13.1    -0.236557 =      -6.4371eV
 LUMO    -13.1     0.009308 =       0.2533eV
 LUMO-HOMO         0.245866 =       6.6903eV

 EXPECTATION VALUE OF S**2:             0.75469255

 Occupation number threshold for canonical orbitals:  1.999000 (occupied),  0.001000 (virtual)

 Number of pseudo-canonical orbitals per symmetry:   11
 Number of active natural orbitals per symmetry:      3

 Natural orbitals saved to record    2200.2 (Orbital set 3)

 Orbital spaces for UNO-CAS (Min. occupation: 0.020  Max. occupation: 1.980):

 Closed:       12
 Active:        1


 **********************************************************************************************************************************
 DATASETS  * FILE   NREC   LENGTH (MB)   RECORD NAMES
              1      20       48.47       500      610      700      900      950      970     1000      129      960     1100   
                                          VAR    BASINP    GEOM    SYMINP    ZMAT    AOBASIS   BASIS     P2S    ABASIS      S 
                                         1400     1410     1200     1210     1080     1600     1650     1300     1700     1800   
                                           T        V       H0       H01     AOSYM     SMH    MOLCAS    ERIS     OPER     GRID   

              2       5        3.16       700     1000      520     1800     2200   
                                         GEOM     BASIS   MCVARS    GRID      UKS  

 PROGRAMS   *        TOTAL       UKS       INT
 CPU TIMES  *        20.69     19.39      1.14
 REAL TIME  *        32.98 SEC
 DISK USED  *       105.25 MB      
 **********************************************************************************************************************************


 PROGRAM * Intrinsic Basis Bonding Analysis (IBBA)          Author: G. Knizia

 Molecular orbitals read from record     2200.2  Type=UKS/ALPHA (state 1.1)
 Fock matrix read from record            2200.2  Type=UKS/TOTAL (state 1.1)
 Orbital energies read from record       2200.2  Type=UKS/ALPHA (state 1.1)
 Density matrix read from record         2200.2  Type=UKS/CHARGE (state 1.1)

 Number of core orbitals:           3 (   3 )
 Number of closed-shell orbitals:   9 (   9 )
 Number of active  orbitals:        1 (   1 )

 Basis set MINAO-AUTO-PP generated.      Number of basis functions:   22 

 Polarized AO type:                A = (O Ot + (1-O)(1-Ot)) P12
 Orthogonalization method:         Symmetric (Loewdin)
 Localization functional:          L = sum[A,i] <i|n_A|i>^4 -> max

 Localization group 1:  12 orbitals, occupancy  2.000
 Iterative localization: IB/PM,    7 iter; Final gradient 0.91E-08

 Bond order analysis:       [THRPRINT= 0.020]

   CEN ATOM   CEN ATOM     WIBERG.BO      RENORM.BO
     1   H  -   2   C       0.945238       0.969411

     2   C  -   3   C       1.179509       1.483795
     2   C  -   4   C       1.179509       1.483795
     2   C  -   1   H       0.945238       0.969411
     2   C  -   9   H       0.069186       0.272085
     2   C  -  10   H       0.069186       0.272085
     2   C  -   7   H       0.022359       0.080740
     2   C  -   8   H       0.022359       0.080740

     3   C  -   2   C       1.179509       1.483795
     3   C  -   5   H       0.951602       0.989177
     3   C  -   7   H       0.932117       0.988327
     3   C  -   9   H       0.863521       0.996380

     4   C  -   2   C       1.179509       1.483795
     4   C  -   6   H       0.951602       0.989177
     4   C  -   8   H       0.932117       0.988327
     4   C  -  10   H       0.863521       0.996380

     5   H  -   3   C       0.951602       0.989177

     6   H  -   4   C       0.951602       0.989177

     7   H  -   3   C       0.932117       0.988327
     7   H  -   2   C       0.022359       0.080740

     8   H  -   4   C       0.932117       0.988327
     8   H  -   2   C       0.022359       0.080740

     9   H  -   3   C       0.863521       0.996380
     9   H  -   2   C       0.069186       0.272085

    10   H  -   4   C       0.863521       0.996380
    10   H  -   2   C       0.069186       0.272085


 Valency analysis:

   CEN ATOM   TOT.VALENCE
     1   H       0.973184
     2   C       3.505378
     3   C       3.951729
     4   C       3.951729
     5   H       0.978765
     6   H       0.978765
     7   H       0.975783
     8   H       0.975783
     9   H       0.958001
    10   H       0.958001
 Localization group 2:   1 orbitals, occupancy  1.000
 Iterative localization: IB/PM,    1 iter; Final gradient 0.00E+00

 Bond order analysis:       [THRPRINT= 0.020]

   CEN ATOM   CEN ATOM     WIBERG.BO      RENORM.BO

     2   C  -   9   H       0.103195       0.500000
     2   C  -  10   H       0.103195       0.500000
     2   C  -   7   H       0.032737       0.500000
     2   C  -   8   H       0.032737       0.500000





     7   H  -   2   C       0.032737       0.500000

     8   H  -   2   C       0.032737       0.500000

     9   H  -   2   C       0.103195       0.500000

    10   H  -   2   C       0.103195       0.500000


 Valency analysis:

   CEN ATOM   TOT.VALENCE
     1   H       0.002123
     2   C       0.334329
     3   C       0.024398
     4   C       0.024398
     5   H       0.013783
     6   H       0.013783
     7   H       0.040691
     8   H       0.040691
     9   H       0.122410
    10   H       0.122410

 Total charge composition:

   CEN ATOM         s          p       ELECTRONS ->P.CHARGE
     1   H       0.83731                 0.83731    0.16269
     2   C       3.04144    3.26891      6.31035   -0.31035
     3   C       3.00220    3.33704      6.33924   -0.33924
     4   C       3.00220    3.33704      6.33924   -0.33924
     5   H       0.86122                 0.86122    0.13878
     6   H       0.86122                 0.86122    0.13878
     7   H       0.86516                 0.86516    0.13484
     8   H       0.86516                 0.86516    0.13484
     9   H       0.86056                 0.86056    0.13944
    10   H       0.86056                 0.86056    0.13944

 Total charge composition, AO contributions:

   CEN ATOM SHL      SPHERICAL COMPONENTS
     1   H  1s       0.83731

     2   C  1s       1.99208
     2   C  2s       1.04937
     2   C  2p       1.13353    1.10235    1.03304

     3   C  1s       1.99061
     3   C  2s       1.01159
     3   C  2p       1.13402    1.12207    1.08094

     4   C  1s       1.99061
     4   C  2s       1.01159
     4   C  2p       1.13402    1.12207    1.08094

     5   H  1s       0.86122

     6   H  1s       0.86122

     7   H  1s       0.86516

     8   H  1s       0.86516

     9   H  1s       0.86056

    10   H  1s       0.86056

 Active orbital charges:

   CEN ATOM         s          p       ELECTRONS ->SPIN.DEN
     1   H       0.00106                 0.00106    0.00106
     2   C       0.00560    0.78221      0.78781    0.78781
     3   C       0.00012    0.01223      0.01235    0.01235
     4   C       0.00012    0.01223      0.01235    0.01235
     5   H       0.00694                 0.00694    0.00694
     6   H       0.00694                 0.00694    0.00694
     7   H       0.02078                 0.02078    0.02078
     8   H       0.02078                 0.02078    0.02078
     9   H       0.06549                 0.06549    0.06549
    10   H       0.06549                 0.06549    0.06549

 Active orbital charges, AO contributions:

   CEN ATOM SHL      SPHERICAL COMPONENTS
     1   H  1s       0.00106

     2   C  1s       0.00001
     2   C  2s       0.00559
     2   C  2p       0.03273    0.74948    0.00000

     3   C  1s       0.00000
     3   C  2s       0.00012
     3   C  2p       0.00009    0.01200    0.00013

     4   C  1s       0.00000
     4   C  2s       0.00012
     4   C  2p       0.00009    0.01200    0.00013

     5   H  1s       0.00694

     6   H  1s       0.00694

     7   H  1s       0.02078

     8   H  1s       0.02078

     9   H  1s       0.06549

    10   H  1s       0.06549

 Summary of localized orbital composition:   [THRPRINT= 0.020]

   ORB  GRP  ORB.ENERGY      CENTERS/CHARGES
     1   1   -10.433957      C  2   2.000
     2   1   -10.416952      C  4   2.000
     3   1   -10.416952      C  3   2.000
     4   1    -0.680552      C  2   1.014   C  4   0.979
     5   1    -0.680552      C  2   1.014   C  3   0.979
     6   1    -0.591192      C  2   1.162   H  1   0.826
     7   1    -0.568796      C  3   1.093   H  9   0.788   C  2   0.112
     8   1    -0.568796      C  4   1.093   H 10   0.788   C  2   0.112
     9   1    -0.565824      C  4   1.118   H  8   0.838   C  2   0.037
    10   1    -0.565824      C  3   1.118   H  7   0.838   C  2   0.037
    11   1    -0.565102      C  3   1.129   H  5   0.848   (other: 0.023)
    12   1    -0.565102      C  4   1.129   H  6   0.848   (other: 0.023)
    13   2    -0.112364      C  2   0.788   H  9   0.065   H 10   0.065   H  7   0.021   H  8   0.021   (other: 0.040)

 Localized orbitals saved to record      2200.2  (orbital set 4)


 **********************************************************************************************************************************
 DATASETS  * FILE   NREC   LENGTH (MB)   RECORD NAMES
              1      20       48.47       500      610      700      900      950      970     1000      129      960     1100   
                                          VAR    BASINP    GEOM    SYMINP    ZMAT    AOBASIS   BASIS     P2S    ABASIS      S 
                                         1400     1410     1200     1210     1080     1600     1650     1300     1700     1800   
                                           T        V       H0       H01     AOSYM     SMH    MOLCAS    ERIS     OPER     GRID   

              2       5        3.21       700     1000      520     1800     2200   
                                         GEOM     BASIS   MCVARS    GRID      UKS  

 PROGRAMS   *        TOTAL      IBBA       UKS       INT
 CPU TIMES  *        20.72      0.03     19.39      1.14
 REAL TIME  *        33.10 SEC
 DISK USED  *       105.25 MB      
 **********************************************************************************************************************************
 Molecular orbitals read from record     2200.2  Type=UKS/LOCAL(IBO)  
 Occupation numbers read from record     2200.2  Type=UKS/LOCAL(IBO)  
 Orbital energies read from record       2200.2  Type=UKS/LOCAL(IBO)  
 Redundancy group numbers read from rec  2200.2  Type=UKS/BETA (state 1.1)

 IBBA/SVP energy=      0.000000000000

        UKS-SCF 
   -118.35272694
 **********************************************************************************************************************************
 Molpro calculation terminated
