
 Primary working directories    : /tmp/sb13343
 Secondary working directories  : /tmp/sb13343
 Wavefunction directory         : /panfs/panasas01/chem/sb13343/wfu/
 Main file repository           : /tmp/sb13343/

 SHA1      : b4a5b34a9e711420743f49e6833241d17c61fb3c
 NAME      : 2099.9.b4a5b34
 ARCHNAME  : linux/x86_64_openmp
 FC        : /cm/shared/languages/GCC-6.1/bin/gfortran
 BLASLIB   : -lblas
 id        : simonbennie

 Nodes     nprocs
 node32-002    1

 Using customized tuning parameters: mindgm=1; mindgv=20; mindgc=4; mindgr=1; noblas=0; minvec=7
 default implementation of scratch files=df  

 memory,500,m
 geomtyp=xyz
 nosym
 noorient
 geometry={
 H         -1.57413        0.33845        0.00000
 C         -0.49500        0.20144        0.00000
 C          0.18857       -0.05954       -1.30114
 C          0.18857       -0.05954        1.30114
 H         -0.33790        0.40751       -2.14134
 H         -0.33790        0.40751        2.14134
 H          1.22176        0.31596       -1.29638
 H          1.22176        0.31596        1.29638
 H          0.25678       -1.13976       -1.52896
 H          0.25678       -1.13976        1.52896
 }
 basis={ default,svp }
 {uks,CS,direct;wf,25,1,1}
 {ibba,bonds=1}

 Variables initialized (895), CPU time= 0.01 sec
 Commands  initialized (725), CPU time= 0.01 sec, 591 directives.
 Default parameters read. Elapsed time= 0.57 sec

 Checking input...
 Passed
1


                                         ***  PROGRAM SYSTEM MOLPRO  ***
                                       Copyright, TTI GmbH Stuttgart, 2015
                                    Version 2099.9 linked May 26 2017 16:03:21


 **********************************************************************************************************************************
 LABEL *                                                                                 
  64 bit serial version                                                                  DATE: 08-Jun-17          TIME: 15:22:58  
 **********************************************************************************************************************************

 SHA1:             b4a5b34a9e711420743f49e6833241d17c61fb3c
 **********************************************************************************************************************************
 SETTING GEOMTYP        =    XYZ

 Variable memory set to  500000000 words,  buffer space 

 ZSYMEL=NOSYM

 SETTING BASIS          =    SVP


 Recomputing integrals since basis changed


 Using spherical harmonics

 Library entry H      S def2-SVP             selected for orbital group  1
 Library entry H      P def2-SVP             selected for orbital group  1
 Library entry C      S def2-SVP             selected for orbital group  2
 Library entry C      P def2-SVP             selected for orbital group  2
 Library entry C      D def2-SVP             selected for orbital group  2


 PROGRAM * SEWARD (Integral evaluation for generally contracted gaussian basis sets)     Author: Roland Lindh, 1990

 Geometry written to block  1 of record 700


 Point group  C1  



 ATOMIC COORDINATES

 NR  ATOM    CHARGE       X              Y              Z

   1  H       1.00   -2.974674584    0.639577807    0.000000000
   2  C       6.00   -0.935414432    0.380666431    0.000000000
   3  C       6.00    0.356345655   -0.112514293   -2.458798250
   4  C       6.00    0.356345655   -0.112514293    2.458798250
   5  H       1.00   -0.638538457    0.770082293   -4.046546140
   6  H       1.00   -0.638538457    0.770082293    4.046546140
   7  H       1.00    2.308791790    0.597077866   -2.449803153
   8  H       1.00    2.308791790    0.597077866    2.449803153
   9  H       1.00    0.485243874   -2.153834248   -2.889315655
  10  H       1.00    0.485243874   -2.153834248    2.889315655

 Bond lengths in Bohr (Angstrom)

 1-2  2.055630578  2-3  2.820914777  2-4  2.820914777  3-5  2.071162595  3-7  2.077413742
     ( 1.087792856)     ( 1.492763814)     ( 1.492763814)     ( 1.096012045)     ( 1.099320010)

  3- 9  2.090202656   4- 6  2.071162595   4- 8  2.077413742   4-10  2.090202656
       ( 1.106087612)       ( 1.096012045)       ( 1.099320010)       ( 1.106087612)

 Bond angles

  1-2-3  118.44375943   1-2-4  118.44375943   2-3-5  111.94558337   2-3-7  111.52358867

  2- 3- 9  112.24140213   2- 4- 6  111.94558337   2- 4- 8  111.52358867   2- 4-10  112.24140213

  3-2-4  121.29758064   5-3-7  108.01204745   5-3-9  106.73207413   6-4-8  108.01204745

  6- 4-10  106.73207413   7- 3- 9  106.05262855   8- 4-10  106.05262855

 NUCLEAR CHARGE:                   25
 NUMBER OF PRIMITIVE AOS:         124
 NUMBER OF SYMMETRY AOS:          121
 NUMBER OF CONTRACTIONS:           77   (  77A   )
 NUMBER OF CORE ORBITALS:           3   (   3A   )
 NUMBER OF VALENCE ORBITALS:       19   (  19A   )


 NUCLEAR REPULSION ENERGY   75.20704826


 Eigenvalues of metric

         1 0.402E-02 0.537E-02 0.229E-01 0.265E-01 0.266E-01 0.379E-01 0.436E-01 0.492E-01


 Contracted 2-electron integrals neglected if value below      1.0D-11
 AO integral compression algorithm  1   Integral accuracy      1.0D-11

     19.923 MB (compressed) written to integral file ( 49.4%)


 NUMBER OF SORTED TWO-ELECTRON INTEGRALS:    4510506.     BUFFER LENGTH:  32768
 NUMBER OF SEGMENTS:   1  SEGMENT LENGTH:    4510506      RECORD LENGTH: 524288

 Memory used in sort:       5.07 MW

 SORT1 READ     5074366. AND WROTE     4244391. INTEGRALS IN     13 RECORDS. CPU TIME:     0.07 SEC, REAL TIME:     0.23 SEC
 SORT2 READ     4244391. AND WROTE     4510506. INTEGRALS IN     76 RECORDS. CPU TIME:     0.15 SEC, REAL TIME:     0.30 SEC

 FILE SIZES:   FILE 1:    50.3 MBYTE,  FILE 4:    54.6 MBYTE,   TOTAL:    104.8 MBYTE

 OPERATOR DM      FOR CENTER  0  COORDINATES:    0.000000    0.000000    0.000000


 **********************************************************************************************************************************
 DATASETS  * FILE   NREC   LENGTH (MB)   RECORD NAMES
              1      19       47.44       500      610      700      900      950      970     1000      129      960     1100   
                                          VAR    BASINP    GEOM    SYMINP    ZMAT    AOBASIS   BASIS     P2S    ABASIS      S 
                                         1400     1410     1200     1210     1080     1600     1650     1300     1700   
                                           T        V       H0       H01     AOSYM     SMH    MOLCAS    ERIS     OPER   

 PROGRAMS   *        TOTAL       INT
 CPU TIMES  *         1.23      1.07
 REAL TIME  *         3.05 SEC
 DISK USED  *       105.25 MB      
 **********************************************************************************************************************************

 Density functional group CS=CS1
 Functional: CS1(Colle-Salvetti (Gradient form))                               Gradient terms: 1
 Use grid at  1800.2

 Functional: CS1                       Factor:  1.0000

 Generated new metagrid on record  1800.2 with target accuracy 1.0D-06 and 32470 points in CPU time    0.8
 Computed new grid on record 1800.1 in CPU time    0.8
   65184 words reserved for DFT integration

 PROGRAM * UKS-SCF (Unrestricted Kohn-Sham)     Authors: W. Meyer, H.-J. Werner, P.J. Knowles, 1993

 NUMBER OF ELECTRONS:      13+   12-    SPACE SYMMETRY=1    SPIN SYMMETRY: Doublet 
 CONVERGENCE THRESHOLDS:    1.00E-05 (Density)    1.00E-06 (Energy)
 MAX. NUMBER OF ITERATIONS:       60
 INTERPOLATION TYPE:            DIIS
 INTERPOLATION STEPS:              2 (START)      1 (STEP)
 LEVEL SHIFTS:                 -0.20 (ALPHA)  -0.20 (BETA) 



 Use fine grid record 1800.2 for energy threshold  1.0D-06
 Orbital guess generated from atomic densities. Full valence occupancy:   13

 Molecular orbital dump at record        2200.2

 Initial alpha occupation  13
 Initial beta  occupation  12

 ITERATION    DDIFF          GRAD             ENERGY        2-EL.EN.            DIPOLE MOMENTS         DIIS
    1      0.000D+00      0.000D+00      -100.73787160    242.676635   -0.17325    0.18999   -0.00000    0
    2      0.182D-01      0.544D-02      -100.78385158    253.139269   -0.00328    0.02580   -0.00000    1
    3      0.524D-02      0.371D-02      -100.81980446    249.010265   -0.05158    0.07047   -0.00000    2
    4      0.183D-02      0.176D-03      -100.82007839    249.117935   -0.04141    0.04486   -0.00000    3
    5      0.128D-02      0.915D-04      -100.82017780    249.132957   -0.03451    0.02939   -0.00000    4
    6      0.148D-02      0.558D-04      -100.82024421    249.142218   -0.03196    0.00993   -0.00000    5
    7      0.953D-03      0.309D-04      -100.82026901    249.150562   -0.03066    0.00111   -0.00000    6
    8      0.551D-03      0.194D-04      -100.82027788    249.154624   -0.03199   -0.00352   -0.00000    7
    9      0.447D-03      0.117D-04      -100.82028185    249.153433   -0.03291   -0.00788   -0.00000    8
   10      0.192D-03      0.491D-05      -100.82028257    249.153625   -0.03304   -0.00851   -0.00000    7
   11      0.665D-04      0.208D-05      -100.82028268    249.154509   -0.03335   -0.00907   -0.00000    8
   12      0.288D-04      0.107D-05      -100.82028271    249.153659   -0.03337   -0.00908   -0.00000    9
   13      0.607D-05      0.303D-06      -100.82028271    249.153885   -0.03335   -0.00908   -0.00000    9
   14      0.227D-05      0.144D-06      -100.82028271    249.153803   -0.03335   -0.00906   -0.00000    9

 Final alpha occupancy:  13
 Final beta  occupancy:  12

 !UKS STATE 1.1 Energy               -100.820282707596
 Nuclear energy                        75.20704826
 One-electron energy                 -299.85588252
 Two-electron energy                  124.57690173
 Density functional                    -0.74835018     CS1=-0.74835018
 Virial quotient                       -0.91879716
 !UKS STATE 1.1 Dipole moment          -0.03334915    -0.00906236    -0.00000000
 Dipole moment /Debye                  -0.08475954    -0.02303272    -0.00000000

 Orbital energies for positive spin:

         1.1          2.1          3.1          4.1          5.1          6.1          7.1          8.1          9.1         10.1
     -8.202628    -8.202597    -8.187150    -0.371102    -0.291569    -0.182299    -0.123446    -0.103188    -0.077870    -0.052893

        11.1         12.1         13.1         14.1         15.1
     -0.022083    -0.010168     0.141387     0.193208     0.228966

 Orbital energies for negative spin:

         1.1          2.1          3.1          4.1          5.1          6.1          7.1          8.1          9.1         10.1
     -8.202739    -8.202726    -8.189169    -0.376180    -0.293513    -0.187466    -0.125669    -0.109031    -0.080502    -0.055347

        11.1         12.1         13.1         14.1         15.1
     -0.023673    -0.012738     0.123726     0.189846     0.226380

 HOMO     13.1     0.141387 =       3.8473eV
 LUMO    -13.1     0.123726 =       3.3668eV
 LUMO-HOMO        -0.017660 =      -0.4806eV

 EXPECTATION VALUE OF S**2:             0.75031047

 Occupation number threshold for canonical orbitals:  1.999000 (occupied),  0.001000 (virtual)

 Number of pseudo-canonical orbitals per symmetry:   12
 Number of active natural orbitals per symmetry:      1

 Natural orbitals saved to record    2200.2 (Orbital set 3)

 Orbital spaces for UNO-CAS (Min. occupation: 0.020  Max. occupation: 1.980):

 Closed:       12
 Active:        1


 **********************************************************************************************************************************
 DATASETS  * FILE   NREC   LENGTH (MB)   RECORD NAMES
              1      20       48.47       500      610      700      900      950      970     1000      129      960     1100   
                                          VAR    BASINP    GEOM    SYMINP    ZMAT    AOBASIS   BASIS     P2S    ABASIS      S 
                                         1400     1410     1200     1210     1080     1600     1650     1300     1700     1800   
                                           T        V       H0       H01     AOSYM     SMH    MOLCAS    ERIS     OPER     GRID   

              2       5        3.16       700     1000      520     1800     2200   
                                         GEOM     BASIS   MCVARS    GRID      UKS  

 PROGRAMS   *        TOTAL       UKS       INT
 CPU TIMES  *        19.54     18.30      1.07
 REAL TIME  *        31.90 SEC
 DISK USED  *       105.25 MB      
 **********************************************************************************************************************************


 PROGRAM * Intrinsic Basis Bonding Analysis (IBBA)          Author: G. Knizia

 Molecular orbitals read from record     2200.2  Type=UKS/ALPHA (state 1.1)
 Fock matrix read from record            2200.2  Type=UKS/TOTAL (state 1.1)
 Orbital energies read from record       2200.2  Type=UKS/ALPHA (state 1.1)
 Density matrix read from record         2200.2  Type=UKS/CHARGE (state 1.1)

 Number of core orbitals:           3 (   3 )
 Number of closed-shell orbitals:   9 (   9 )
 Number of active  orbitals:        1 (   1 )

 Basis set MINAO-AUTO-PP generated.      Number of basis functions:   22 

 Polarized AO type:                A = (O Ot + (1-O)(1-Ot)) P12
 Orthogonalization method:         Symmetric (Loewdin)
 Localization functional:          L = sum[A,i] <i|n_A|i>^4 -> max

 Localization group 1:  12 orbitals, occupancy  2.000
 Iterative localization: IB/PM,    8 iter; Final gradient 0.25E-08

 Bond order analysis:       [THRPRINT= 0.020]

   CEN ATOM   CEN ATOM     WIBERG.BO      RENORM.BO
     1   H  -   2   C       0.945490       0.952442

     2   C  -   3   C       1.179347       1.490590
     2   C  -   4   C       1.179347       1.490590
     2   C  -   1   H       0.945490       0.952442
     2   C  -   9   H       0.074612       0.261050
     2   C  -  10   H       0.074612       0.261050
     2   C  -   7   H       0.026350       0.082300
     2   C  -   8   H       0.026350       0.082300

     3   C  -   2   C       1.179347       1.490590
     3   C  -   5   H       0.946376       0.979683
     3   C  -   7   H       0.922792       0.970337
     3   C  -   9   H       0.865755       0.994557

     4   C  -   2   C       1.179347       1.490590
     4   C  -   6   H       0.946376       0.979683
     4   C  -   8   H       0.922792       0.970337
     4   C  -  10   H       0.865755       0.994557

     5   H  -   3   C       0.946376       0.979683

     6   H  -   4   C       0.946376       0.979683

     7   H  -   3   C       0.922792       0.970337
     7   H  -   2   C       0.026350       0.082300

     8   H  -   4   C       0.922792       0.970337
     8   H  -   2   C       0.026350       0.082300

     9   H  -   3   C       0.865755       0.994557
     9   H  -   2   C       0.074612       0.261050

    10   H  -   4   C       0.865755       0.994557
    10   H  -   2   C       0.074612       0.261050


 Valency analysis:

   CEN ATOM   TOT.VALENCE
     1   H       0.999813
     2   C       3.532980
     3   C       3.958684
     4   C       3.958684
     5   H       0.995603
     6   H       0.995603
     7   H       0.993673
     8   H       0.993673
     9   H       0.978613
    10   H       0.978613
 Localization group 2:   1 orbitals, occupancy  1.000
 Iterative localization: IB/PM,    1 iter; Final gradient 0.00E+00

 Bond order analysis:       [THRPRINT= 0.020]

   CEN ATOM   CEN ATOM     WIBERG.BO      RENORM.BO

     2   C  -   9   H       0.141994       0.500000
     2   C  -  10   H       0.141994       0.500000
     2   C  -   7   H       0.044489       0.500000
     2   C  -   8   H       0.044489       0.500000





     7   H  -   2   C       0.044489       0.500000

     8   H  -   2   C       0.044489       0.500000

     9   H  -   2   C       0.141994       0.500000

    10   H  -   2   C       0.141994       0.500000


 Valency analysis:

   CEN ATOM   TOT.VALENCE
     1   H       0.000488
     2   C       0.405820
     3   C       0.005663
     4   C       0.005663
     5   H       0.016842
     6   H       0.016842
     7   H       0.060124
     8   H       0.060124
     9   H       0.178429
    10   H       0.178429

 Total charge composition:

   CEN ATOM         s          p       ELECTRONS ->P.CHARGE
     1   H       0.98658                 0.98658    0.01342
     2   C       2.89097    3.09405      5.98503    0.01497
     3   C       2.88259    3.28516      6.16775   -0.16775
     4   C       2.88259    3.28516      6.16775   -0.16775
     5   H       0.94218                 0.94218    0.05782
     6   H       0.94218                 0.94218    0.05782
     7   H       0.95148                 0.95148    0.04852
     8   H       0.95148                 0.95148    0.04852
     9   H       0.95278                 0.95278    0.04722
    10   H       0.95278                 0.95278    0.04722

 Total charge composition, AO contributions:

   CEN ATOM SHL      SPHERICAL COMPONENTS
     1   H  1s       0.98658

     2   C  1s       1.99824
     2   C  2s       0.89273
     2   C  2p       1.04215    1.04205    1.00985

     3   C  1s       1.99771
     3   C  2s       0.88488
     3   C  2p       1.09810    1.08766    1.09940

     4   C  1s       1.99771
     4   C  2s       0.88488
     4   C  2p       1.09810    1.08766    1.09940

     5   H  1s       0.94218

     6   H  1s       0.94218

     7   H  1s       0.95148

     8   H  1s       0.95148

     9   H  1s       0.95278

    10   H  1s       0.95278

 Active orbital charges:

   CEN ATOM         s          p       ELECTRONS ->SPIN.DEN
     1   H       0.00024                 0.00024    0.00024
     2   C       0.00601    0.71099      0.71700    0.71700
     3   C       0.00051    0.00233      0.00284    0.00284
     4   C       0.00051    0.00233      0.00284    0.00284
     5   H       0.00849                 0.00849    0.00849
     6   H       0.00849                 0.00849    0.00849
     7   H       0.03102                 0.03102    0.03102
     8   H       0.03102                 0.03102    0.03102
     9   H       0.09902                 0.09902    0.09902
    10   H       0.09902                 0.09902    0.09902

 Active orbital charges, AO contributions:

   CEN ATOM SHL      SPHERICAL COMPONENTS
     1   H  1s       0.00024

     2   C  1s       0.00000
     2   C  2s       0.00601
     2   C  2p       0.02631    0.68468    0.00000

     3   C  1s       0.00000
     3   C  2s       0.00051
     3   C  2p       0.00012    0.00216    0.00005

     4   C  1s       0.00000
     4   C  2s       0.00051
     4   C  2p       0.00012    0.00216    0.00005

     5   H  1s       0.00849

     6   H  1s       0.00849

     7   H  1s       0.03102

     8   H  1s       0.03102

     9   H  1s       0.09902

    10   H  1s       0.09902

 Summary of localized orbital composition:   [THRPRINT= 0.020]

   ORB  GRP  ORB.ENERGY      CENTERS/CHARGES
     1   1    -8.122115      C  4   2.000
     2   1    -8.122115      C  3   2.000
     3   1    -8.116554      C  2   2.000
     4   1    -0.228691      C  4   1.032   C  2   0.956
     5   1    -0.228691      C  3   1.032   C  2   0.956
     6   1    -0.151653      C  4   1.036   H 10   0.841   C  2   0.115
     7   1    -0.151653      C  3   1.036   H  9   0.841   C  2   0.115
     8   1    -0.146585      C  2   0.999   H  1   0.974   (other: 0.027)
     9   1    -0.145475      C  3   1.038   H  7   0.908   C  2   0.042
    10   1    -0.145475      C  4   1.038   H  8   0.908   C  2   0.042
    11   1    -0.141839      C  4   1.043   H  6   0.923   C  2   0.023
    12   1    -0.141839      C  3   1.043   H  5   0.923   C  2   0.023
    13   2     0.132540      C  2   0.717   H  9   0.099   H 10   0.099   H  7   0.031   H  8   0.031   (other: 0.023)

 Localized orbitals saved to record      2200.2  (orbital set 4)


 **********************************************************************************************************************************
 DATASETS  * FILE   NREC   LENGTH (MB)   RECORD NAMES
              1      20       48.47       500      610      700      900      950      970     1000      129      960     1100   
                                          VAR    BASINP    GEOM    SYMINP    ZMAT    AOBASIS   BASIS     P2S    ABASIS      S 
                                         1400     1410     1200     1210     1080     1600     1650     1300     1700     1800   
                                           T        V       H0       H01     AOSYM     SMH    MOLCAS    ERIS     OPER     GRID   

              2       5        3.21       700     1000      520     1800     2200   
                                         GEOM     BASIS   MCVARS    GRID      UKS  

 PROGRAMS   *        TOTAL      IBBA       UKS       INT
 CPU TIMES  *        19.56      0.01     18.30      1.07
 REAL TIME  *        32.02 SEC
 DISK USED  *       105.25 MB      
 **********************************************************************************************************************************
 Molecular orbitals read from record     2200.2  Type=UKS/LOCAL(IBO)  
 Occupation numbers read from record     2200.2  Type=UKS/LOCAL(IBO)  
 Orbital energies read from record       2200.2  Type=UKS/LOCAL(IBO)  
 Redundancy group numbers read from rec  2200.2  Type=UKS/BETA (state 1.1)

 IBBA/SVP energy=      0.000000000000

        UKS-SCF 
   -100.82028271
 **********************************************************************************************************************************
 Molpro calculation terminated
