
 Primary working directories    : /tmp/sb13343
 Secondary working directories  : /tmp/sb13343
 Wavefunction directory         : /panfs/panasas01/chem/sb13343/wfu/
 Main file repository           : /tmp/sb13343/

 SHA1      : b4a5b34a9e711420743f49e6833241d17c61fb3c
 NAME      : 2099.9.b4a5b34
 ARCHNAME  : linux/x86_64_openmp
 FC        : /cm/shared/languages/GCC-6.1/bin/gfortran
 BLASLIB   : -lblas
 id        : simonbennie

 Nodes     nprocs
 node32-018    1

 Using customized tuning parameters: mindgm=1; mindgv=20; mindgc=4; mindgr=1; noblas=0; minvec=7
 default implementation of scratch files=df  

 memory,500,m
 geomtyp=xyz
 nosym
 noorient
 geometry={
 H         -1.57413        0.33845        0.00000
 C         -0.49500        0.20144        0.00000
 C          0.18857       -0.05954       -1.30114
 C          0.18857       -0.05954        1.30114
 H         -0.33790        0.40751       -2.14134
 H         -0.33790        0.40751        2.14134
 H          1.22176        0.31596       -1.29638
 H          1.22176        0.31596        1.29638
 H          0.25678       -1.13976       -1.52896
 H          0.25678       -1.13976        1.52896
 }
 basis={ default,svp }
 {ks,B-VWN,direct;wf,25,1,1}
 {ibba,bonds=1}

 Variables initialized (895), CPU time= 0.00 sec
 Commands  initialized (725), CPU time= 0.01 sec, 591 directives.
 Default parameters read. Elapsed time= 0.07 sec

 Checking input...
 Passed
1


                                         ***  PROGRAM SYSTEM MOLPRO  ***
                                       Copyright, TTI GmbH Stuttgart, 2015
                                    Version 2099.9 linked May 26 2017 16:03:21


 **********************************************************************************************************************************
 LABEL *                                                                                 
  64 bit serial version                                                                  DATE: 08-Jun-17          TIME: 15:19:45  
 **********************************************************************************************************************************

 SHA1:             b4a5b34a9e711420743f49e6833241d17c61fb3c
 **********************************************************************************************************************************
 SETTING GEOMTYP        =    XYZ

 Variable memory set to  500000000 words,  buffer space 

 ZSYMEL=NOSYM

 SETTING BASIS          =    SVP


 Recomputing integrals since basis changed


 Using spherical harmonics

 Library entry H      S def2-SVP             selected for orbital group  1
 Library entry H      P def2-SVP             selected for orbital group  1
 Library entry C      S def2-SVP             selected for orbital group  2
 Library entry C      P def2-SVP             selected for orbital group  2
 Library entry C      D def2-SVP             selected for orbital group  2


 PROGRAM * SEWARD (Integral evaluation for generally contracted gaussian basis sets)     Author: Roland Lindh, 1990

 Geometry written to block  1 of record 700


 Point group  C1  



 ATOMIC COORDINATES

 NR  ATOM    CHARGE       X              Y              Z

   1  H       1.00   -2.974674584    0.639577807    0.000000000
   2  C       6.00   -0.935414432    0.380666431    0.000000000
   3  C       6.00    0.356345655   -0.112514293   -2.458798250
   4  C       6.00    0.356345655   -0.112514293    2.458798250
   5  H       1.00   -0.638538457    0.770082293   -4.046546140
   6  H       1.00   -0.638538457    0.770082293    4.046546140
   7  H       1.00    2.308791790    0.597077866   -2.449803153
   8  H       1.00    2.308791790    0.597077866    2.449803153
   9  H       1.00    0.485243874   -2.153834248   -2.889315655
  10  H       1.00    0.485243874   -2.153834248    2.889315655

 Bond lengths in Bohr (Angstrom)

 1-2  2.055630578  2-3  2.820914777  2-4  2.820914777  3-5  2.071162595  3-7  2.077413742
     ( 1.087792856)     ( 1.492763814)     ( 1.492763814)     ( 1.096012045)     ( 1.099320010)

  3- 9  2.090202656   4- 6  2.071162595   4- 8  2.077413742   4-10  2.090202656
       ( 1.106087612)       ( 1.096012045)       ( 1.099320010)       ( 1.106087612)

 Bond angles

  1-2-3  118.44375943   1-2-4  118.44375943   2-3-5  111.94558337   2-3-7  111.52358867

  2- 3- 9  112.24140213   2- 4- 6  111.94558337   2- 4- 8  111.52358867   2- 4-10  112.24140213

  3-2-4  121.29758064   5-3-7  108.01204745   5-3-9  106.73207413   6-4-8  108.01204745

  6- 4-10  106.73207413   7- 3- 9  106.05262855   8- 4-10  106.05262855

 NUCLEAR CHARGE:                   25
 NUMBER OF PRIMITIVE AOS:         124
 NUMBER OF SYMMETRY AOS:          121
 NUMBER OF CONTRACTIONS:           77   (  77A   )
 NUMBER OF CORE ORBITALS:           3   (   3A   )
 NUMBER OF VALENCE ORBITALS:       19   (  19A   )


 NUCLEAR REPULSION ENERGY   75.20704826


 Eigenvalues of metric

         1 0.402E-02 0.537E-02 0.229E-01 0.265E-01 0.266E-01 0.379E-01 0.436E-01 0.492E-01


 Contracted 2-electron integrals neglected if value below      1.0D-11
 AO integral compression algorithm  1   Integral accuracy      1.0D-11

     19.923 MB (compressed) written to integral file ( 49.4%)


 NUMBER OF SORTED TWO-ELECTRON INTEGRALS:    4510506.     BUFFER LENGTH:  32768
 NUMBER OF SEGMENTS:   1  SEGMENT LENGTH:    4510506      RECORD LENGTH: 524288

 Memory used in sort:       5.07 MW

 SORT1 READ     5074366. AND WROTE     4244391. INTEGRALS IN     13 RECORDS. CPU TIME:     0.06 SEC, REAL TIME:     0.12 SEC
 SORT2 READ     4244391. AND WROTE     4510506. INTEGRALS IN     76 RECORDS. CPU TIME:     0.14 SEC, REAL TIME:     0.17 SEC

 FILE SIZES:   FILE 1:    50.3 MBYTE,  FILE 4:    54.6 MBYTE,   TOTAL:    104.8 MBYTE

 OPERATOR DM      FOR CENTER  0  COORDINATES:    0.000000    0.000000    0.000000


 **********************************************************************************************************************************
 DATASETS  * FILE   NREC   LENGTH (MB)   RECORD NAMES
              1      19       47.44       500      610      700      900      950      970     1000      129      960     1100   
                                          VAR    BASINP    GEOM    SYMINP    ZMAT    AOBASIS   BASIS     P2S    ABASIS      S 
                                         1400     1410     1200     1210     1080     1600     1650     1300     1700   
                                           T        V       H0       H01     AOSYM     SMH    MOLCAS    ERIS     OPER   

 PROGRAMS   *        TOTAL       INT
 CPU TIMES  *         1.00      0.86
 REAL TIME  *         1.44 SEC
 DISK USED  *       105.25 MB      
 **********************************************************************************************************************************

 Density functional group B-VWN=B88+VWN5
 Functional: B88(Automatically generated (new) B88)                            Gradient terms: 1
 Functional: VWN5(Automatically generated (new) VWN5)                          Gradient terms: 0
 Use grid at  1800.2

 Functional: B88                       Factor:  1.0000
 Functional: VWN5                      Factor:  1.0000

 Generated new metagrid on record  1800.2 with target accuracy 1.0D-06 and 32470 points in CPU time    0.7
 Computed new grid on record 1800.1 in CPU time    0.8
   65184 words reserved for DFT integration

 PROGRAM * RKS-SCF (Restricted open shell Kohn-Sham)     Authors: W. Meyer, H.-J. Werner, P.J. Knowles, 1993

 NUMBER OF ELECTRONS:      13+   12-    SPACE SYMMETRY=1    SPIN SYMMETRY: Doublet 
 CONVERGENCE THRESHOLDS:    1.00E-05 (Density)    1.00E-06 (Energy)
 MAX. NUMBER OF ITERATIONS:       60
 INTERPOLATION TYPE:            DIIS
 INTERPOLATION STEPS:              2 (START)      1 (STEP)
 LEVEL SHIFTS:                 -0.60 (CLOSED) -0.30 (OPEN) 



 Use fine grid record 1800.2 for energy threshold  1.0D-06
 Orbital guess generated from atomic densities. Full valence occupancy:   13

 Molecular orbital dump at record        2100.2

 Initial alpha occupancy:  13
 Initial beta  occupancy:  12
 Wave function symmetry:    1

 ITERATION    DDIFF          GRAD             ENERGY        2-EL.EN.            DIPOLE MOMENTS         DIIS   ORB.
    1      0.000D+00      0.000D+00      -118.85550898    273.882180    0.16668   -0.24002    0.00000    0    start
    2      0.000D+00      0.141D-01      -119.03355962    260.680213    0.02519   -0.06829   -0.00000    1    diag,B
    3      0.163D-01      0.533D-02      -119.05665554    263.574024    0.03976   -0.10378   -0.00000    2    diag,B
    4      0.474D-02      0.664D-03      -119.05753485    263.364042    0.03331   -0.09215   -0.00000    3    diag,B
    5      0.164D-02      0.242D-03      -119.05767597    263.339853    0.03311   -0.09176   -0.00000    4    diag,B
    6      0.774D-03      0.934D-04      -119.05769645    263.313390    0.03084   -0.08923   -0.00000    5    diag,B
    7      0.326D-03      0.279D-04      -119.05769888    263.311920    0.03122   -0.08950   -0.00000    6    fixocc
    8      0.126D-03      0.931D-05      -119.05769920    263.311828    0.03119   -0.08956   -0.00000    7    diag,B
    9      0.511D-04      0.254D-05      -119.05769923    263.311870    0.03119   -0.08964   -0.00000    8    diag,B
   10      0.119D-04      0.828D-06      -119.05769923    263.311838    0.03117   -0.08964   -0.00000    9    orth
   11      0.401D-05      0.163D-06      -119.05769923    263.311832    0.03116   -0.08964   -0.00000    0    orth

 Final alpha occupancy:  13
 Final beta  occupancy:  12

 !RKS STATE 1.1 Energy               -119.057699231241
 Nuclear energy                        75.20704826
 One-electron energy                 -306.38418467
 Two-electron energy                  131.65591623
 Density functional                   -19.53647905     B88=-18.00401423 VWN5= -1.53246482
 Virial quotient                       -1.01744630
 !RKS STATE 1.1 Dipole moment           0.03115918    -0.08963913    -0.00000000
 Dipole moment /Debye                   0.07919354    -0.22782501    -0.00000000

 Orbital energies:

         1.1          2.1          3.1          4.1          5.1          6.1          7.1          8.1          9.1         10.1
     -9.956542    -9.956535    -9.953077    -0.699960    -0.624964    -0.506768    -0.409804    -0.382557    -0.370663    -0.349918

        11.1         12.1         13.1         14.1         15.1
     -0.322472    -0.314856    -0.156843     0.038931     0.063365

 HOMO     13.1    -0.156843 =      -4.2679eV
 LUMO     14.1     0.038931 =       1.0594eV
 LUMO-HOMO         0.195773 =       5.3273eV


 **********************************************************************************************************************************
 DATASETS  * FILE   NREC   LENGTH (MB)   RECORD NAMES
              1      20       48.47       500      610      700      900      950      970     1000      129      960     1100   
                                          VAR    BASINP    GEOM    SYMINP    ZMAT    AOBASIS   BASIS     P2S    ABASIS      S 
                                         1400     1410     1200     1210     1080     1600     1650     1300     1700     1800   
                                           T        V       H0       H01     AOSYM     SMH    MOLCAS    ERIS     OPER     GRID   

              2       5        3.08       700     1000      520     1800     2100   
                                         GEOM     BASIS   MCVARS    GRID      RKS  

 PROGRAMS   *        TOTAL        KS       INT
 CPU TIMES  *         7.67      6.67      0.86
 REAL TIME  *         8.70 SEC
 DISK USED  *       105.25 MB      
 **********************************************************************************************************************************


 PROGRAM * Intrinsic Basis Bonding Analysis (IBBA)          Author: G. Knizia

 Molecular orbitals read from record     2100.2  Type=RKS/CANONICAL (state 1.1)
 Fock matrix read from record            2100.2  Type=RKS/TOTAL (state 1.1)
 Orbital energies read from record       2100.2  Type=RKS/CANONICAL (state 1.1)
 Density matrix read from record         2100.2  Type=RKS/CHARGE (state 1.1)

 Number of core orbitals:           3 (   3 )
 Number of closed-shell orbitals:   9 (   9 )
 Number of active  orbitals:        1 (   1 )

 Basis set MINAO-AUTO-PP generated.      Number of basis functions:   22 

 Polarized AO type:                A = (O Ot + (1-O)(1-Ot)) P12
 Orthogonalization method:         Symmetric (Loewdin)
 Localization functional:          L = sum[A,i] <i|n_A|i>^4 -> max

 Localization group 1:  12 orbitals, occupancy  2.000
 Iterative localization: IB/PM,    7 iter; Final gradient 0.22E-08

 Bond order analysis:       [THRPRINT= 0.020]

   CEN ATOM   CEN ATOM     WIBERG.BO      RENORM.BO
     1   H  -   2   C       0.956434       0.968456

     2   C  -   4   C       1.103924       1.496079
     2   C  -   3   C       1.103924       1.496079
     2   C  -   1   H       0.956434       0.968456
     2   C  -   9   H       0.042393       0.304756
     2   C  -  10   H       0.042393       0.304756

     3   C  -   2   C       1.103924       1.496079
     3   C  -   5   H       0.958608       0.988672
     3   C  -   7   H       0.949458       0.987652
     3   C  -   9   H       0.917471       0.998077

     4   C  -   2   C       1.103924       1.496079
     4   C  -   6   H       0.958608       0.988672
     4   C  -   8   H       0.949458       0.987652
     4   C  -  10   H       0.917471       0.998077

     5   H  -   3   C       0.958608       0.988672

     6   H  -   4   C       0.958608       0.988672

     7   H  -   3   C       0.949458       0.987652

     8   H  -   4   C       0.949458       0.987652

     9   H  -   3   C       0.917471       0.998077
     9   H  -   2   C       0.042393       0.304756

    10   H  -   4   C       0.917471       0.998077
    10   H  -   2   C       0.042393       0.304756


 Valency analysis:

   CEN ATOM   TOT.VALENCE
     1   H       0.985832
     2   C       3.288310
     3   C       3.947787
     4   C       3.947787
     5   H       0.981270
     6   H       0.981270
     7   H       0.980167
     8   H       0.980167
     9   H       0.970139
    10   H       0.970139
 Localization group 2:   1 orbitals, occupancy  1.000
 Iterative localization: IB/PM,    1 iter; Final gradient 0.00E+00

 Bond order analysis:       [THRPRINT= 0.020]

   CEN ATOM   CEN ATOM     WIBERG.BO      RENORM.BO

     2   C  -   9   H       0.084526       0.500000
     2   C  -  10   H       0.084526       0.500000
     2   C  -   7   H       0.025974       0.500000
     2   C  -   8   H       0.025974       0.500000





     7   H  -   2   C       0.025974       0.500000

     8   H  -   2   C       0.025974       0.500000

     9   H  -   2   C       0.084526       0.500000

    10   H  -   2   C       0.084526       0.500000


 Valency analysis:

   CEN ATOM   TOT.VALENCE
     1   H       0.000843
     2   C       0.245858
     3   C       0.003907
     4   C       0.003907
     5   H       0.010123
     6   H       0.010123
     7   H       0.029867
     8   H       0.029867
     9   H       0.093821
    10   H       0.093821

 Total charge composition:

   CEN ATOM         s          p       ELECTRONS ->P.CHARGE
     1   H       0.88139                 0.88139    0.11861
     2   C       3.00671    3.11794      6.12465   -0.12465
     3   C       3.01278    3.36509      6.37787   -0.37787
     4   C       3.01278    3.36509      6.37787   -0.37787
     5   H       0.86823                 0.86823    0.13177
     6   H       0.86823                 0.86823    0.13177
     7   H       0.87433                 0.87433    0.12567
     8   H       0.87433                 0.87433    0.12567
     9   H       0.87654                 0.87654    0.12346
    10   H       0.87654                 0.87654    0.12346

 Total charge composition, AO contributions:

   CEN ATOM SHL      SPHERICAL COMPONENTS
     1   H  1s       0.88139

     2   C  1s       1.99250
     2   C  2s       1.01421
     2   C  2p       1.09593    1.01943    1.00258

     3   C  1s       1.99091
     3   C  2s       1.02187
     3   C  2p       1.13378    1.13825    1.09306

     4   C  1s       1.99091
     4   C  2s       1.02187
     4   C  2p       1.13378    1.13825    1.09306

     5   H  1s       0.86823

     6   H  1s       0.86823

     7   H  1s       0.87433

     8   H  1s       0.87433

     9   H  1s       0.87654

    10   H  1s       0.87654

 Active orbital charges:

   CEN ATOM         s          p       ELECTRONS ->SPIN.DEN
     1   H       0.00042                 0.00042    0.00042
     2   C       0.00843    0.84804      0.85647    0.85647
     3   C       0.00012    0.00184      0.00196    0.00196
     4   C       0.00012    0.00184      0.00196    0.00196
     5   H       0.00509                 0.00509    0.00509
     6   H       0.00509                 0.00509    0.00509
     7   H       0.01516                 0.01516    0.01516
     8   H       0.01516                 0.01516    0.01516
     9   H       0.04935                 0.04935    0.04935
    10   H       0.04935                 0.04935    0.04935

 Active orbital charges, AO contributions:

   CEN ATOM SHL      SPHERICAL COMPONENTS
     1   H  1s       0.00042

     2   C  1s       0.00001
     2   C  2s       0.00843
     2   C  2p       0.03393    0.81411    0.00000

     3   C  1s       0.00000
     3   C  2s       0.00012
     3   C  2p       0.00001    0.00175    0.00008

     4   C  1s       0.00000
     4   C  2s       0.00012
     4   C  2p       0.00001    0.00175    0.00008

     5   H  1s       0.00509

     6   H  1s       0.00509

     7   H  1s       0.01516

     8   H  1s       0.01516

     9   H  1s       0.04935

    10   H  1s       0.04935

 Summary of localized orbital composition:   [THRPRINT= 0.020]

   ORB  GRP  ORB.ENERGY      CENTERS/CHARGES
     1   1    -9.855754      C  2   2.000
     2   1    -9.843512      C  4   2.000
     3   1    -9.843512      C  3   2.000
     4   1    -0.547812      C  4   1.009   C  2   0.985
     5   1    -0.547812      C  3   1.009   C  2   0.985
     6   1    -0.473019      C  2   1.116   H  1   0.871
     7   1    -0.458499      C  4   1.115   H 10   0.824   C  2   0.058
     8   1    -0.458499      C  3   1.115   H  9   0.824   C  2   0.058
     9   1    -0.455141      C  3   1.120   H  7   0.854   C  2   0.021
    10   1    -0.455141      C  4   1.120   H  8   0.854   C  2   0.021
    11   1    -0.454709      C  4   1.126   H  6   0.857
    12   1    -0.454709      C  3   1.126   H  5   0.857
    13   2    -0.117929      C  2   0.856   H  9   0.049   H 10   0.049   (other: 0.045)

 Localized orbitals saved to record      2100.2  (orbital set 2)


 **********************************************************************************************************************************
 DATASETS  * FILE   NREC   LENGTH (MB)   RECORD NAMES
              1      20       48.47       500      610      700      900      950      970     1000      129      960     1100   
                                          VAR    BASINP    GEOM    SYMINP    ZMAT    AOBASIS   BASIS     P2S    ABASIS      S 
                                         1400     1410     1200     1210     1080     1600     1650     1300     1700     1800   
                                           T        V       H0       H01     AOSYM     SMH    MOLCAS    ERIS     OPER     GRID   

              2       5        3.13       700     1000      520     1800     2100   
                                         GEOM     BASIS   MCVARS    GRID      RKS  

 PROGRAMS   *        TOTAL      IBBA        KS       INT
 CPU TIMES  *         7.70      0.03      6.67      0.86
 REAL TIME  *         8.79 SEC
 DISK USED  *       105.25 MB      
 **********************************************************************************************************************************
 Molecular orbitals read from record     2100.2  Type=RKS/LOCAL(IBO)  
 Occupation numbers read from record     2100.2  Type=RKS/LOCAL(IBO)  
 Orbital energies read from record       2100.2  Type=RKS/LOCAL(IBO)  
 Redundancy group numbers read from rec  2100.2  Type=RKS/LOCAL(IBO)  

 IBBA/SVP energy=      0.000000000000

        KS-SCF  
   -119.05769923
 **********************************************************************************************************************************
 Molpro calculation terminated
