
 Primary working directories    : /tmp/sb13343
 Secondary working directories  : /tmp/sb13343
 Wavefunction directory         : /panfs/panasas01/chem/sb13343/wfu/
 Main file repository           : /tmp/sb13343/

 SHA1      : b4a5b34a9e711420743f49e6833241d17c61fb3c
 NAME      : 2099.9.b4a5b34
 ARCHNAME  : linux/x86_64_openmp
 FC        : /cm/shared/languages/GCC-6.1/bin/gfortran
 BLASLIB   : -lblas
 id        : simonbennie

 Nodes     nprocs
 node32-017    1

 Using customized tuning parameters: mindgm=1; mindgv=20; mindgc=4; mindgr=1; noblas=0; minvec=7
 default implementation of scratch files=df  

 memory,500,m
 geomtyp=xyz
 nosym
 noorient
 geometry={
 H         -1.57413        0.33845        0.00000
 C         -0.49500        0.20144        0.00000
 C          0.18857       -0.05954       -1.30114
 C          0.18857       -0.05954        1.30114
 H         -0.33790        0.40751       -2.14134
 H         -0.33790        0.40751        2.14134
 H          1.22176        0.31596       -1.29638
 H          1.22176        0.31596        1.29638
 H          0.25678       -1.13976       -1.52896
 H          0.25678       -1.13976        1.52896
 }
 basis={ default,sto-3g }
 {ks,PBEREV,direct;wf,25,1,1}
 {ibba,bonds=1}

 Variables initialized (895), CPU time= 0.01 sec
 Commands  initialized (725), CPU time= 0.01 sec, 591 directives.
 Default parameters read. Elapsed time= 0.08 sec

 Checking input...
 Passed
1


                                         ***  PROGRAM SYSTEM MOLPRO  ***
                                       Copyright, TTI GmbH Stuttgart, 2015
                                    Version 2099.9 linked May 26 2017 16:03:21


 **********************************************************************************************************************************
 LABEL *                                                                                 
  64 bit serial version                                                                  DATE: 08-Jun-17          TIME: 15:11:13  
 **********************************************************************************************************************************

 SHA1:             b4a5b34a9e711420743f49e6833241d17c61fb3c
 **********************************************************************************************************************************
 SETTING GEOMTYP        =    XYZ

 Variable memory set to  500000000 words,  buffer space 

 ZSYMEL=NOSYM

 SETTING BASIS          =    STO-3G


 Recomputing integrals since basis changed


 Using spherical harmonics

 Library entry H      S STO-3G               selected for orbital group  1
 Library entry C      S STO-3G               selected for orbital group  2
 Library entry C      P STO-3G               selected for orbital group  2


 PROGRAM * SEWARD (Integral evaluation for generally contracted gaussian basis sets)     Author: Roland Lindh, 1990

 Geometry written to block  1 of record 700


 Point group  C1  



 ATOMIC COORDINATES

 NR  ATOM    CHARGE       X              Y              Z

   1  H       1.00   -2.974674584    0.639577807    0.000000000
   2  C       6.00   -0.935414432    0.380666431    0.000000000
   3  C       6.00    0.356345655   -0.112514293   -2.458798250
   4  C       6.00    0.356345655   -0.112514293    2.458798250
   5  H       1.00   -0.638538457    0.770082293   -4.046546140
   6  H       1.00   -0.638538457    0.770082293    4.046546140
   7  H       1.00    2.308791790    0.597077866   -2.449803153
   8  H       1.00    2.308791790    0.597077866    2.449803153
   9  H       1.00    0.485243874   -2.153834248   -2.889315655
  10  H       1.00    0.485243874   -2.153834248    2.889315655

 Bond lengths in Bohr (Angstrom)

 1-2  2.055630578  2-3  2.820914777  2-4  2.820914777  3-5  2.071162595  3-7  2.077413742
     ( 1.087792856)     ( 1.492763814)     ( 1.492763814)     ( 1.096012045)     ( 1.099320010)

  3- 9  2.090202656   4- 6  2.071162595   4- 8  2.077413742   4-10  2.090202656
       ( 1.106087612)       ( 1.096012045)       ( 1.099320010)       ( 1.106087612)

 Bond angles

  1-2-3  118.44375943   1-2-4  118.44375943   2-3-5  111.94558337   2-3-7  111.52358867

  2- 3- 9  112.24140213   2- 4- 6  111.94558337   2- 4- 8  111.52358867   2- 4-10  112.24140213

  3-2-4  121.29758064   5-3-7  108.01204745   5-3-9  106.73207413   6-4-8  108.01204745

  6- 4-10  106.73207413   7- 3- 9  106.05262855   8- 4-10  106.05262855

 NUCLEAR CHARGE:                   25
 NUMBER OF PRIMITIVE AOS:          66
 NUMBER OF SYMMETRY AOS:           66
 NUMBER OF CONTRACTIONS:           22   (  22A   )
 NUMBER OF CORE ORBITALS:           3   (   3A   )
 NUMBER OF VALENCE ORBITALS:       19   (  19A   )


 NUCLEAR REPULSION ENERGY   75.20704826


 Eigenvalues of metric

         1 0.213E+00 0.225E+00 0.288E+00 0.342E+00 0.359E+00 0.374E+00 0.380E+00 0.402E+00


 Contracted 2-electron integrals neglected if value below      1.0D-11
 AO integral compression algorithm  1   Integral accuracy      1.0D-11

     0.524 MB (compressed) written to integral file ( 89.6%)


 NUMBER OF SORTED TWO-ELECTRON INTEGRALS:      32131.     BUFFER LENGTH:  32768
 NUMBER OF SEGMENTS:   1  SEGMENT LENGTH:      32131      RECORD LENGTH: 524288

 Memory used in sort:       0.59 MW

 SORT1 READ       38209. AND WROTE       30689. INTEGRALS IN      1 RECORDS. CPU TIME:     0.00 SEC, REAL TIME:     0.01 SEC
 SORT2 READ       30689. AND WROTE       32131. INTEGRALS IN      2 RECORDS. CPU TIME:     0.01 SEC, REAL TIME:     0.01 SEC

 FILE SIZES:   FILE 1:    30.6 MBYTE,  FILE 4:     4.2 MBYTE,   TOTAL:     34.9 MBYTE

 OPERATOR DM      FOR CENTER  0  COORDINATES:    0.000000    0.000000    0.000000


 **********************************************************************************************************************************
 DATASETS  * FILE   NREC   LENGTH (MB)   RECORD NAMES
              1      19       30.27       500      610      700      900      950      970     1000      129      960     1100   
                                          VAR    BASINP    GEOM    SYMINP    ZMAT    AOBASIS   BASIS     P2S    ABASIS      S 
                                         1400     1410     1200     1210     1080     1600     1650     1300     1700   
                                           T        V       H0       H01     AOSYM     SMH    MOLCAS    ERIS     OPER   

 PROGRAMS   *        TOTAL       INT
 CPU TIMES  *         0.54      0.40
 REAL TIME  *         0.88 SEC
 DISK USED  *        35.29 MB      
 **********************************************************************************************************************************

 Density functional group PBEREV=PBEXREV+PBEC
 Functional: PBEXREV(Automatically generated (new) PBEXREV)                    Gradient terms: 1
 Functional: PBEC(Automatically generated (new) PBEC)                          Gradient terms: 1
 Use grid at  1800.2

 Functional: PBEXREV                   Factor:  1.0000
 Functional: PBEC                      Factor:  1.0000

 Generated new metagrid on record  1800.2 with target accuracy 1.0D-06 and 32470 points in CPU time    0.7
 Computed new grid on record 1800.1 in CPU time    0.8
   21722 words reserved for DFT integration

 PROGRAM * RKS-SCF (Restricted open shell Kohn-Sham)     Authors: W. Meyer, H.-J. Werner, P.J. Knowles, 1993

 NUMBER OF ELECTRONS:      13+   12-    SPACE SYMMETRY=1    SPIN SYMMETRY: Doublet 
 CONVERGENCE THRESHOLDS:    1.00E-05 (Density)    1.00E-06 (Energy)
 MAX. NUMBER OF ITERATIONS:       60
 INTERPOLATION TYPE:            DIIS
 INTERPOLATION STEPS:              2 (START)      1 (STEP)
 LEVEL SHIFTS:                 -0.60 (CLOSED) -0.30 (OPEN) 



 Use fine grid record 1800.2 for energy threshold  1.0D-06
 Orbital guess generated from atomic densities. Full valence occupancy:   13

 Molecular orbital dump at record        2100.2

 Initial alpha occupancy:  13
 Initial beta  occupancy:  12
 Wave function symmetry:    1

 ITERATION    DDIFF          GRAD             ENERGY        2-EL.EN.            DIPOLE MOMENTS         DIIS   ORB.
    1      0.000D+00      0.000D+00      -116.86262429    271.411143    0.21751   -0.32238    0.00000    0    start
    2      0.000D+00      0.293D-01      -117.01821543    263.218034    0.01247   -0.02153    0.00000    1    diag,B
    3      0.613D-01      0.442D-02      -117.02170614    264.160067    0.03685   -0.06768    0.00000    2    diag,B
    4      0.804D-02      0.497D-03      -117.02189805    264.153316    0.03734   -0.07050    0.00000    3    diag,B
    5      0.133D-02      0.158D-03      -117.02192399    264.152052    0.03580   -0.06910    0.00000    4    diag,B
    6      0.535D-03      0.372D-04      -117.02192502    264.151655    0.03556   -0.06877    0.00000    5    diag,B
    7      0.106D-03      0.970D-05      -117.02192508    264.151917    0.03552   -0.06862    0.00000    6    fixocc
    8      0.278D-04      0.156D-05      -117.02192508    264.151926    0.03555   -0.06864    0.00000    7    diag,B
    9      0.481D-05      0.222D-06      -117.02192508    264.151929    0.03555   -0.06864    0.00000    0    orth

 Final alpha occupancy:  13
 Final beta  occupancy:  12

 !RKS STATE 1.1 Energy               -117.021925080445
 Nuclear energy                        75.20704826
 One-electron energy                 -305.42719844
 Two-electron energy                  132.07596441
 Density functional                   -18.87773931     PBEXREV=-18.07163129 PBEC= -0.80610802
 Virial quotient                       -1.01528791
 !RKS STATE 1.1 Dipole moment           0.03554745    -0.06863926     0.00000000
 Dipole moment /Debye                   0.09034668    -0.17445217     0.00000000

 Orbital energies:

         1.1          2.1          3.1          4.1          5.1          6.1          7.1          8.1          9.1         10.1
     -9.723256    -9.723252    -9.686275    -0.655828    -0.584581    -0.462374    -0.359369    -0.331554    -0.318134    -0.299616

        11.1         12.1         13.1         14.1         15.1
     -0.263401    -0.257505    -0.071210     0.337522     0.367599

 HOMO     13.1    -0.071210 =      -1.9377eV
 LUMO     14.1     0.337522 =       9.1844eV
 LUMO-HOMO         0.408732 =      11.1222eV


 **********************************************************************************************************************************
 DATASETS  * FILE   NREC   LENGTH (MB)   RECORD NAMES
              1      20       31.31       500      610      700      900      950      970     1000      129      960     1100   
                                          VAR    BASINP    GEOM    SYMINP    ZMAT    AOBASIS   BASIS     P2S    ABASIS      S 
                                         1400     1410     1200     1210     1080     1600     1650     1300     1700     1800   
                                           T        V       H0       H01     AOSYM     SMH    MOLCAS    ERIS     OPER     GRID   

              2       5        2.92       700     1000      520     1800     2100   
                                         GEOM     BASIS   MCVARS    GRID      RKS  

 PROGRAMS   *        TOTAL        KS       INT
 CPU TIMES  *         2.67      2.13      0.40
 REAL TIME  *         3.09 SEC
 DISK USED  *        35.29 MB      
 **********************************************************************************************************************************


 PROGRAM * Intrinsic Basis Bonding Analysis (IBBA)          Author: G. Knizia

 Molecular orbitals read from record     2100.2  Type=RKS/CANONICAL (state 1.1)
 Fock matrix read from record            2100.2  Type=RKS/TOTAL (state 1.1)
 Orbital energies read from record       2100.2  Type=RKS/CANONICAL (state 1.1)
 Density matrix read from record         2100.2  Type=RKS/CHARGE (state 1.1)

 Number of core orbitals:           3 (   3 )
 Number of closed-shell orbitals:   9 (   9 )
 Number of active  orbitals:        1 (   1 )

 Basis set MINAO-AUTO-PP generated.      Number of basis functions:   22 

 Polarized AO type:                A = (O Ot + (1-O)(1-Ot)) P12
 Orthogonalization method:         Symmetric (Loewdin)
 Localization functional:          L = sum[A,i] <i|n_A|i>^4 -> max

 Localization group 1:  12 orbitals, occupancy  2.000
 Iterative localization: IB/PM,    7 iter; Final gradient 0.54E-09

 Bond order analysis:       [THRPRINT= 0.020]

   CEN ATOM   CEN ATOM     WIBERG.BO      RENORM.BO
     1   H  -   2   C       0.960547       0.971105

     2   C  -   4   C       1.084009       1.499186
     2   C  -   3   C       1.084009       1.499186
     2   C  -   1   H       0.960547       0.971105
     2   C  -   9   H       0.034590       0.306599
     2   C  -  10   H       0.034590       0.306599

     3   C  -   2   C       1.084009       1.499186
     3   C  -   5   H       0.958476       0.989685
     3   C  -   7   H       0.951790       0.990206
     3   C  -   9   H       0.926391       0.998491

     4   C  -   2   C       1.084009       1.499186
     4   C  -   6   H       0.958476       0.989685
     4   C  -   8   H       0.951790       0.990206
     4   C  -  10   H       0.926391       0.998491

     5   H  -   3   C       0.958476       0.989685

     6   H  -   4   C       0.958476       0.989685

     7   H  -   3   C       0.951790       0.990206

     8   H  -   4   C       0.951790       0.990206

     9   H  -   3   C       0.926391       0.998491
     9   H  -   2   C       0.034590       0.306599

    10   H  -   4   C       0.926391       0.998491
    10   H  -   2   C       0.034590       0.306599


 Valency analysis:

   CEN ATOM   TOT.VALENCE
     1   H       0.986644
     2   C       3.231419
     3   C       3.936116
     4   C       3.936116
     5   H       0.980101
     6   H       0.980101
     7   H       0.979099
     8   H       0.979099
     9   H       0.970951
    10   H       0.970951
 Localization group 2:   1 orbitals, occupancy  1.000
 Iterative localization: IB/PM,    1 iter; Final gradient 0.00E+00

 Bond order analysis:       [THRPRINT= 0.020]

   CEN ATOM   CEN ATOM     WIBERG.BO      RENORM.BO

     2   C  -   9   H       0.071654       0.500000
     2   C  -  10   H       0.071654       0.500000
     2   C  -   7   H       0.023111       0.500000
     2   C  -   8   H       0.023111       0.500000





     7   H  -   2   C       0.023111       0.500000

     8   H  -   2   C       0.023111       0.500000

     9   H  -   2   C       0.071654       0.500000

    10   H  -   2   C       0.071654       0.500000


 Valency analysis:

   CEN ATOM   TOT.VALENCE
     1   H       0.000604
     2   C       0.217364
     3   C       0.005466
     4   C       0.005466
     5   H       0.010054
     6   H       0.010054
     7   H       0.026037
     8   H       0.026037
     9   H       0.078458
    10   H       0.078458

 Total charge composition:

   CEN ATOM         s          p       ELECTRONS ->P.CHARGE
     1   H       0.88474                 0.88474    0.11526
     2   C       3.00422    3.09450      6.09871   -0.09871
     3   C       2.99532    3.40989      6.40520   -0.40520
     4   C       2.99532    3.40989      6.40520   -0.40520
     5   H       0.86399                 0.86399    0.13601
     6   H       0.86399                 0.86399    0.13601
     7   H       0.86862                 0.86862    0.13138
     8   H       0.86862                 0.86862    0.13138
     9   H       0.87046                 0.87046    0.12954
    10   H       0.87046                 0.87046    0.12954

 Total charge composition, AO contributions:

   CEN ATOM SHL      SPHERICAL COMPONENTS
     1   H  1s       0.88474

     2   C  1s       1.99313
     2   C  2s       1.01108
     2   C  2p       1.09225    1.00449    0.99775

     3   C  1s       1.99174
     3   C  2s       1.00358
     3   C  2p       1.14964    1.15820    1.10205

     4   C  1s       1.99174
     4   C  2s       1.00358
     4   C  2p       1.14964    1.15820    1.10205

     5   H  1s       0.86399

     6   H  1s       0.86399

     7   H  1s       0.86862

     8   H  1s       0.86862

     9   H  1s       0.87046

    10   H  1s       0.87046

 Active orbital charges:

   CEN ATOM         s          p       ELECTRONS ->SPIN.DEN
     1   H       0.00030                 0.00030    0.00030
     2   C       0.00932    0.86661      0.87592    0.87592
     3   C       0.00008    0.00266      0.00274    0.00274
     4   C       0.00008    0.00266      0.00274    0.00274
     5   H       0.00505                 0.00505    0.00505
     6   H       0.00505                 0.00505    0.00505
     7   H       0.01319                 0.01319    0.01319
     8   H       0.01319                 0.01319    0.01319
     9   H       0.04090                 0.04090    0.04090
    10   H       0.04090                 0.04090    0.04090

 Active orbital charges, AO contributions:

   CEN ATOM SHL      SPHERICAL COMPONENTS
     1   H  1s       0.00030

     2   C  1s       0.00001
     2   C  2s       0.00931
     2   C  2p       0.03614    0.83046    0.00000

     3   C  1s       0.00000
     3   C  2s       0.00008
     3   C  2p       0.00000    0.00253    0.00013

     4   C  1s       0.00000
     4   C  2s       0.00008
     4   C  2p       0.00000    0.00253    0.00013

     5   H  1s       0.00505

     6   H  1s       0.00505

     7   H  1s       0.01319

     8   H  1s       0.01319

     9   H  1s       0.04090

    10   H  1s       0.04090

 Summary of localized orbital composition:   [THRPRINT= 0.020]

   ORB  GRP  ORB.ENERGY      CENTERS/CHARGES
     1   1    -9.612224      C  4   2.000
     2   1    -9.612224      C  3   2.000
     3   1    -9.588506      C  2   2.000
     4   1    -0.486701      C  3   1.012   C  2   0.980
     5   1    -0.486701      C  4   1.012   C  2   0.980
     6   1    -0.423379      C  2   1.113   H  1   0.876
     7   1    -0.410618      C  3   1.125   H  9   0.826   C  2   0.047
     8   1    -0.410618      C  4   1.125   H 10   0.826   C  2   0.047
     9   1    -0.409352      C  3   1.132   H  5   0.853
    10   1    -0.409352      C  4   1.132   H  6   0.853
    11   1    -0.407734      C  4   1.128   H  8   0.850   (other: 0.022)
    12   1    -0.407734      C  3   1.128   H  7   0.850   (other: 0.022)
    13   2    -0.015315      C  2   0.876   H  9   0.041   H 10   0.041   (other: 0.042)

 Localized orbitals saved to record      2100.2  (orbital set 2)


 **********************************************************************************************************************************
 DATASETS  * FILE   NREC   LENGTH (MB)   RECORD NAMES
              1      20       31.31       500      610      700      900      950      970     1000      129      960     1100   
                                          VAR    BASINP    GEOM    SYMINP    ZMAT    AOBASIS   BASIS     P2S    ABASIS      S 
                                         1400     1410     1200     1210     1080     1600     1650     1300     1700     1800   
                                           T        V       H0       H01     AOSYM     SMH    MOLCAS    ERIS     OPER     GRID   

              2       5        2.92       700     1000      520     1800     2100   
                                         GEOM     BASIS   MCVARS    GRID      RKS  

 PROGRAMS   *        TOTAL      IBBA        KS       INT
 CPU TIMES  *         2.70      0.02      2.13      0.40
 REAL TIME  *         3.17 SEC
 DISK USED  *        35.29 MB      
 **********************************************************************************************************************************
 Molecular orbitals read from record     2100.2  Type=RKS/LOCAL(IBO)  
 Occupation numbers read from record     2100.2  Type=RKS/LOCAL(IBO)  
 Orbital energies read from record       2100.2  Type=RKS/LOCAL(IBO)  
 Redundancy group numbers read from rec  2100.2  Type=RKS/LOCAL(IBO)  

 IBBA/STO-3G energy=      0.000000000000

        KS-SCF  
   -117.02192508
 **********************************************************************************************************************************
 Molpro calculation terminated
