
 Primary working directories    : /tmp/sb13343
 Secondary working directories  : /tmp/sb13343
 Wavefunction directory         : /panfs/panasas01/chem/sb13343/wfu/
 Main file repository           : /tmp/sb13343/

 SHA1      : b4a5b34a9e711420743f49e6833241d17c61fb3c
 NAME      : 2099.9.b4a5b34
 ARCHNAME  : linux/x86_64_openmp
 FC        : /cm/shared/languages/GCC-6.1/bin/gfortran
 BLASLIB   : -lblas
 id        : simonbennie

 Nodes     nprocs
 node32-043    1

 Using customized tuning parameters: mindgm=1; mindgv=20; mindgc=4; mindgr=1; noblas=0; minvec=7
 default implementation of scratch files=df  

 memory,500,m
 geomtyp=xyz
 nosym
 noorient
 geometry={
 H         -1.57413        0.33845        0.00000
 C         -0.49500        0.20144        0.00000
 C          0.18857       -0.05954       -1.30114
 C          0.18857       -0.05954        1.30114
 H         -0.33790        0.40751       -2.14134
 H         -0.33790        0.40751        2.14134
 H          1.22176        0.31596       -1.29638
 H          1.22176        0.31596        1.29638
 H          0.25678       -1.13976       -1.52896
 H          0.25678       -1.13976        1.52896
 }
 basis={ default,svp }
 {uks,LDA,direct;wf,25,1,1}
 {ibba,bonds=1}

 Variables initialized (895), CPU time= 0.00 sec
 Commands  initialized (725), CPU time= 0.01 sec, 591 directives.
 Default parameters read. Elapsed time= 0.08 sec

 Checking input...
 Passed
1


                                         ***  PROGRAM SYSTEM MOLPRO  ***
                                       Copyright, TTI GmbH Stuttgart, 2015
                                    Version 2099.9 linked May 26 2017 16:03:21


 **********************************************************************************************************************************
 LABEL *                                                                                 
  64 bit serial version                                                                  DATE: 08-Jun-17          TIME: 15:24:01  
 **********************************************************************************************************************************

 SHA1:             b4a5b34a9e711420743f49e6833241d17c61fb3c
 **********************************************************************************************************************************
 SETTING GEOMTYP        =    XYZ

 Variable memory set to  500000000 words,  buffer space 

 ZSYMEL=NOSYM

 SETTING BASIS          =    SVP


 Recomputing integrals since basis changed


 Using spherical harmonics

 Library entry H      S def2-SVP             selected for orbital group  1
 Library entry H      P def2-SVP             selected for orbital group  1
 Library entry C      S def2-SVP             selected for orbital group  2
 Library entry C      P def2-SVP             selected for orbital group  2
 Library entry C      D def2-SVP             selected for orbital group  2


 PROGRAM * SEWARD (Integral evaluation for generally contracted gaussian basis sets)     Author: Roland Lindh, 1990

 Geometry written to block  1 of record 700


 Point group  C1  



 ATOMIC COORDINATES

 NR  ATOM    CHARGE       X              Y              Z

   1  H       1.00   -2.974674584    0.639577807    0.000000000
   2  C       6.00   -0.935414432    0.380666431    0.000000000
   3  C       6.00    0.356345655   -0.112514293   -2.458798250
   4  C       6.00    0.356345655   -0.112514293    2.458798250
   5  H       1.00   -0.638538457    0.770082293   -4.046546140
   6  H       1.00   -0.638538457    0.770082293    4.046546140
   7  H       1.00    2.308791790    0.597077866   -2.449803153
   8  H       1.00    2.308791790    0.597077866    2.449803153
   9  H       1.00    0.485243874   -2.153834248   -2.889315655
  10  H       1.00    0.485243874   -2.153834248    2.889315655

 Bond lengths in Bohr (Angstrom)

 1-2  2.055630578  2-3  2.820914777  2-4  2.820914777  3-5  2.071162595  3-7  2.077413742
     ( 1.087792856)     ( 1.492763814)     ( 1.492763814)     ( 1.096012045)     ( 1.099320010)

  3- 9  2.090202656   4- 6  2.071162595   4- 8  2.077413742   4-10  2.090202656
       ( 1.106087612)       ( 1.096012045)       ( 1.099320010)       ( 1.106087612)

 Bond angles

  1-2-3  118.44375943   1-2-4  118.44375943   2-3-5  111.94558337   2-3-7  111.52358867

  2- 3- 9  112.24140213   2- 4- 6  111.94558337   2- 4- 8  111.52358867   2- 4-10  112.24140213

  3-2-4  121.29758064   5-3-7  108.01204745   5-3-9  106.73207413   6-4-8  108.01204745

  6- 4-10  106.73207413   7- 3- 9  106.05262855   8- 4-10  106.05262855

 NUCLEAR CHARGE:                   25
 NUMBER OF PRIMITIVE AOS:         124
 NUMBER OF SYMMETRY AOS:          121
 NUMBER OF CONTRACTIONS:           77   (  77A   )
 NUMBER OF CORE ORBITALS:           3   (   3A   )
 NUMBER OF VALENCE ORBITALS:       19   (  19A   )


 NUCLEAR REPULSION ENERGY   75.20704826


 Eigenvalues of metric

         1 0.402E-02 0.537E-02 0.229E-01 0.265E-01 0.266E-01 0.379E-01 0.436E-01 0.492E-01


 Contracted 2-electron integrals neglected if value below      1.0D-11
 AO integral compression algorithm  1   Integral accuracy      1.0D-11

     19.923 MB (compressed) written to integral file ( 49.4%)


 NUMBER OF SORTED TWO-ELECTRON INTEGRALS:    4510506.     BUFFER LENGTH:  32768
 NUMBER OF SEGMENTS:   1  SEGMENT LENGTH:    4510506      RECORD LENGTH: 524288

 Memory used in sort:       5.07 MW

 SORT1 READ     5074366. AND WROTE     4244391. INTEGRALS IN     13 RECORDS. CPU TIME:     0.06 SEC, REAL TIME:     0.11 SEC
 SORT2 READ     4244391. AND WROTE     4510506. INTEGRALS IN     76 RECORDS. CPU TIME:     0.14 SEC, REAL TIME:     0.17 SEC

 FILE SIZES:   FILE 1:    50.3 MBYTE,  FILE 4:    54.6 MBYTE,   TOTAL:    104.8 MBYTE

 OPERATOR DM      FOR CENTER  0  COORDINATES:    0.000000    0.000000    0.000000


 **********************************************************************************************************************************
 DATASETS  * FILE   NREC   LENGTH (MB)   RECORD NAMES
              1      19       47.44       500      610      700      900      950      970     1000      129      960     1100   
                                          VAR    BASINP    GEOM    SYMINP    ZMAT    AOBASIS   BASIS     P2S    ABASIS      S 
                                         1400     1410     1200     1210     1080     1600     1650     1300     1700   
                                           T        V       H0       H01     AOSYM     SMH    MOLCAS    ERIS     OPER   

 PROGRAMS   *        TOTAL       INT
 CPU TIMES  *         1.04      0.90
 REAL TIME  *         1.46 SEC
 DISK USED  *       105.25 MB      
 **********************************************************************************************************************************

 Density functional group LDA=DIRAC+VWN5
 Functional: DIRAC(Automatically generated (new) DIRAC)                        Gradient terms: 0
 Functional: VWN5(Automatically generated (new) VWN5)                          Gradient terms: 0
 Use grid at  1800.2

 Functional: DIRAC                     Factor:  1.0000
 Functional: VWN5                      Factor:  1.0000

 Generated new metagrid on record  1800.2 with target accuracy 1.0D-06 and 32470 points in CPU time    0.7
 Computed new grid on record 1800.1 in CPU time    0.8
   35847 words reserved for DFT integration

 PROGRAM * UKS-SCF (Unrestricted Kohn-Sham)     Authors: W. Meyer, H.-J. Werner, P.J. Knowles, 1993

 NUMBER OF ELECTRONS:      13+   12-    SPACE SYMMETRY=1    SPIN SYMMETRY: Doublet 
 CONVERGENCE THRESHOLDS:    1.00E-05 (Density)    1.00E-06 (Energy)
 MAX. NUMBER OF ITERATIONS:       60
 INTERPOLATION TYPE:            DIIS
 INTERPOLATION STEPS:              2 (START)      1 (STEP)
 LEVEL SHIFTS:                 -0.20 (ALPHA)  -0.20 (BETA) 



 Use fine grid record 1800.2 for energy threshold  1.0D-06
 Orbital guess generated from atomic densities. Full valence occupancy:   13

 Molecular orbital dump at record        2200.2

 Initial alpha occupation  13
 Initial beta  occupation  12

 ITERATION    DDIFF          GRAD             ENERGY        2-EL.EN.            DIPOLE MOMENTS         DIIS
    1      0.000D+00      0.000D+00      -117.01611538    273.976765    0.21006   -0.27956    0.00000    0
    2      0.175D-01      0.809D-02      -117.19439496    259.066967    0.07758   -0.11869   -0.00000    1
    3      0.573D-02      0.386D-02      -117.23525123    263.086027    0.07114   -0.13772   -0.00000    2
    4      0.145D-02      0.315D-03      -117.23594988    262.960021    0.06718   -0.12996   -0.00000    3
    5      0.743D-03      0.114D-03      -117.23608100    262.921974    0.05705   -0.12145   -0.00000    4
    6      0.330D-03      0.434D-04      -117.23610248    262.913819    0.05463   -0.11811   -0.00000    5
    7      0.794D-04      0.141D-04      -117.23610411    262.909147    0.05279   -0.11631   -0.00000    6
    8      0.331D-04      0.884D-05      -117.23610443    262.910874    0.05264   -0.11609   -0.00000    7
    9      0.106D-04      0.137D-05      -117.23610445    262.910285    0.05270   -0.11598   -0.00000    6
   10      0.351D-05      0.363D-06      -117.23610446    262.910539    0.05266   -0.11593   -0.00000    7
   11      0.111D-05      0.160D-06      -117.23610446    262.910356    0.05267   -0.11592   -0.00000    7

 Final alpha occupancy:  13
 Final beta  occupancy:  12

 !UKS STATE 1.1 Energy               -117.236104456081
 Nuclear energy                        75.20704826
 One-electron energy                 -306.27462747
 Two-electron energy                  131.45517777
 Density functional                   -17.62370302     DIRAC=-16.09545051 VWN5= -1.52825251
 Virial quotient                       -1.00786667
 !UKS STATE 1.1 Dipole moment           0.05266731    -0.11592301    -0.00000000
 Dipole moment /Debye                   0.13385817    -0.29462761    -0.00000000

 Orbital energies for positive spin:

         1.1          2.1          3.1          4.1          5.1          6.1          7.1          8.1          9.1         10.1
     -9.788797    -9.776859    -9.776832    -0.693753    -0.611729    -0.498883    -0.403417    -0.378857    -0.364013    -0.338329

        11.1         12.1         13.1         14.1         15.1
     -0.312285    -0.302010    -0.140679     0.042684     0.069513

 Orbital energies for negative spin:

         1.1          2.1          3.1          4.1          5.1          6.1          7.1          8.1          9.1         10.1
     -9.777518    -9.777501    -9.774521    -0.680005    -0.607882    -0.483427    -0.397052    -0.367315    -0.357067    -0.333596

        11.1         12.1         13.1         14.1         15.1
     -0.307330    -0.294885    -0.084539     0.045566     0.073688

 HOMO     13.1    -0.140679 =      -3.8281eV
 LUMO    -13.1    -0.084539 =      -2.3004eV
 LUMO-HOMO         0.056141 =       1.5277eV

 EXPECTATION VALUE OF S**2:             0.75218454

 Occupation number threshold for canonical orbitals:  1.999000 (occupied),  0.001000 (virtual)

 Number of pseudo-canonical orbitals per symmetry:   12
 Number of active natural orbitals per symmetry:      1

 Natural orbitals saved to record    2200.2 (Orbital set 3)

 Orbital spaces for UNO-CAS (Min. occupation: 0.020  Max. occupation: 1.980):

 Closed:       12
 Active:        1


 **********************************************************************************************************************************
 DATASETS  * FILE   NREC   LENGTH (MB)   RECORD NAMES
              1      20       48.47       500      610      700      900      950      970     1000      129      960     1100   
                                          VAR    BASINP    GEOM    SYMINP    ZMAT    AOBASIS   BASIS     P2S    ABASIS      S 
                                         1400     1410     1200     1210     1080     1600     1650     1300     1700     1800   
                                           T        V       H0       H01     AOSYM     SMH    MOLCAS    ERIS     OPER     GRID   

              2       5        3.16       700     1000      520     1800     2200   
                                         GEOM     BASIS   MCVARS    GRID      UKS  

 PROGRAMS   *        TOTAL       UKS       INT
 CPU TIMES  *         6.04      5.00      0.90
 REAL TIME  *         7.05 SEC
 DISK USED  *       105.25 MB      
 **********************************************************************************************************************************


 PROGRAM * Intrinsic Basis Bonding Analysis (IBBA)          Author: G. Knizia

 Molecular orbitals read from record     2200.2  Type=UKS/ALPHA (state 1.1)
 Fock matrix read from record            2200.2  Type=UKS/TOTAL (state 1.1)
 Orbital energies read from record       2200.2  Type=UKS/ALPHA (state 1.1)
 Density matrix read from record         2200.2  Type=UKS/CHARGE (state 1.1)

 Number of core orbitals:           3 (   3 )
 Number of closed-shell orbitals:   9 (   9 )
 Number of active  orbitals:        1 (   1 )

 Basis set MINAO-AUTO-PP generated.      Number of basis functions:   22 

 Polarized AO type:                A = (O Ot + (1-O)(1-Ot)) P12
 Orthogonalization method:         Symmetric (Loewdin)
 Localization functional:          L = sum[A,i] <i|n_A|i>^4 -> max

 Localization group 1:  12 orbitals, occupancy  2.000
 Iterative localization: IB/PM,    8 iter; Final gradient 0.44E-09

 Bond order analysis:       [THRPRINT= 0.020]

   CEN ATOM   CEN ATOM     WIBERG.BO      RENORM.BO
     1   H  -   2   C       0.942911       0.966732

     2   C  -   3   C       1.171635       1.483263
     2   C  -   4   C       1.171635       1.483263
     2   C  -   1   H       0.942911       0.966732
     2   C  -   9   H       0.063534       0.272363
     2   C  -  10   H       0.063534       0.272363
     2   C  -   7   H       0.021393       0.083769
     2   C  -   8   H       0.021393       0.083769

     3   C  -   2   C       1.171635       1.483263
     3   C  -   5   H       0.944030       0.987808
     3   C  -   7   H       0.926661       0.986477
     3   C  -   9   H       0.865870       0.996730

     4   C  -   2   C       1.171635       1.483263
     4   C  -   6   H       0.944030       0.987808
     4   C  -   8   H       0.926661       0.986477
     4   C  -  10   H       0.865870       0.996730

     5   H  -   3   C       0.944030       0.987808

     6   H  -   4   C       0.944030       0.987808

     7   H  -   3   C       0.926661       0.986477
     7   H  -   2   C       0.021393       0.083769

     8   H  -   4   C       0.926661       0.986477
     8   H  -   2   C       0.021393       0.083769

     9   H  -   3   C       0.865870       0.996730
     9   H  -   2   C       0.063534       0.272363

    10   H  -   4   C       0.865870       0.996730
    10   H  -   2   C       0.063534       0.272363


 Valency analysis:

   CEN ATOM   TOT.VALENCE
     1   H       0.974104
     2   C       3.474209
     3   C       3.935298
     4   C       3.935298
     5   H       0.973771
     6   H       0.973771
     7   H       0.971182
     8   H       0.971182
     9   H       0.952919
    10   H       0.952919
 Localization group 2:   1 orbitals, occupancy  1.000
 Iterative localization: IB/PM,    1 iter; Final gradient 0.00E+00

 Bond order analysis:       [THRPRINT= 0.020]

   CEN ATOM   CEN ATOM     WIBERG.BO      RENORM.BO

     2   C  -   9   H       0.104110       0.500000
     2   C  -  10   H       0.104110       0.500000
     2   C  -   7   H       0.033547       0.500000
     2   C  -   8   H       0.033547       0.500000





     7   H  -   2   C       0.033547       0.500000

     8   H  -   2   C       0.033547       0.500000

     9   H  -   2   C       0.104110       0.500000

    10   H  -   2   C       0.104110       0.500000


 Valency analysis:

   CEN ATOM   TOT.VALENCE
     1   H       0.001340
     2   C       0.329031
     3   C       0.019128
     4   C       0.019128
     5   H       0.013815
     6   H       0.013815
     7   H       0.041441
     8   H       0.041441
     9   H       0.122758
    10   H       0.122758

 Total charge composition:

   CEN ATOM         s          p       ELECTRONS ->P.CHARGE
     1   H       0.83975                 0.83975    0.16025
     2   C       3.02543    3.24247      6.26790   -0.26790
     3   C       3.00057    3.40049      6.40105   -0.40105
     4   C       3.00057    3.40049      6.40105   -0.40105
     5   H       0.84500                 0.84500    0.15500
     6   H       0.84500                 0.84500    0.15500
     7   H       0.85141                 0.85141    0.14859
     8   H       0.85141                 0.85141    0.14859
     9   H       0.84871                 0.84871    0.15129
    10   H       0.84871                 0.84871    0.15129

 Total charge composition, AO contributions:

   CEN ATOM SHL      SPHERICAL COMPONENTS
     1   H  1s       0.83975

     2   C  1s       1.99329
     2   C  2s       1.03214
     2   C  2p       1.13364    1.08395    1.02487

     3   C  1s       1.99193
     3   C  2s       1.00864
     3   C  2p       1.15366    1.14745    1.09938

     4   C  1s       1.99193
     4   C  2s       1.00864
     4   C  2p       1.15366    1.14745    1.09938

     5   H  1s       0.84500

     6   H  1s       0.84500

     7   H  1s       0.85141

     8   H  1s       0.85141

     9   H  1s       0.84871

    10   H  1s       0.84871

 Active orbital charges:

   CEN ATOM         s          p       ELECTRONS ->SPIN.DEN
     1   H       0.00067                 0.00067    0.00067
     2   C       0.00597    0.78641      0.79238    0.79238
     3   C       0.00014    0.00952      0.00966    0.00966
     4   C       0.00014    0.00952      0.00966    0.00966
     5   H       0.00696                 0.00696    0.00696
     6   H       0.00696                 0.00696    0.00696
     7   H       0.02117                 0.02117    0.02117
     8   H       0.02117                 0.02117    0.02117
     9   H       0.06569                 0.06569    0.06569
    10   H       0.06569                 0.06569    0.06569

 Active orbital charges, AO contributions:

   CEN ATOM SHL      SPHERICAL COMPONENTS
     1   H  1s       0.00067

     2   C  1s       0.00001
     2   C  2s       0.00596
     2   C  2p       0.03248    0.75393    0.00000

     3   C  1s       0.00000
     3   C  2s       0.00014
     3   C  2p       0.00006    0.00940    0.00006

     4   C  1s       0.00000
     4   C  2s       0.00014
     4   C  2p       0.00006    0.00940    0.00006

     5   H  1s       0.00696

     6   H  1s       0.00696

     7   H  1s       0.02117

     8   H  1s       0.02117

     9   H  1s       0.06569

    10   H  1s       0.06569

 Summary of localized orbital composition:   [THRPRINT= 0.020]

   ORB  GRP  ORB.ENERGY      CENTERS/CHARGES
     1   1    -9.684896      C  2   2.000
     2   1    -9.668032      C  4   2.000
     3   1    -9.668032      C  3   2.000
     4   1    -0.539753      C  2   1.002   C  4   0.989
     5   1    -0.539753      C  2   1.002   C  3   0.989
     6   1    -0.455509      C  2   1.158   H  1   0.828
     7   1    -0.444670      C  4   1.115   H 10   0.776   C  2   0.103
     8   1    -0.444670      C  3   1.115   H  9   0.776   C  2   0.103
     9   1    -0.439250      C  3   1.134   H  7   0.823   C  2   0.035
    10   1    -0.439250      C  4   1.134   H  8   0.823   C  2   0.035
    11   1    -0.438214      C  3   1.145   H  5   0.831   (other: 0.024)
    12   1    -0.438214      C  4   1.145   H  6   0.831   (other: 0.024)
    13   2    -0.112493      C  2   0.792   H  9   0.066   H 10   0.066   H  7   0.021   H  8   0.021   (other: 0.034)

 Localized orbitals saved to record      2200.2  (orbital set 4)


 **********************************************************************************************************************************
 DATASETS  * FILE   NREC   LENGTH (MB)   RECORD NAMES
              1      20       48.47       500      610      700      900      950      970     1000      129      960     1100   
                                          VAR    BASINP    GEOM    SYMINP    ZMAT    AOBASIS   BASIS     P2S    ABASIS      S 
                                         1400     1410     1200     1210     1080     1600     1650     1300     1700     1800   
                                           T        V       H0       H01     AOSYM     SMH    MOLCAS    ERIS     OPER     GRID   

              2       5        3.21       700     1000      520     1800     2200   
                                         GEOM     BASIS   MCVARS    GRID      UKS  

 PROGRAMS   *        TOTAL      IBBA       UKS       INT
 CPU TIMES  *         6.07      0.03      5.00      0.90
 REAL TIME  *         7.13 SEC
 DISK USED  *       105.25 MB      
 **********************************************************************************************************************************
 Molecular orbitals read from record     2200.2  Type=UKS/LOCAL(IBO)  
 Occupation numbers read from record     2200.2  Type=UKS/LOCAL(IBO)  
 Orbital energies read from record       2200.2  Type=UKS/LOCAL(IBO)  
 Redundancy group numbers read from rec  2200.2  Type=UKS/BETA (state 1.1)

 IBBA/SVP energy=      0.000000000000

        UKS-SCF 
   -117.23610446
 **********************************************************************************************************************************
 Molpro calculation terminated
