
 Primary working directories    : /tmp/sb13343
 Secondary working directories  : /tmp/sb13343
 Wavefunction directory         : /panfs/panasas01/chem/sb13343/wfu/
 Main file repository           : /tmp/sb13343/

 SHA1      : b4a5b34a9e711420743f49e6833241d17c61fb3c
 NAME      : 2099.9.b4a5b34
 ARCHNAME  : linux/x86_64_openmp
 FC        : /cm/shared/languages/GCC-6.1/bin/gfortran
 BLASLIB   : -lblas
 id        : simonbennie

 Nodes     nprocs
 node32-018    1

 Using customized tuning parameters: mindgm=1; mindgv=20; mindgc=4; mindgr=1; noblas=0; minvec=7
 default implementation of scratch files=df  

 memory,500,m
 geomtyp=xyz
 nosym
 noorient
 geometry={
 H         -1.57413        0.33845        0.00000
 C         -0.49500        0.20144        0.00000
 C          0.18857       -0.05954       -1.30114
 C          0.18857       -0.05954        1.30114
 H         -0.33790        0.40751       -2.14134
 H         -0.33790        0.40751        2.14134
 H          1.22176        0.31596       -1.29638
 H          1.22176        0.31596        1.29638
 H          0.25678       -1.13976       -1.52896
 H          0.25678       -1.13976        1.52896
 }
 basis={ default,svp }
 {ks,M06-HF,direct;wf,25,1,1}
 {ibba,bonds=1}

 Variables initialized (895), CPU time= 0.00 sec
 Commands  initialized (725), CPU time= 0.01 sec, 591 directives.
 Default parameters read. Elapsed time= 0.09 sec

 Checking input...
 Passed
1


                                         ***  PROGRAM SYSTEM MOLPRO  ***
                                       Copyright, TTI GmbH Stuttgart, 2015
                                    Version 2099.9 linked May 26 2017 16:03:21


 **********************************************************************************************************************************
 LABEL *                                                                                 
  64 bit serial version                                                                  DATE: 08-Jun-17          TIME: 15:33:37  
 **********************************************************************************************************************************

 SHA1:             b4a5b34a9e711420743f49e6833241d17c61fb3c
 **********************************************************************************************************************************
 SETTING GEOMTYP        =    XYZ

 Variable memory set to  500000000 words,  buffer space 

 ZSYMEL=NOSYM

 SETTING BASIS          =    SVP


 Recomputing integrals since basis changed


 Using spherical harmonics

 Library entry H      S def2-SVP             selected for orbital group  1
 Library entry H      P def2-SVP             selected for orbital group  1
 Library entry C      S def2-SVP             selected for orbital group  2
 Library entry C      P def2-SVP             selected for orbital group  2
 Library entry C      D def2-SVP             selected for orbital group  2


 PROGRAM * SEWARD (Integral evaluation for generally contracted gaussian basis sets)     Author: Roland Lindh, 1990

 Geometry written to block  1 of record 700


 Point group  C1  



 ATOMIC COORDINATES

 NR  ATOM    CHARGE       X              Y              Z

   1  H       1.00   -2.974674584    0.639577807    0.000000000
   2  C       6.00   -0.935414432    0.380666431    0.000000000
   3  C       6.00    0.356345655   -0.112514293   -2.458798250
   4  C       6.00    0.356345655   -0.112514293    2.458798250
   5  H       1.00   -0.638538457    0.770082293   -4.046546140
   6  H       1.00   -0.638538457    0.770082293    4.046546140
   7  H       1.00    2.308791790    0.597077866   -2.449803153
   8  H       1.00    2.308791790    0.597077866    2.449803153
   9  H       1.00    0.485243874   -2.153834248   -2.889315655
  10  H       1.00    0.485243874   -2.153834248    2.889315655

 Bond lengths in Bohr (Angstrom)

 1-2  2.055630578  2-3  2.820914777  2-4  2.820914777  3-5  2.071162595  3-7  2.077413742
     ( 1.087792856)     ( 1.492763814)     ( 1.492763814)     ( 1.096012045)     ( 1.099320010)

  3- 9  2.090202656   4- 6  2.071162595   4- 8  2.077413742   4-10  2.090202656
       ( 1.106087612)       ( 1.096012045)       ( 1.099320010)       ( 1.106087612)

 Bond angles

  1-2-3  118.44375943   1-2-4  118.44375943   2-3-5  111.94558337   2-3-7  111.52358867

  2- 3- 9  112.24140213   2- 4- 6  111.94558337   2- 4- 8  111.52358867   2- 4-10  112.24140213

  3-2-4  121.29758064   5-3-7  108.01204745   5-3-9  106.73207413   6-4-8  108.01204745

  6- 4-10  106.73207413   7- 3- 9  106.05262855   8- 4-10  106.05262855

 NUCLEAR CHARGE:                   25
 NUMBER OF PRIMITIVE AOS:         124
 NUMBER OF SYMMETRY AOS:          121
 NUMBER OF CONTRACTIONS:           77   (  77A   )
 NUMBER OF CORE ORBITALS:           3   (   3A   )
 NUMBER OF VALENCE ORBITALS:       19   (  19A   )


 NUCLEAR REPULSION ENERGY   75.20704826


 Eigenvalues of metric

         1 0.402E-02 0.537E-02 0.229E-01 0.265E-01 0.266E-01 0.379E-01 0.436E-01 0.492E-01


 Contracted 2-electron integrals neglected if value below      1.0D-11
 AO integral compression algorithm  1   Integral accuracy      1.0D-11

     19.923 MB (compressed) written to integral file ( 49.4%)


 NUMBER OF SORTED TWO-ELECTRON INTEGRALS:    4510506.     BUFFER LENGTH:  32768
 NUMBER OF SEGMENTS:   1  SEGMENT LENGTH:    4510506      RECORD LENGTH: 524288

 Memory used in sort:       5.07 MW

 SORT1 READ     5074366. AND WROTE     4244391. INTEGRALS IN     13 RECORDS. CPU TIME:     0.06 SEC, REAL TIME:     0.12 SEC
 SORT2 READ     4244391. AND WROTE     4510506. INTEGRALS IN     76 RECORDS. CPU TIME:     0.13 SEC, REAL TIME:     0.18 SEC

 FILE SIZES:   FILE 1:    50.3 MBYTE,  FILE 4:    54.6 MBYTE,   TOTAL:    104.8 MBYTE

 OPERATOR DM      FOR CENTER  0  COORDINATES:    0.000000    0.000000    0.000000


 **********************************************************************************************************************************
 DATASETS  * FILE   NREC   LENGTH (MB)   RECORD NAMES
              1      19       47.44       500      610      700      900      950      970     1000      129      960     1100   
                                          VAR    BASINP    GEOM    SYMINP    ZMAT    AOBASIS   BASIS     P2S    ABASIS      S 
                                         1400     1410     1200     1210     1080     1600     1650     1300     1700   
                                           T        V       H0       H01     AOSYM     SMH    MOLCAS    ERIS     OPER   

 PROGRAMS   *        TOTAL       INT
 CPU TIMES  *         1.02      0.87
 REAL TIME  *         1.45 SEC
 DISK USED  *       105.25 MB      
 **********************************************************************************************************************************

 Density functional group M06-HF=XC-M06-HF
 Functional: XC-M06-HF(via MFM 1.6)                                            Gradient terms: 1
 Use grid at  1800.2


 Exact exchange will be calculated, factor:  1.0000

 Functional: XC-M06-HF                 Factor:  1.0000

 Generated new metagrid on record  1800.2 with target accuracy 1.0D-06 and 32470 points in CPU time    0.7
 Computed new grid on record 1800.1 in CPU time    0.8
   65184 words reserved for DFT integration

 PROGRAM * RKS-SCF (Restricted open shell Kohn-Sham)     Authors: W. Meyer, H.-J. Werner, P.J. Knowles, 1993

 NUMBER OF ELECTRONS:      13+   12-    SPACE SYMMETRY=1    SPIN SYMMETRY: Doublet 
 CONVERGENCE THRESHOLDS:    1.00E-05 (Density)    1.00E-06 (Energy)
 MAX. NUMBER OF ITERATIONS:       60
 INTERPOLATION TYPE:            DIIS
 INTERPOLATION STEPS:              2 (START)      1 (STEP)
 LEVEL SHIFTS:                 -0.60 (CLOSED) -0.30 (OPEN) 



 Use fine grid record 1800.2 for energy threshold  1.0D-06
 Orbital guess generated from atomic densities. Full valence occupancy:   13

 Molecular orbital dump at record        2100.2

 Initial alpha occupancy:  13
 Initial beta  occupancy:  12
 Wave function symmetry:    1

 ITERATION    DDIFF          GRAD             ENERGY        2-EL.EN.            DIPOLE MOMENTS         DIIS   ORB.
    1      0.000D+00      0.000D+00      -118.26955871    229.440944    0.23684   -0.27616    0.00000    0    start
    2      0.000D+00      0.562D-02      -118.30794566    226.753855    0.10720   -0.15274    0.00000    1    diag,B
    3      0.449D-02      0.194D-02      -118.31508431    226.891208    0.06295   -0.12174   -0.00000    2    diag,B
    4      0.153D-02      0.987D-03      -118.31832263    226.847155    0.03102   -0.09344   -0.00000    3    diag,B
    5      0.172D-02      0.228D-03      -118.31856493    226.829202    0.03050   -0.08819   -0.00000    4    diag,B
    6      0.688D-03      0.792D-04      -118.31860156    226.821862    0.03147   -0.08592   -0.00000    5    diag,B
    7      0.317D-03      0.228D-04      -118.31860501    226.820601    0.03203   -0.08513   -0.00000    6    fixocc
    8      0.865D-04      0.757D-05      -118.31860543    226.820958    0.03234   -0.08504   -0.00000    7    diag,B
    9      0.371D-04      0.266D-05      -118.31860548    226.821026    0.03242   -0.08508   -0.00000    8    diag,B
   10      0.145D-04      0.106D-05      -118.31860549    226.821066    0.03243   -0.08508   -0.00000    9    orth
   11      0.696D-05      0.427D-06      -118.31860549    226.821057    0.03243   -0.08508   -0.00000    0    orth

 Final alpha occupancy:  13
 Final beta  occupancy:  12

 !RKS STATE 1.1 Energy               -118.318605487899
 Nuclear energy                        75.20704826
 One-electron energy                 -306.15833227
 Two-electron energy                  113.41052870
 Density functional                    -0.77785018     XC-M06-HF=-0.77785018
 Virial quotient                       -1.01321554
 !RKS STATE 1.1 Dipole moment           0.03243007    -0.08507550    -0.00000000
 Dipole moment /Debye                   0.08242362    -0.21622619    -0.00000000

 Orbital energies:

         1.1          2.1          3.1          4.1          5.1          6.1          7.1          8.1          9.1         10.1
    -10.977106   -10.972272   -10.972230    -0.968580    -0.877581    -0.728331    -0.607738    -0.567896    -0.554924    -0.529442

        11.1         12.1         13.1         14.1         15.1
     -0.491159    -0.486927    -0.306274     0.133853     0.173046

 HOMO     13.1    -0.306274 =      -8.3342eV
 LUMO     14.1     0.133853 =       3.6423eV
 LUMO-HOMO         0.440127 =      11.9765eV


 **********************************************************************************************************************************
 DATASETS  * FILE   NREC   LENGTH (MB)   RECORD NAMES
              1      20       48.47       500      610      700      900      950      970     1000      129      960     1100   
                                          VAR    BASINP    GEOM    SYMINP    ZMAT    AOBASIS   BASIS     P2S    ABASIS      S 
                                         1400     1410     1200     1210     1080     1600     1650     1300     1700     1800   
                                           T        V       H0       H01     AOSYM     SMH    MOLCAS    ERIS     OPER     GRID   

              2       5        3.08       700     1000      520     1800     2100   
                                         GEOM     BASIS   MCVARS    GRID      RKS  

 PROGRAMS   *        TOTAL        KS       INT
 CPU TIMES  *        19.65     18.62      0.87
 REAL TIME  *        20.20 SEC
 DISK USED  *       105.25 MB      
 **********************************************************************************************************************************


 PROGRAM * Intrinsic Basis Bonding Analysis (IBBA)          Author: G. Knizia

 Molecular orbitals read from record     2100.2  Type=RKS/CANONICAL (state 1.1)
 Fock matrix read from record            2100.2  Type=RKS/TOTAL (state 1.1)
 Orbital energies read from record       2100.2  Type=RKS/CANONICAL (state 1.1)
 Density matrix read from record         2100.2  Type=RKS/CHARGE (state 1.1)

 Number of core orbitals:           3 (   3 )
 Number of closed-shell orbitals:   9 (   9 )
 Number of active  orbitals:        1 (   1 )

 Basis set MINAO-AUTO-PP generated.      Number of basis functions:   22 

 Polarized AO type:                A = (O Ot + (1-O)(1-Ot)) P12
 Orthogonalization method:         Symmetric (Loewdin)
 Localization functional:          L = sum[A,i] <i|n_A|i>^4 -> max

 Localization group 1:  12 orbitals, occupancy  2.000
 Iterative localization: IB/PM,    7 iter; Final gradient 0.71E-09

 Bond order analysis:       [THRPRINT= 0.020]

   CEN ATOM   CEN ATOM     WIBERG.BO      RENORM.BO
     1   H  -   2   C       0.959164       0.974977

     2   C  -   4   C       1.070744       1.495757
     2   C  -   3   C       1.070744       1.495757
     2   C  -   1   H       0.959164       0.974977
     2   C  -  10   H       0.031140       0.314984
     2   C  -   9   H       0.031140       0.314984

     3   C  -   2   C       1.070744       1.495757
     3   C  -   5   H       0.960252       0.991165
     3   C  -   7   H       0.954784       0.990613
     3   C  -   9   H       0.934596       0.998848

     4   C  -   2   C       1.070744       1.495757
     4   C  -   6   H       0.960252       0.991165
     4   C  -   8   H       0.954784       0.990613
     4   C  -  10   H       0.934596       0.998848

     5   H  -   3   C       0.960252       0.991165

     6   H  -   4   C       0.960252       0.991165

     7   H  -   3   C       0.954784       0.990613

     8   H  -   4   C       0.954784       0.990613

     9   H  -   3   C       0.934596       0.998848
     9   H  -   2   C       0.031140       0.314984

    10   H  -   4   C       0.934596       0.998848
    10   H  -   2   C       0.031140       0.314984


 Valency analysis:

   CEN ATOM   TOT.VALENCE
     1   H       0.983930
     2   C       3.193174
     3   C       3.935802
     4   C       3.935802
     5   H       0.980436
     6   H       0.980436
     7   H       0.980156
     8   H       0.980156
     9   H       0.974482
    10   H       0.974482
 Localization group 2:   1 orbitals, occupancy  1.000
 Iterative localization: IB/PM,    1 iter; Final gradient 0.00E+00

 Bond order analysis:       [THRPRINT= 0.020]

   CEN ATOM   CEN ATOM     WIBERG.BO      RENORM.BO

     2   C  -  10   H       0.064103       0.500000
     2   C  -   9   H       0.064103       0.500000







     9   H  -   2   C       0.064103       0.500000

    10   H  -   2   C       0.064103       0.500000


 Valency analysis:

   CEN ATOM   TOT.VALENCE
     1   H       0.000741
     2   C       0.185369
     3   C       0.002382
     4   C       0.002382
     5   H       0.007244
     6   H       0.007244
     7   H       0.021613
     8   H       0.021613
     9   H       0.068937
    10   H       0.068937

 Total charge composition:

   CEN ATOM         s          p       ELECTRONS ->P.CHARGE
     1   H       0.87360                 0.87360    0.12640
     2   C       2.98769    3.14914      6.13683   -0.13683
     3   C       2.98331    3.40165      6.38496   -0.38496
     4   C       2.98331    3.40165      6.38496   -0.38496
     5   H       0.86376                 0.86376    0.13624
     6   H       0.86376                 0.86376    0.13624
     7   H       0.87006                 0.87006    0.12994
     8   H       0.87006                 0.87006    0.12994
     9   H       0.87600                 0.87600    0.12400
    10   H       0.87600                 0.87600    0.12400

 Total charge composition, AO contributions:

   CEN ATOM SHL      SPHERICAL COMPONENTS
     1   H  1s       0.87360

     2   C  1s       1.99188
     2   C  2s       0.99581
     2   C  2p       1.12062    1.00742    1.02110

     3   C  1s       1.99019
     3   C  2s       0.99313
     3   C  2p       1.14821    1.15612    1.09731

     4   C  1s       1.99019
     4   C  2s       0.99313
     4   C  2p       1.14821    1.15612    1.09731

     5   H  1s       0.86376

     6   H  1s       0.86376

     7   H  1s       0.87006

     8   H  1s       0.87006

     9   H  1s       0.87600

    10   H  1s       0.87600

 Active orbital charges:

   CEN ATOM         s          p       ELECTRONS ->SPIN.DEN
     1   H       0.00037                 0.00037    0.00037
     2   C       0.01043    0.88620      0.89663    0.89663
     3   C       0.00013    0.00107      0.00119    0.00119
     4   C       0.00013    0.00107      0.00119    0.00119
     5   H       0.00364                 0.00364    0.00364
     6   H       0.00364                 0.00364    0.00364
     7   H       0.01093                 0.01093    0.01093
     8   H       0.01093                 0.01093    0.01093
     9   H       0.03575                 0.03575    0.03575
    10   H       0.03575                 0.03575    0.03575

 Active orbital charges, AO contributions:

   CEN ATOM SHL      SPHERICAL COMPONENTS
     1   H  1s       0.00037

     2   C  1s       0.00001
     2   C  2s       0.01042
     2   C  2p       0.03507    0.85112    0.00000

     3   C  1s       0.00000
     3   C  2s       0.00013
     3   C  2p       0.00003    0.00092    0.00012

     4   C  1s       0.00000
     4   C  2s       0.00013
     4   C  2p       0.00003    0.00092    0.00012

     5   H  1s       0.00364

     6   H  1s       0.00364

     7   H  1s       0.01093

     8   H  1s       0.01093

     9   H  1s       0.03575

    10   H  1s       0.03575

 Summary of localized orbital composition:   [THRPRINT= 0.020]

   ORB  GRP  ORB.ENERGY      CENTERS/CHARGES
     1   1   -10.872164      C  2   2.000
     2   1   -10.851228      C  4   2.000
     3   1   -10.851228      C  3   2.000
     4   1    -0.763711      C  4   0.999   C  2   0.993
     5   1    -0.763711      C  3   0.999   C  2   0.993
     6   1    -0.680651      C  2   1.126   H  1   0.864
     7   1    -0.658883      C  3   1.132   H  5   0.854
     8   1    -0.658883      C  4   1.132   H  6   0.854
     9   1    -0.658596      C  3   1.126   H  7   0.854
    10   1    -0.658596      C  4   1.126   H  8   0.854
    11   1    -0.658270      C  3   1.120   H  9   0.837   C  2   0.040
    12   1    -0.658270      C  4   1.120   H 10   0.837   C  2   0.040
    13   2    -0.107639      C  2   0.897   H 10   0.036   H  9   0.036   (other: 0.032)

 Localized orbitals saved to record      2100.2  (orbital set 2)


 **********************************************************************************************************************************
 DATASETS  * FILE   NREC   LENGTH (MB)   RECORD NAMES
              1      20       48.47       500      610      700      900      950      970     1000      129      960     1100   
                                          VAR    BASINP    GEOM    SYMINP    ZMAT    AOBASIS   BASIS     P2S    ABASIS      S 
                                         1400     1410     1200     1210     1080     1600     1650     1300     1700     1800   
                                           T        V       H0       H01     AOSYM     SMH    MOLCAS    ERIS     OPER     GRID   

              2       5        3.13       700     1000      520     1800     2100   
                                         GEOM     BASIS   MCVARS    GRID      RKS  

 PROGRAMS   *        TOTAL      IBBA        KS       INT
 CPU TIMES  *        19.68      0.04     18.62      0.87
 REAL TIME  *        20.28 SEC
 DISK USED  *       105.25 MB      
 **********************************************************************************************************************************
 Molecular orbitals read from record     2100.2  Type=RKS/LOCAL(IBO)  
 Occupation numbers read from record     2100.2  Type=RKS/LOCAL(IBO)  
 Orbital energies read from record       2100.2  Type=RKS/LOCAL(IBO)  
 Redundancy group numbers read from rec  2100.2  Type=RKS/LOCAL(IBO)  

 IBBA/SVP energy=      0.000000000000

        KS-SCF  
   -118.31860549
 **********************************************************************************************************************************
 Molpro calculation terminated
