
 Primary working directories    : /tmp/sb13343
 Secondary working directories  : /tmp/sb13343
 Wavefunction directory         : /panfs/panasas01/chem/sb13343/wfu/
 Main file repository           : /tmp/sb13343/

 SHA1      : b4a5b34a9e711420743f49e6833241d17c61fb3c
 NAME      : 2099.9.b4a5b34
 ARCHNAME  : linux/x86_64_openmp
 FC        : /cm/shared/languages/GCC-6.1/bin/gfortran
 BLASLIB   : -lblas
 id        : simonbennie

 Nodes     nprocs
 node32-002    1

 Using customized tuning parameters: mindgm=1; mindgv=20; mindgc=4; mindgr=1; noblas=0; minvec=7
 default implementation of scratch files=df  

 memory,500,m
 geomtyp=xyz
 nosym
 noorient
 geometry={
 H         -1.57413        0.33845        0.00000
 C         -0.49500        0.20144        0.00000
 C          0.18857       -0.05954       -1.30114
 C          0.18857       -0.05954        1.30114
 H         -0.33790        0.40751       -2.14134
 H         -0.33790        0.40751        2.14134
 H          1.22176        0.31596       -1.29638
 H          1.22176        0.31596        1.29638
 H          0.25678       -1.13976       -1.52896
 H          0.25678       -1.13976        1.52896
 }
 basis={ default,sto-3g }
 {uks,M05-2X,direct;wf,25,1,1}
 {ibba,bonds=1}

 Variables initialized (895), CPU time= 0.00 sec
 Commands  initialized (725), CPU time= 0.01 sec, 591 directives.
 Default parameters read. Elapsed time= 0.09 sec

 Checking input...
 Passed
1


                                         ***  PROGRAM SYSTEM MOLPRO  ***
                                       Copyright, TTI GmbH Stuttgart, 2015
                                    Version 2099.9 linked May 26 2017 16:03:21


 **********************************************************************************************************************************
 LABEL *                                                                                 
  64 bit serial version                                                                  DATE: 08-Jun-17          TIME: 15:14:25  
 **********************************************************************************************************************************

 SHA1:             b4a5b34a9e711420743f49e6833241d17c61fb3c
 **********************************************************************************************************************************
 SETTING GEOMTYP        =    XYZ

 Variable memory set to  500000000 words,  buffer space 

 ZSYMEL=NOSYM

 SETTING BASIS          =    STO-3G


 Recomputing integrals since basis changed


 Using spherical harmonics

 Library entry H      S STO-3G               selected for orbital group  1
 Library entry C      S STO-3G               selected for orbital group  2
 Library entry C      P STO-3G               selected for orbital group  2


 PROGRAM * SEWARD (Integral evaluation for generally contracted gaussian basis sets)     Author: Roland Lindh, 1990

 Geometry written to block  1 of record 700


 Point group  C1  



 ATOMIC COORDINATES

 NR  ATOM    CHARGE       X              Y              Z

   1  H       1.00   -2.974674584    0.639577807    0.000000000
   2  C       6.00   -0.935414432    0.380666431    0.000000000
   3  C       6.00    0.356345655   -0.112514293   -2.458798250
   4  C       6.00    0.356345655   -0.112514293    2.458798250
   5  H       1.00   -0.638538457    0.770082293   -4.046546140
   6  H       1.00   -0.638538457    0.770082293    4.046546140
   7  H       1.00    2.308791790    0.597077866   -2.449803153
   8  H       1.00    2.308791790    0.597077866    2.449803153
   9  H       1.00    0.485243874   -2.153834248   -2.889315655
  10  H       1.00    0.485243874   -2.153834248    2.889315655

 Bond lengths in Bohr (Angstrom)

 1-2  2.055630578  2-3  2.820914777  2-4  2.820914777  3-5  2.071162595  3-7  2.077413742
     ( 1.087792856)     ( 1.492763814)     ( 1.492763814)     ( 1.096012045)     ( 1.099320010)

  3- 9  2.090202656   4- 6  2.071162595   4- 8  2.077413742   4-10  2.090202656
       ( 1.106087612)       ( 1.096012045)       ( 1.099320010)       ( 1.106087612)

 Bond angles

  1-2-3  118.44375943   1-2-4  118.44375943   2-3-5  111.94558337   2-3-7  111.52358867

  2- 3- 9  112.24140213   2- 4- 6  111.94558337   2- 4- 8  111.52358867   2- 4-10  112.24140213

  3-2-4  121.29758064   5-3-7  108.01204745   5-3-9  106.73207413   6-4-8  108.01204745

  6- 4-10  106.73207413   7- 3- 9  106.05262855   8- 4-10  106.05262855

 NUCLEAR CHARGE:                   25
 NUMBER OF PRIMITIVE AOS:          66
 NUMBER OF SYMMETRY AOS:           66
 NUMBER OF CONTRACTIONS:           22   (  22A   )
 NUMBER OF CORE ORBITALS:           3   (   3A   )
 NUMBER OF VALENCE ORBITALS:       19   (  19A   )


 NUCLEAR REPULSION ENERGY   75.20704826


 Eigenvalues of metric

         1 0.213E+00 0.225E+00 0.288E+00 0.342E+00 0.359E+00 0.374E+00 0.380E+00 0.402E+00


 Contracted 2-electron integrals neglected if value below      1.0D-11
 AO integral compression algorithm  1   Integral accuracy      1.0D-11

     0.524 MB (compressed) written to integral file ( 89.6%)


 NUMBER OF SORTED TWO-ELECTRON INTEGRALS:      32131.     BUFFER LENGTH:  32768
 NUMBER OF SEGMENTS:   1  SEGMENT LENGTH:      32131      RECORD LENGTH: 524288

 Memory used in sort:       0.59 MW

 SORT1 READ       38209. AND WROTE       30689. INTEGRALS IN      1 RECORDS. CPU TIME:     0.00 SEC, REAL TIME:     0.01 SEC
 SORT2 READ       30689. AND WROTE       32131. INTEGRALS IN      2 RECORDS. CPU TIME:     0.01 SEC, REAL TIME:     0.02 SEC

 FILE SIZES:   FILE 1:    30.6 MBYTE,  FILE 4:     4.2 MBYTE,   TOTAL:     34.9 MBYTE

 OPERATOR DM      FOR CENTER  0  COORDINATES:    0.000000    0.000000    0.000000


 **********************************************************************************************************************************
 DATASETS  * FILE   NREC   LENGTH (MB)   RECORD NAMES
              1      19       30.27       500      610      700      900      950      970     1000      129      960     1100   
                                          VAR    BASINP    GEOM    SYMINP    ZMAT    AOBASIS   BASIS     P2S    ABASIS      S 
                                         1400     1410     1200     1210     1080     1600     1650     1300     1700   
                                           T        V       H0       H01     AOSYM     SMH    MOLCAS    ERIS     OPER   

 PROGRAMS   *        TOTAL       INT
 CPU TIMES  *         0.57      0.41
 REAL TIME  *         1.36 SEC
 DISK USED  *        35.29 MB      
 **********************************************************************************************************************************

 Density functional group M05-2X=XC-M05-2X
 Functional: XC-M05-2X(via MFM 1.6)                                            Gradient terms: 1
 Use grid at  1800.2


 Exact exchange will be calculated, factor:  0.5600

 Functional: XC-M05-2X                 Factor:  1.0000

 Generated new metagrid on record  1800.2 with target accuracy 1.0D-06 and 32470 points in CPU time    0.8
 Computed new grid on record 1800.1 in CPU time    0.8
   21722 words reserved for DFT integration

 PROGRAM * UKS-SCF (Unrestricted Kohn-Sham)     Authors: W. Meyer, H.-J. Werner, P.J. Knowles, 1993

 NUMBER OF ELECTRONS:      13+   12-    SPACE SYMMETRY=1    SPIN SYMMETRY: Doublet 
 CONVERGENCE THRESHOLDS:    1.00E-05 (Density)    1.00E-06 (Energy)
 MAX. NUMBER OF ITERATIONS:       60
 INTERPOLATION TYPE:            DIIS
 INTERPOLATION STEPS:              2 (START)      1 (STEP)
 LEVEL SHIFTS:                 -0.20 (ALPHA)  -0.20 (BETA) 



 Use fine grid record 1800.2 for energy threshold  1.0D-06
 Orbital guess generated from atomic densities. Full valence occupancy:   13

 Molecular orbital dump at record        2200.2

 Initial alpha occupation  13
 Initial beta  occupation  12

 ITERATION    DDIFF          GRAD             ENERGY        2-EL.EN.            DIPOLE MOMENTS         DIIS
    1      0.000D+00      0.000D+00      -117.02058407    249.695038    0.21098   -0.29839    0.00000    0
    2      0.429D-01      0.178D-01      -117.12911742    244.043551    0.08001   -0.11435    0.00000    1
    3      0.311D-02      0.284D-02      -117.13161538    243.961660    0.04797   -0.08409    0.00000    2
    4      0.260D-02      0.141D-02      -117.13245462    243.921203    0.03119   -0.06999    0.00000    3
    5      0.100D-02      0.502D-03      -117.13248857    243.921710    0.02656   -0.06597    0.00000    4
    6      0.285D-03      0.109D-03      -117.13252102    243.919929    0.02675   -0.06605    0.00000    5
    7      0.434D-04      0.223D-04      -117.13254278    243.920970    0.02680   -0.06615    0.00000    6
    8      0.102D-04      0.604D-05      -117.13255386    243.920898    0.02678   -0.06618    0.00000    6
    9      0.265D-05      0.137D-05      -117.13255616    243.921036    0.02678   -0.06619    0.00000    6
   10      0.481D-06      0.250D-06      -117.13255656    243.921026    0.02678   -0.06619    0.00000    6

 Final alpha occupancy:  13
 Final beta  occupancy:  12

 !UKS STATE 1.1 Energy               -117.132556555202
 Nuclear energy                        75.20704826
 One-electron energy                 -305.44256864
 Two-electron energy                  121.96051277
 Density functional                    -8.85754894     XC-M05-2X=-8.85754894
 Virial quotient                       -1.01553289
 !UKS STATE 1.1 Dipole moment           0.02678194    -0.06618804     0.00000000
 Dipole moment /Debye                   0.06806844    -0.16822219     0.00000000

 Orbital energies for positive spin:

         1.1          2.1          3.1          4.1          5.1          6.1          7.1          8.1          9.1         10.1
    -10.403022   -10.403002   -10.368288    -0.842740    -0.748341    -0.618942    -0.488719    -0.466230    -0.440676    -0.419298

        11.1         12.1         13.1         14.1         15.1
     -0.377377    -0.371754    -0.182181     0.455776     0.487469

 Orbital energies for negative spin:

         1.1          2.1          3.1          4.1          5.1          6.1          7.1          8.1          9.1         10.1
    -10.403762   -10.403739   -10.355972    -0.822430    -0.745290    -0.593825    -0.482981    -0.444259    -0.435417    -0.412721

        11.1         12.1         13.1         14.1         15.1
     -0.371579    -0.365473     0.145181     0.460513     0.517117

 HOMO     13.1    -0.182181 =      -4.9574eV
 LUMO    -13.1     0.145181 =       3.9506eV
 LUMO-HOMO         0.327361 =       8.9080eV

 EXPECTATION VALUE OF S**2:             0.75290185

 Occupation number threshold for canonical orbitals:  1.999000 (occupied),  0.001000 (virtual)

 Number of pseudo-canonical orbitals per symmetry:   12
 Number of active natural orbitals per symmetry:      1

 Natural orbitals saved to record    2200.2 (Orbital set 3)

 Orbital spaces for UNO-CAS (Min. occupation: 0.020  Max. occupation: 1.980):

 Closed:       12
 Active:        1


 **********************************************************************************************************************************
 DATASETS  * FILE   NREC   LENGTH (MB)   RECORD NAMES
              1      20       31.31       500      610      700      900      950      970     1000      129      960     1100   
                                          VAR    BASINP    GEOM    SYMINP    ZMAT    AOBASIS   BASIS     P2S    ABASIS      S 
                                         1400     1410     1200     1210     1080     1600     1650     1300     1700     1800   
                                           T        V       H0       H01     AOSYM     SMH    MOLCAS    ERIS     OPER     GRID   

              2       5        2.93       700     1000      520     1800     2200   
                                         GEOM     BASIS   MCVARS    GRID      UKS  

 PROGRAMS   *        TOTAL       UKS       INT
 CPU TIMES  *         5.16      4.60      0.41
 REAL TIME  *         8.77 SEC
 DISK USED  *        35.29 MB      
 **********************************************************************************************************************************


 PROGRAM * Intrinsic Basis Bonding Analysis (IBBA)          Author: G. Knizia

 Molecular orbitals read from record     2200.2  Type=UKS/ALPHA (state 1.1)
 Fock matrix read from record            2200.2  Type=UKS/TOTAL (state 1.1)
 Orbital energies read from record       2200.2  Type=UKS/ALPHA (state 1.1)
 Density matrix read from record         2200.2  Type=UKS/CHARGE (state 1.1)

 Number of core orbitals:           3 (   3 )
 Number of closed-shell orbitals:   9 (   9 )
 Number of active  orbitals:        1 (   1 )

 Basis set MINAO-AUTO-PP generated.      Number of basis functions:   22 

 Polarized AO type:                A = (O Ot + (1-O)(1-Ot)) P12
 Orthogonalization method:         Symmetric (Loewdin)
 Localization functional:          L = sum[A,i] <i|n_A|i>^4 -> max

 Localization group 1:  12 orbitals, occupancy  2.000
 Iterative localization: IB/PM,    7 iter; Final gradient 0.29E-08

 Bond order analysis:       [THRPRINT= 0.020]

   CEN ATOM   CEN ATOM     WIBERG.BO      RENORM.BO
     1   H  -   2   C       0.955572       0.973945

     2   C  -   3   C       1.163961       1.485635
     2   C  -   4   C       1.163961       1.485635
     2   C  -   1   H       0.955572       0.973945
     2   C  -   9   H       0.065589       0.277139
     2   C  -  10   H       0.065589       0.277139
     2   C  -   7   H       0.020806       0.079947
     2   C  -   8   H       0.020806       0.079947

     3   C  -   2   C       1.163961       1.485635
     3   C  -   5   H       0.953367       0.990885
     3   C  -   7   H       0.936430       0.991168
     3   C  -   9   H       0.871681       0.996993

     4   C  -   2   C       1.163961       1.485635
     4   C  -   6   H       0.953367       0.990885
     4   C  -   8   H       0.936430       0.991168
     4   C  -  10   H       0.871681       0.996993

     5   H  -   3   C       0.953367       0.990885

     6   H  -   4   C       0.953367       0.990885

     7   H  -   3   C       0.936430       0.991168
     7   H  -   2   C       0.020806       0.079947

     8   H  -   4   C       0.936430       0.991168
     8   H  -   2   C       0.020806       0.079947

     9   H  -   3   C       0.871681       0.996993
     9   H  -   2   C       0.065589       0.277139

    10   H  -   4   C       0.871681       0.996993
    10   H  -   2   C       0.065589       0.277139


 Valency analysis:

   CEN ATOM   TOT.VALENCE
     1   H       0.978694
     2   C       3.474020
     3   C       3.946093
     4   C       3.946093
     5   H       0.979358
     6   H       0.979358
     7   H       0.976945
     8   H       0.976945
     9   H       0.961966
    10   H       0.961966
 Localization group 2:   1 orbitals, occupancy  1.000
 Iterative localization: IB/PM,    1 iter; Final gradient 0.00E+00

 Bond order analysis:       [THRPRINT= 0.020]

   CEN ATOM   CEN ATOM     WIBERG.BO      RENORM.BO

     2   C  -   9   H       0.090525       0.500000
     2   C  -  10   H       0.090525       0.500000
     2   C  -   7   H       0.028701       0.500000
     2   C  -   8   H       0.028701       0.500000
     2   C  -   3   C       0.027268       0.500000
     2   C  -   4   C       0.027268       0.500000

     3   C  -   2   C       0.027268       0.500000

     4   C  -   2   C       0.027268       0.500000



     7   H  -   2   C       0.028701       0.500000

     8   H  -   2   C       0.028701       0.500000

     9   H  -   2   C       0.090525       0.500000

    10   H  -   2   C       0.090525       0.500000


 Valency analysis:

   CEN ATOM   TOT.VALENCE
     1   H       0.001610
     2   C       0.316025
     3   C       0.033369
     4   C       0.033369
     5   H       0.013442
     6   H       0.013442
     7   H       0.035091
     8   H       0.035091
     9   H       0.106342
    10   H       0.106342

 Total charge composition:

   CEN ATOM         s          p       ELECTRONS ->P.CHARGE
     1   H       0.85484                 0.85484    0.14516
     2   C       3.04071    3.23460      6.27531   -0.27531
     3   C       2.97781    3.36668      6.34448   -0.34448
     4   C       2.97781    3.36668      6.34448   -0.34448
     5   H       0.86309                 0.86309    0.13691
     6   H       0.86309                 0.86309    0.13691
     7   H       0.86603                 0.86603    0.13397
     8   H       0.86603                 0.86603    0.13397
     9   H       0.86132                 0.86132    0.13868
    10   H       0.86132                 0.86132    0.13868

 Total charge composition, AO contributions:

   CEN ATOM SHL      SPHERICAL COMPONENTS
     1   H  1s       0.85484

     2   C  1s       1.99260
     2   C  2s       1.04811
     2   C  2p       1.12193    1.08847    1.02419

     3   C  1s       1.99132
     3   C  2s       0.98649
     3   C  2p       1.14522    1.13514    1.08632

     4   C  1s       1.99132
     4   C  2s       0.98649
     4   C  2p       1.14522    1.13514    1.08632

     5   H  1s       0.86309

     6   H  1s       0.86309

     7   H  1s       0.86603

     8   H  1s       0.86603

     9   H  1s       0.86132

    10   H  1s       0.86132

 Active orbital charges:

   CEN ATOM         s          p       ELECTRONS ->SPIN.DEN
     1   H       0.00081                 0.00081    0.00081
     2   C       0.00579    0.79751      0.80329    0.80329
     3   C       0.00011    0.01686      0.01697    0.01697
     4   C       0.00011    0.01686      0.01697    0.01697
     5   H       0.00677                 0.00677    0.00677
     6   H       0.00677                 0.00677    0.00677
     7   H       0.01786                 0.01786    0.01786
     8   H       0.01786                 0.01786    0.01786
     9   H       0.05635                 0.05635    0.05635
    10   H       0.05635                 0.05635    0.05635

 Active orbital charges, AO contributions:

   CEN ATOM SHL      SPHERICAL COMPONENTS
     1   H  1s       0.00081

     2   C  1s       0.00001
     2   C  2s       0.00578
     2   C  2p       0.03376    0.76375    0.00000

     3   C  1s       0.00000
     3   C  2s       0.00011
     3   C  2p       0.00024    0.01638    0.00024

     4   C  1s       0.00000
     4   C  2s       0.00011
     4   C  2p       0.00024    0.01638    0.00024

     5   H  1s       0.00677

     6   H  1s       0.00677

     7   H  1s       0.01786

     8   H  1s       0.01786

     9   H  1s       0.05635

    10   H  1s       0.05635

 Summary of localized orbital composition:   [THRPRINT= 0.020]

   ORB  GRP  ORB.ENERGY      CENTERS/CHARGES
     1   1   -10.286653      C  4   2.000
     2   1   -10.286653      C  3   2.000
     3   1   -10.254679      C  2   2.000
     4   1    -0.629376      C  2   1.011   C  4   0.981
     5   1    -0.629376      C  2   1.011   C  3   0.981
     6   1    -0.560404      C  2   1.145   H  1   0.846
     7   1    -0.541117      C  4   1.092   H 10   0.798   C  2   0.103
     8   1    -0.541117      C  3   1.092   H  9   0.798   C  2   0.103
     9   1    -0.539591      C  4   1.129   H  6   0.850   (other: 0.021)
    10   1    -0.539591      C  3   1.129   H  5   0.850   (other: 0.021)
    11   1    -0.537448      C  3   1.119   H  7   0.842   C  2   0.033
    12   1    -0.537448      C  4   1.119   H  8   0.842   C  2   0.033
    13   2    -0.024063      C  2   0.803   H  9   0.056   H 10   0.056   (other: 0.084)

 Localized orbitals saved to record      2200.2  (orbital set 4)


 **********************************************************************************************************************************
 DATASETS  * FILE   NREC   LENGTH (MB)   RECORD NAMES
              1      20       31.31       500      610      700      900      950      970     1000      129      960     1100   
                                          VAR    BASINP    GEOM    SYMINP    ZMAT    AOBASIS   BASIS     P2S    ABASIS      S 
                                         1400     1410     1200     1210     1080     1600     1650     1300     1700     1800   
                                           T        V       H0       H01     AOSYM     SMH    MOLCAS    ERIS     OPER     GRID   

              2       5        2.94       700     1000      520     1800     2200   
                                         GEOM     BASIS   MCVARS    GRID      UKS  

 PROGRAMS   *        TOTAL      IBBA       UKS       INT
 CPU TIMES  *         5.18      0.02      4.60      0.41
 REAL TIME  *         8.88 SEC
 DISK USED  *        35.29 MB      
 **********************************************************************************************************************************
 Molecular orbitals read from record     2200.2  Type=UKS/LOCAL(IBO)  
 Occupation numbers read from record     2200.2  Type=UKS/LOCAL(IBO)  
 Orbital energies read from record       2200.2  Type=UKS/LOCAL(IBO)  
 Redundancy group numbers read from rec  2200.2  Type=UKS/BETA (state 1.1)

 IBBA/STO-3G energy=      0.000000000000

        UKS-SCF 
   -117.13255656
 **********************************************************************************************************************************
 Molpro calculation terminated
