
 Primary working directories    : /tmp/sb13343
 Secondary working directories  : /tmp/sb13343
 Wavefunction directory         : /panfs/panasas01/chem/sb13343/wfu/
 Main file repository           : /tmp/sb13343/

 SHA1      : b4a5b34a9e711420743f49e6833241d17c61fb3c
 NAME      : 2099.9.b4a5b34
 ARCHNAME  : linux/x86_64_openmp
 FC        : /cm/shared/languages/GCC-6.1/bin/gfortran
 BLASLIB   : -lblas
 id        : simonbennie

 Nodes     nprocs
 node32-002    1

 Using customized tuning parameters: mindgm=1; mindgv=20; mindgc=4; mindgr=1; noblas=0; minvec=7
 default implementation of scratch files=df  

 memory,500,m
 geomtyp=xyz
 nosym
 noorient
 geometry={
 H         -1.57413        0.33845        0.00000
 C         -0.49500        0.20144        0.00000
 C          0.18857       -0.05954       -1.30114
 C          0.18857       -0.05954        1.30114
 H         -0.33790        0.40751       -2.14134
 H         -0.33790        0.40751        2.14134
 H          1.22176        0.31596       -1.29638
 H          1.22176        0.31596        1.29638
 H          0.25678       -1.13976       -1.52896
 H          0.25678       -1.13976        1.52896
 }
 basis={ default,svp }
 {ks,VWN,direct;wf,25,1,1}
 {ibba,bonds=1}

 Variables initialized (895), CPU time= 0.01 sec
 Commands  initialized (725), CPU time= 0.01 sec, 591 directives.
 Default parameters read. Elapsed time= 0.12 sec

 Checking input...
 Passed
1


                                         ***  PROGRAM SYSTEM MOLPRO  ***
                                       Copyright, TTI GmbH Stuttgart, 2015
                                    Version 2099.9 linked May 26 2017 16:03:21


 **********************************************************************************************************************************
 LABEL *                                                                                 
  64 bit serial version                                                                  DATE: 08-Jun-17          TIME: 15:31:29  
 **********************************************************************************************************************************

 SHA1:             b4a5b34a9e711420743f49e6833241d17c61fb3c
 **********************************************************************************************************************************
 SETTING GEOMTYP        =    XYZ

 Variable memory set to  500000000 words,  buffer space 

 ZSYMEL=NOSYM

 SETTING BASIS          =    SVP


 Recomputing integrals since basis changed


 Using spherical harmonics

 Library entry H      S def2-SVP             selected for orbital group  1
 Library entry H      P def2-SVP             selected for orbital group  1
 Library entry C      S def2-SVP             selected for orbital group  2
 Library entry C      P def2-SVP             selected for orbital group  2
 Library entry C      D def2-SVP             selected for orbital group  2


 PROGRAM * SEWARD (Integral evaluation for generally contracted gaussian basis sets)     Author: Roland Lindh, 1990

 Geometry written to block  1 of record 700


 Point group  C1  



 ATOMIC COORDINATES

 NR  ATOM    CHARGE       X              Y              Z

   1  H       1.00   -2.974674584    0.639577807    0.000000000
   2  C       6.00   -0.935414432    0.380666431    0.000000000
   3  C       6.00    0.356345655   -0.112514293   -2.458798250
   4  C       6.00    0.356345655   -0.112514293    2.458798250
   5  H       1.00   -0.638538457    0.770082293   -4.046546140
   6  H       1.00   -0.638538457    0.770082293    4.046546140
   7  H       1.00    2.308791790    0.597077866   -2.449803153
   8  H       1.00    2.308791790    0.597077866    2.449803153
   9  H       1.00    0.485243874   -2.153834248   -2.889315655
  10  H       1.00    0.485243874   -2.153834248    2.889315655

 Bond lengths in Bohr (Angstrom)

 1-2  2.055630578  2-3  2.820914777  2-4  2.820914777  3-5  2.071162595  3-7  2.077413742
     ( 1.087792856)     ( 1.492763814)     ( 1.492763814)     ( 1.096012045)     ( 1.099320010)

  3- 9  2.090202656   4- 6  2.071162595   4- 8  2.077413742   4-10  2.090202656
       ( 1.106087612)       ( 1.096012045)       ( 1.099320010)       ( 1.106087612)

 Bond angles

  1-2-3  118.44375943   1-2-4  118.44375943   2-3-5  111.94558337   2-3-7  111.52358867

  2- 3- 9  112.24140213   2- 4- 6  111.94558337   2- 4- 8  111.52358867   2- 4-10  112.24140213

  3-2-4  121.29758064   5-3-7  108.01204745   5-3-9  106.73207413   6-4-8  108.01204745

  6- 4-10  106.73207413   7- 3- 9  106.05262855   8- 4-10  106.05262855

 NUCLEAR CHARGE:                   25
 NUMBER OF PRIMITIVE AOS:         124
 NUMBER OF SYMMETRY AOS:          121
 NUMBER OF CONTRACTIONS:           77   (  77A   )
 NUMBER OF CORE ORBITALS:           3   (   3A   )
 NUMBER OF VALENCE ORBITALS:       19   (  19A   )


 NUCLEAR REPULSION ENERGY   75.20704826


 Eigenvalues of metric

         1 0.402E-02 0.537E-02 0.229E-01 0.265E-01 0.266E-01 0.379E-01 0.436E-01 0.492E-01


 Contracted 2-electron integrals neglected if value below      1.0D-11
 AO integral compression algorithm  1   Integral accuracy      1.0D-11

     19.923 MB (compressed) written to integral file ( 49.4%)


 NUMBER OF SORTED TWO-ELECTRON INTEGRALS:    4510506.     BUFFER LENGTH:  32768
 NUMBER OF SEGMENTS:   1  SEGMENT LENGTH:    4510506      RECORD LENGTH: 524288

 Memory used in sort:       5.07 MW

 SORT1 READ     5074366. AND WROTE     4244391. INTEGRALS IN     13 RECORDS. CPU TIME:     0.06 SEC, REAL TIME:     0.23 SEC
 SORT2 READ     4244391. AND WROTE     4510506. INTEGRALS IN     76 RECORDS. CPU TIME:     0.17 SEC, REAL TIME:     0.33 SEC

 FILE SIZES:   FILE 1:    50.3 MBYTE,  FILE 4:    54.6 MBYTE,   TOTAL:    104.8 MBYTE

 OPERATOR DM      FOR CENTER  0  COORDINATES:    0.000000    0.000000    0.000000


 **********************************************************************************************************************************
 DATASETS  * FILE   NREC   LENGTH (MB)   RECORD NAMES
              1      19       47.44       500      610      700      900      950      970     1000      129      960     1100   
                                          VAR    BASINP    GEOM    SYMINP    ZMAT    AOBASIS   BASIS     P2S    ABASIS      S 
                                         1400     1410     1200     1210     1080     1600     1650     1300     1700   
                                           T        V       H0       H01     AOSYM     SMH    MOLCAS    ERIS     OPER   

 PROGRAMS   *        TOTAL       INT
 CPU TIMES  *         1.36      1.21
 REAL TIME  *         2.93 SEC
 DISK USED  *       105.25 MB      
 **********************************************************************************************************************************

 Density functional group VWN=VWN5
 Functional: VWN5(Automatically generated (new) VWN5)                          Gradient terms: 0
 Use grid at  1800.2

 Functional: VWN5                      Factor:  1.0000

 Generated new metagrid on record  1800.2 with target accuracy 1.0D-06 and 32470 points in CPU time    0.8
 Computed new grid on record 1800.1 in CPU time    0.9
   35847 words reserved for DFT integration

 PROGRAM * RKS-SCF (Restricted open shell Kohn-Sham)     Authors: W. Meyer, H.-J. Werner, P.J. Knowles, 1993

 NUMBER OF ELECTRONS:      13+   12-    SPACE SYMMETRY=1    SPIN SYMMETRY: Doublet 
 CONVERGENCE THRESHOLDS:    1.00E-05 (Density)    1.00E-06 (Energy)
 MAX. NUMBER OF ITERATIONS:       60
 INTERPOLATION TYPE:            DIIS
 INTERPOLATION STEPS:              2 (START)      1 (STEP)
 LEVEL SHIFTS:                 -0.60 (CLOSED) -0.30 (OPEN) 



 Use fine grid record 1800.2 for energy threshold  1.0D-06
 Orbital guess generated from atomic densities. Full valence occupancy:   13

 Molecular orbital dump at record        2100.2

 Initial alpha occupancy:  13
 Initial beta  occupancy:  12
 Wave function symmetry:    1

 ITERATION    DDIFF          GRAD             ENERGY        2-EL.EN.            DIPOLE MOMENTS         DIIS   ORB.
    1      0.000D+00      0.000D+00      -101.48992731    243.771257   -0.13704    0.11429   -0.00000    0    start
    2      0.000D+00      0.893D-02      -101.53398232    252.512777    0.06163   -0.07897   -0.00000    1    diag,B
    3      0.147D-01      0.517D-02      -101.55605346    249.304080   -0.02979    0.01728   -0.00000    2    diag,B
    4      0.438D-02      0.307D-03      -101.55619499    249.407602   -0.02038   -0.00413   -0.00000    3    diag,B
    5      0.110D-02      0.155D-03      -101.55623679    249.422885   -0.02477   -0.00396   -0.00000    4    diag,B
    6      0.582D-03      0.533D-04      -101.55625358    249.429031   -0.02585   -0.00849   -0.00000    5    diag,B
    7      0.585D-03      0.212D-04      -101.55626018    249.432024   -0.02697   -0.01190   -0.00000    6    fixocc
    8      0.391D-03      0.118D-04      -101.55626356    249.433254   -0.02757   -0.01424   -0.00000    7    diag,B
    9      0.325D-03      0.613D-05      -101.55626474    249.433613   -0.02793   -0.01609   -0.00000    8    diag,B
   10      0.217D-03      0.304D-05      -101.55626501    249.433747   -0.02800   -0.01691   -0.00000    9    orth
   11      0.118D-03      0.121D-05      -101.55626504    249.433825   -0.02802   -0.01717   -0.00000    9    diag,B
   12      0.376D-04      0.517D-06      -101.55626505    249.433786   -0.02804   -0.01723   -0.00000    9    diag,B
   13      0.123D-04      0.215D-06      -101.55626505    249.433819   -0.02803   -0.01724   -0.00000    9    diag,B
   14      0.384D-05      0.892D-07      -101.55626505    249.433790   -0.02803   -0.01724   -0.00000    0    orth

 Final alpha occupancy:  13
 Final beta  occupancy:  12

 !RKS STATE 1.1 Energy               -101.556265046577
 Nuclear energy                        75.20704826
 One-electron energy                 -299.99519589
 Two-electron energy                  124.71689484
 Density functional                    -1.48501225     VWN5=-1.48501225
 Virial quotient                       -0.92446407
 !RKS STATE 1.1 Dipole moment          -0.02803298    -0.01724044    -0.00000000
 Dipole moment /Debye                  -0.07124805    -0.04381795    -0.00000000

 Orbital energies:

         1.1          2.1          3.1          4.1          5.1          6.1          7.1          8.1          9.1         10.1
     -8.253443    -8.253417    -8.238486    -0.397187    -0.315570    -0.206442    -0.144199    -0.125393    -0.098531    -0.073807

        11.1         12.1         13.1         14.1         15.1
     -0.041888    -0.030832     0.123174     0.183904     0.218854

 HOMO     13.1     0.123174 =       3.3517eV
 LUMO     14.1     0.183904 =       5.0043eV
 LUMO-HOMO         0.060730 =       1.6525eV


 **********************************************************************************************************************************
 DATASETS  * FILE   NREC   LENGTH (MB)   RECORD NAMES
              1      20       48.47       500      610      700      900      950      970     1000      129      960     1100   
                                          VAR    BASINP    GEOM    SYMINP    ZMAT    AOBASIS   BASIS     P2S    ABASIS      S 
                                         1400     1410     1200     1210     1080     1600     1650     1300     1700     1800   
                                           T        V       H0       H01     AOSYM     SMH    MOLCAS    ERIS     OPER     GRID   

              2       5        3.08       700     1000      520     1800     2100   
                                         GEOM     BASIS   MCVARS    GRID      RKS  

 PROGRAMS   *        TOTAL        KS       INT
 CPU TIMES  *         7.90      6.54      1.21
 REAL TIME  *        12.97 SEC
 DISK USED  *       105.25 MB      
 **********************************************************************************************************************************


 PROGRAM * Intrinsic Basis Bonding Analysis (IBBA)          Author: G. Knizia

 Molecular orbitals read from record     2100.2  Type=RKS/CANONICAL (state 1.1)
 Fock matrix read from record            2100.2  Type=RKS/TOTAL (state 1.1)
 Orbital energies read from record       2100.2  Type=RKS/CANONICAL (state 1.1)
 Density matrix read from record         2100.2  Type=RKS/CHARGE (state 1.1)

 Number of core orbitals:           3 (   3 )
 Number of closed-shell orbitals:   9 (   9 )
 Number of active  orbitals:        1 (   1 )

 Basis set MINAO-AUTO-PP generated.      Number of basis functions:   22 

 Polarized AO type:                A = (O Ot + (1-O)(1-Ot)) P12
 Orthogonalization method:         Symmetric (Loewdin)
 Localization functional:          L = sum[A,i] <i|n_A|i>^4 -> max

 Localization group 1:  12 orbitals, occupancy  2.000
 Iterative localization: IB/PM,    8 iter; Final gradient 0.28E-08

 Bond order analysis:       [THRPRINT= 0.020]

   CEN ATOM   CEN ATOM     WIBERG.BO      RENORM.BO
     1   H  -   2   C       0.946940       0.953011

     2   C  -   4   C       1.191359       1.489182
     2   C  -   3   C       1.191359       1.489182
     2   C  -   1   H       0.946940       0.953011
     2   C  -   9   H       0.078283       0.254440
     2   C  -  10   H       0.078283       0.254440
     2   C  -   7   H       0.027852       0.081022
     2   C  -   8   H       0.027852       0.081022

     3   C  -   2   C       1.191359       1.489182
     3   C  -   5   H       0.946308       0.980023
     3   C  -   7   H       0.921399       0.971623
     3   C  -   9   H       0.858673       0.994164

     4   C  -   2   C       1.191359       1.489182
     4   C  -   6   H       0.946308       0.980023
     4   C  -   8   H       0.921399       0.971623
     4   C  -  10   H       0.858673       0.994164

     5   H  -   3   C       0.946308       0.980023

     6   H  -   4   C       0.946308       0.980023

     7   H  -   3   C       0.921399       0.971623
     7   H  -   2   C       0.027852       0.081022

     8   H  -   4   C       0.921399       0.971623
     8   H  -   2   C       0.027852       0.081022

     9   H  -   3   C       0.858673       0.994164
     9   H  -   2   C       0.078283       0.254440

    10   H  -   4   C       0.858673       0.994164
    10   H  -   2   C       0.078283       0.254440


 Valency analysis:

   CEN ATOM   TOT.VALENCE
     1   H       0.999645
     2   C       3.569554
     3   C       3.962202
     4   C       3.962202
     5   H       0.995737
     6   H       0.995737
     7   H       0.993716
     8   H       0.993716
     9   H       0.978660
    10   H       0.978660
 Localization group 2:   1 orbitals, occupancy  1.000
 Iterative localization: IB/PM,    1 iter; Final gradient 0.00E+00

 Bond order analysis:       [THRPRINT= 0.020]

   CEN ATOM   CEN ATOM     WIBERG.BO      RENORM.BO

     2   C  -   9   H       0.142456       0.500000
     2   C  -  10   H       0.142456       0.500000
     2   C  -   7   H       0.045442       0.500000
     2   C  -   8   H       0.045442       0.500000





     7   H  -   2   C       0.045442       0.500000

     8   H  -   2   C       0.045442       0.500000

     9   H  -   2   C       0.142456       0.500000
     9   H  -  10   H       0.020245       0.500000

    10   H  -   2   C       0.142456       0.500000
    10   H  -   9   H       0.020245       0.500000


 Valency analysis:

   CEN ATOM   TOT.VALENCE
     1   H       0.000771
     2   C       0.413510
     3   C       0.008003
     4   C       0.008003
     5   H       0.018049
     6   H       0.018049
     7   H       0.062128
     8   H       0.062128
     9   H       0.180977
    10   H       0.180977

 Total charge composition:

   CEN ATOM         s          p       ELECTRONS ->P.CHARGE
     1   H       0.98153                 0.98153    0.01847
     2   C       2.90210    3.11692      6.01902   -0.01902
     3   C       2.88220    3.26636      6.14855   -0.14855
     4   C       2.88220    3.26636      6.14855   -0.14855
     5   H       0.94382                 0.94382    0.05618
     6   H       0.94382                 0.94382    0.05618
     7   H       0.95282                 0.95282    0.04718
     8   H       0.95282                 0.95282    0.04718
     9   H       0.95453                 0.95453    0.04547
    10   H       0.95453                 0.95453    0.04547

 Total charge composition, AO contributions:

   CEN ATOM SHL      SPHERICAL COMPONENTS
     1   H  1s       0.98153

     2   C  1s       1.99817
     2   C  2s       0.90392
     2   C  2p       1.04507    1.05890    1.01295

     3   C  1s       1.99766
     3   C  2s       0.88453
     3   C  2p       1.09374    1.07836    1.09426

     4   C  1s       1.99766
     4   C  2s       0.88453
     4   C  2p       1.09374    1.07836    1.09426

     5   H  1s       0.94382

     6   H  1s       0.94382

     7   H  1s       0.95282

     8   H  1s       0.95282

     9   H  1s       0.95453

    10   H  1s       0.95453

 Active orbital charges:

   CEN ATOM         s          p       ELECTRONS ->SPIN.DEN
     1   H       0.00039                 0.00039    0.00039
     2   C       0.00557    0.70239      0.70795    0.70795
     3   C       0.00049    0.00353      0.00402    0.00402
     4   C       0.00049    0.00353      0.00402    0.00402
     5   H       0.00911                 0.00911    0.00911
     6   H       0.00911                 0.00911    0.00911
     7   H       0.03209                 0.03209    0.03209
     8   H       0.03209                 0.03209    0.03209
     9   H       0.10061                 0.10061    0.10061
    10   H       0.10061                 0.10061    0.10061

 Active orbital charges, AO contributions:

   CEN ATOM SHL      SPHERICAL COMPONENTS
     1   H  1s       0.00039

     2   C  1s       0.00000
     2   C  2s       0.00557
     2   C  2p       0.02642    0.67597    0.00000

     3   C  1s       0.00000
     3   C  2s       0.00049
     3   C  2p       0.00006    0.00343    0.00003

     4   C  1s       0.00000
     4   C  2s       0.00049
     4   C  2p       0.00006    0.00343    0.00003

     5   H  1s       0.00911

     6   H  1s       0.00911

     7   H  1s       0.03209

     8   H  1s       0.03209

     9   H  1s       0.10061

    10   H  1s       0.10061

 Summary of localized orbital composition:   [THRPRINT= 0.020]

   ORB  GRP  ORB.ENERGY      CENTERS/CHARGES
     1   1    -8.172397      C  4   2.000
     2   1    -8.172397      C  3   2.000
     3   1    -8.165948      C  2   2.000
     4   1    -0.249530      C  4   1.027   C  2   0.962
     5   1    -0.249530      C  3   1.027   C  2   0.962
     6   1    -0.172644      C  4   1.027   H 10   0.841   C  2   0.123
     7   1    -0.172644      C  3   1.027   H  9   0.841   C  2   0.123
     8   1    -0.168102      C  2   1.005   H  1   0.969   (other: 0.026)
     9   1    -0.165852      C  3   1.035   H  7   0.908   C  2   0.044
    10   1    -0.165852      C  4   1.035   H  8   0.908   C  2   0.044
    11   1    -0.162153      C  4   1.041   H  6   0.924   C  2   0.023
    12   1    -0.162153      C  3   1.041   H  5   0.924   C  2   0.023
    13   2     0.116532      C  2   0.708   H  9   0.101   H 10   0.101   H  7   0.032   H  8   0.032   (other: 0.027)

 Localized orbitals saved to record      2100.2  (orbital set 2)


 **********************************************************************************************************************************
 DATASETS  * FILE   NREC   LENGTH (MB)   RECORD NAMES
              1      20       48.47       500      610      700      900      950      970     1000      129      960     1100   
                                          VAR    BASINP    GEOM    SYMINP    ZMAT    AOBASIS   BASIS     P2S    ABASIS      S 
                                         1400     1410     1200     1210     1080     1600     1650     1300     1700     1800   
                                           T        V       H0       H01     AOSYM     SMH    MOLCAS    ERIS     OPER     GRID   

              2       5        3.13       700     1000      520     1800     2100   
                                         GEOM     BASIS   MCVARS    GRID      RKS  

 PROGRAMS   *        TOTAL      IBBA        KS       INT
 CPU TIMES  *         7.93      0.03      6.54      1.21
 REAL TIME  *        13.09 SEC
 DISK USED  *       105.25 MB      
 **********************************************************************************************************************************
 Molecular orbitals read from record     2100.2  Type=RKS/LOCAL(IBO)  
 Occupation numbers read from record     2100.2  Type=RKS/LOCAL(IBO)  
 Orbital energies read from record       2100.2  Type=RKS/LOCAL(IBO)  
 Redundancy group numbers read from rec  2100.2  Type=RKS/LOCAL(IBO)  

 IBBA/SVP energy=      0.000000000000

        KS-SCF  
   -101.55626505
 **********************************************************************************************************************************
 Molpro calculation terminated
