
 Primary working directories    : /tmp/sb13343
 Secondary working directories  : /tmp/sb13343
 Wavefunction directory         : /panfs/panasas01/chem/sb13343/wfu/
 Main file repository           : /tmp/sb13343/

 SHA1      : b4a5b34a9e711420743f49e6833241d17c61fb3c
 NAME      : 2099.9.b4a5b34
 ARCHNAME  : linux/x86_64_openmp
 FC        : /cm/shared/languages/GCC-6.1/bin/gfortran
 BLASLIB   : -lblas
 id        : simonbennie

 Nodes     nprocs
 node32-017    1

 Using customized tuning parameters: mindgm=1; mindgv=20; mindgc=4; mindgr=1; noblas=0; minvec=7
 default implementation of scratch files=df  

 memory,500,m
 geomtyp=xyz
 nosym
 noorient
 geometry={
 H         -1.57413        0.33845        0.00000
 C         -0.49500        0.20144        0.00000
 C          0.18857       -0.05954       -1.30114
 C          0.18857       -0.05954        1.30114
 H         -0.33790        0.40751       -2.14134
 H         -0.33790        0.40751        2.14134
 H          1.22176        0.31596       -1.29638
 H          1.22176        0.31596        1.29638
 H          0.25678       -1.13976       -1.52896
 H          0.25678       -1.13976        1.52896
 }
 basis={ default,svp }
 {uks,M06,direct;wf,25,1,1}
 {ibba,bonds=1}

 Variables initialized (895), CPU time= 0.00 sec
 Commands  initialized (725), CPU time= 0.02 sec, 591 directives.
 Default parameters read. Elapsed time= 0.08 sec

 Checking input...
 Passed
1


                                         ***  PROGRAM SYSTEM MOLPRO  ***
                                       Copyright, TTI GmbH Stuttgart, 2015
                                    Version 2099.9 linked May 26 2017 16:03:21


 **********************************************************************************************************************************
 LABEL *                                                                                 
  64 bit serial version                                                                  DATE: 08-Jun-17          TIME: 15:33:05  
 **********************************************************************************************************************************

 SHA1:             b4a5b34a9e711420743f49e6833241d17c61fb3c
 **********************************************************************************************************************************
 SETTING GEOMTYP        =    XYZ

 Variable memory set to  500000000 words,  buffer space 

 ZSYMEL=NOSYM

 SETTING BASIS          =    SVP


 Recomputing integrals since basis changed


 Using spherical harmonics

 Library entry H      S def2-SVP             selected for orbital group  1
 Library entry H      P def2-SVP             selected for orbital group  1
 Library entry C      S def2-SVP             selected for orbital group  2
 Library entry C      P def2-SVP             selected for orbital group  2
 Library entry C      D def2-SVP             selected for orbital group  2


 PROGRAM * SEWARD (Integral evaluation for generally contracted gaussian basis sets)     Author: Roland Lindh, 1990

 Geometry written to block  1 of record 700


 Point group  C1  



 ATOMIC COORDINATES

 NR  ATOM    CHARGE       X              Y              Z

   1  H       1.00   -2.974674584    0.639577807    0.000000000
   2  C       6.00   -0.935414432    0.380666431    0.000000000
   3  C       6.00    0.356345655   -0.112514293   -2.458798250
   4  C       6.00    0.356345655   -0.112514293    2.458798250
   5  H       1.00   -0.638538457    0.770082293   -4.046546140
   6  H       1.00   -0.638538457    0.770082293    4.046546140
   7  H       1.00    2.308791790    0.597077866   -2.449803153
   8  H       1.00    2.308791790    0.597077866    2.449803153
   9  H       1.00    0.485243874   -2.153834248   -2.889315655
  10  H       1.00    0.485243874   -2.153834248    2.889315655

 Bond lengths in Bohr (Angstrom)

 1-2  2.055630578  2-3  2.820914777  2-4  2.820914777  3-5  2.071162595  3-7  2.077413742
     ( 1.087792856)     ( 1.492763814)     ( 1.492763814)     ( 1.096012045)     ( 1.099320010)

  3- 9  2.090202656   4- 6  2.071162595   4- 8  2.077413742   4-10  2.090202656
       ( 1.106087612)       ( 1.096012045)       ( 1.099320010)       ( 1.106087612)

 Bond angles

  1-2-3  118.44375943   1-2-4  118.44375943   2-3-5  111.94558337   2-3-7  111.52358867

  2- 3- 9  112.24140213   2- 4- 6  111.94558337   2- 4- 8  111.52358867   2- 4-10  112.24140213

  3-2-4  121.29758064   5-3-7  108.01204745   5-3-9  106.73207413   6-4-8  108.01204745

  6- 4-10  106.73207413   7- 3- 9  106.05262855   8- 4-10  106.05262855

 NUCLEAR CHARGE:                   25
 NUMBER OF PRIMITIVE AOS:         124
 NUMBER OF SYMMETRY AOS:          121
 NUMBER OF CONTRACTIONS:           77   (  77A   )
 NUMBER OF CORE ORBITALS:           3   (   3A   )
 NUMBER OF VALENCE ORBITALS:       19   (  19A   )


 NUCLEAR REPULSION ENERGY   75.20704826


 Eigenvalues of metric

         1 0.402E-02 0.537E-02 0.229E-01 0.265E-01 0.266E-01 0.379E-01 0.436E-01 0.492E-01


 Contracted 2-electron integrals neglected if value below      1.0D-11
 AO integral compression algorithm  1   Integral accuracy      1.0D-11

     19.923 MB (compressed) written to integral file ( 49.4%)


 NUMBER OF SORTED TWO-ELECTRON INTEGRALS:    4510506.     BUFFER LENGTH:  32768
 NUMBER OF SEGMENTS:   1  SEGMENT LENGTH:    4510506      RECORD LENGTH: 524288

 Memory used in sort:       5.07 MW

 SORT1 READ     5074366. AND WROTE     4244391. INTEGRALS IN     13 RECORDS. CPU TIME:     0.06 SEC, REAL TIME:     0.12 SEC
 SORT2 READ     4244391. AND WROTE     4510506. INTEGRALS IN     76 RECORDS. CPU TIME:     0.15 SEC, REAL TIME:     0.18 SEC

 FILE SIZES:   FILE 1:    50.3 MBYTE,  FILE 4:    54.6 MBYTE,   TOTAL:    104.8 MBYTE

 OPERATOR DM      FOR CENTER  0  COORDINATES:    0.000000    0.000000    0.000000


 **********************************************************************************************************************************
 DATASETS  * FILE   NREC   LENGTH (MB)   RECORD NAMES
              1      19       47.44       500      610      700      900      950      970     1000      129      960     1100   
                                          VAR    BASINP    GEOM    SYMINP    ZMAT    AOBASIS   BASIS     P2S    ABASIS      S 
                                         1400     1410     1200     1210     1080     1600     1650     1300     1700   
                                           T        V       H0       H01     AOSYM     SMH    MOLCAS    ERIS     OPER   

 PROGRAMS   *        TOTAL       INT
 CPU TIMES  *         1.20      1.06
 REAL TIME  *         1.66 SEC
 DISK USED  *       105.25 MB      
 **********************************************************************************************************************************

 Density functional group M06=XC-M06
 Functional: XC-M06(via MFM 1.6)                                               Gradient terms: 1
 Use grid at  1800.2


 Exact exchange will be calculated, factor:  0.2700

 Functional: XC-M06                    Factor:  1.0000

 Generated new metagrid on record  1800.2 with target accuracy 1.0D-06 and 32470 points in CPU time    0.7
 Computed new grid on record 1800.1 in CPU time    0.8
   65184 words reserved for DFT integration

 PROGRAM * UKS-SCF (Unrestricted Kohn-Sham)     Authors: W. Meyer, H.-J. Werner, P.J. Knowles, 1993

 NUMBER OF ELECTRONS:      13+   12-    SPACE SYMMETRY=1    SPIN SYMMETRY: Doublet 
 CONVERGENCE THRESHOLDS:    1.00E-05 (Density)    1.00E-06 (Energy)
 MAX. NUMBER OF ITERATIONS:       60
 INTERPOLATION TYPE:            DIIS
 INTERPOLATION STEPS:              2 (START)      1 (STEP)
 LEVEL SHIFTS:                 -0.20 (ALPHA)  -0.20 (BETA) 



 Use fine grid record 1800.2 for energy threshold  1.0D-06
 Orbital guess generated from atomic densities. Full valence occupancy:   13

 Molecular orbital dump at record        2200.2

 Initial alpha occupation  13
 Initial beta  occupation  12

 ITERATION    DDIFF          GRAD             ENERGY        2-EL.EN.            DIPOLE MOMENTS         DIIS
    1      0.000D+00      0.000D+00      -118.15410798    261.246515    0.19763   -0.26015    0.00000    0
    2      0.118D-01      0.600D-02      -118.26818619    251.462140    0.07360   -0.12583   -0.00000    1
    3      0.327D-02      0.211D-02      -118.28035936    253.448553    0.06089   -0.12433   -0.00000    2
    4      0.122D-02      0.388D-03      -118.28143390    253.350611    0.04946   -0.10996   -0.00000    3
    5      0.663D-03      0.181D-03      -118.28172964    253.323024    0.03875   -0.09859   -0.00000    4
    6      0.202D-03      0.665D-04      -118.28177402    253.324463    0.03641   -0.09442   -0.00000    5
    7      0.724D-04      0.197D-04      -118.28177778    253.324083    0.03500   -0.09292   -0.00000    6
    8      0.137D-04      0.401D-05      -118.28177791    253.323669    0.03533   -0.09288   -0.00000    6
    9      0.679D-05      0.167D-05      -118.28177793    253.323822    0.03528   -0.09284   -0.00000    6
   10      0.203D-05      0.452D-06      -118.28177793    253.323541    0.03529   -0.09281   -0.00000    7

 Final alpha occupancy:  13
 Final beta  occupancy:  12

 !UKS STATE 1.1 Energy               -118.281777934369
 Nuclear energy                        75.20704826
 One-electron energy                 -306.27648410
 Two-electron energy                  126.66177026
 Density functional                   -13.87411236     XC-M06=-13.87411236
 Virial quotient                       -1.01312780
 !UKS STATE 1.1 Dipole moment           0.03528811    -0.09281274    -0.00000000
 Dipole moment /Debye                   0.08968756    -0.23589101    -0.00000000

 Orbital energies for positive spin:

         1.1          2.1          3.1          4.1          5.1          6.1          7.1          8.1          9.1         10.1
    -10.246544   -10.239548   -10.239532    -0.781889    -0.690758    -0.571669    -0.459815    -0.434817    -0.417560    -0.391498

        11.1         12.1         13.1         14.1         15.1
     -0.363296    -0.354924    -0.190852     0.076447     0.099848

 Orbital energies for negative spin:

         1.1          2.1          3.1          4.1          5.1          6.1          7.1          8.1          9.1         10.1
    -10.240370   -10.240355   -10.233988    -0.763219    -0.688647    -0.547146    -0.451665    -0.416287    -0.411355    -0.385479

        11.1         12.1         13.1         14.1         15.1
     -0.360424    -0.347598    -0.020764     0.074948     0.100544

 HOMO     13.1    -0.190852 =      -5.1933eV
 LUMO    -13.1    -0.020764 =      -0.5650eV
 LUMO-HOMO         0.170088 =       4.6283eV

 EXPECTATION VALUE OF S**2:             0.75525389

 Occupation number threshold for canonical orbitals:  1.999000 (occupied),  0.001000 (virtual)

 Number of pseudo-canonical orbitals per symmetry:   11
 Number of active natural orbitals per symmetry:      3

 Natural orbitals saved to record    2200.2 (Orbital set 3)

 Orbital spaces for UNO-CAS (Min. occupation: 0.020  Max. occupation: 1.980):

 Closed:       12
 Active:        1


 **********************************************************************************************************************************
 DATASETS  * FILE   NREC   LENGTH (MB)   RECORD NAMES
              1      20       48.47       500      610      700      900      950      970     1000      129      960     1100   
                                          VAR    BASINP    GEOM    SYMINP    ZMAT    AOBASIS   BASIS     P2S    ABASIS      S 
                                         1400     1410     1200     1210     1080     1600     1650     1300     1700     1800   
                                           T        V       H0       H01     AOSYM     SMH    MOLCAS    ERIS     OPER     GRID   

              2       5        3.16       700     1000      520     1800     2200   
                                         GEOM     BASIS   MCVARS    GRID      UKS  

 PROGRAMS   *        TOTAL       UKS       INT
 CPU TIMES  *        19.01     17.81      1.06
 REAL TIME  *        19.97 SEC
 DISK USED  *       105.25 MB      
 **********************************************************************************************************************************


 PROGRAM * Intrinsic Basis Bonding Analysis (IBBA)          Author: G. Knizia

 Molecular orbitals read from record     2200.2  Type=UKS/ALPHA (state 1.1)
 Fock matrix read from record            2200.2  Type=UKS/TOTAL (state 1.1)
 Orbital energies read from record       2200.2  Type=UKS/ALPHA (state 1.1)
 Density matrix read from record         2200.2  Type=UKS/CHARGE (state 1.1)

 Number of core orbitals:           3 (   3 )
 Number of closed-shell orbitals:   9 (   9 )
 Number of active  orbitals:        1 (   1 )

 Basis set MINAO-AUTO-PP generated.      Number of basis functions:   22 

 Polarized AO type:                A = (O Ot + (1-O)(1-Ot)) P12
 Orthogonalization method:         Symmetric (Loewdin)
 Localization functional:          L = sum[A,i] <i|n_A|i>^4 -> max

 Localization group 1:  12 orbitals, occupancy  2.000
 Iterative localization: IB/PM,    8 iter; Final gradient 0.15E-09

 Bond order analysis:       [THRPRINT= 0.020]

   CEN ATOM   CEN ATOM     WIBERG.BO      RENORM.BO
     1   H  -   2   C       0.943869       0.968208

     2   C  -   3   C       1.179196       1.484328
     2   C  -   4   C       1.179196       1.484328
     2   C  -   1   H       0.943869       0.968208
     2   C  -   9   H       0.067975       0.271323
     2   C  -  10   H       0.067975       0.271323
     2   C  -   7   H       0.022056       0.080537
     2   C  -   8   H       0.022056       0.080537

     3   C  -   2   C       1.179196       1.484328
     3   C  -   5   H       0.949900       0.988309
     3   C  -   7   H       0.931651       0.987871
     3   C  -   9   H       0.863192       0.996464

     4   C  -   2   C       1.179196       1.484328
     4   C  -   6   H       0.949900       0.988309
     4   C  -   8   H       0.931651       0.987871
     4   C  -  10   H       0.863192       0.996464

     5   H  -   3   C       0.949900       0.988309

     6   H  -   4   C       0.949900       0.988309

     7   H  -   3   C       0.931651       0.987871
     7   H  -   2   C       0.022056       0.080537

     8   H  -   4   C       0.931651       0.987871
     8   H  -   2   C       0.022056       0.080537

     9   H  -   3   C       0.863192       0.996464
     9   H  -   2   C       0.067975       0.271323

    10   H  -   4   C       0.863192       0.996464
    10   H  -   2   C       0.067975       0.271323


 Valency analysis:

   CEN ATOM   TOT.VALENCE
     1   H       0.972971
     2   C       3.500832
     3   C       3.949572
     4   C       3.949572
     5   H       0.978256
     6   H       0.978256
     7   H       0.975414
     8   H       0.975414
     9   H       0.955963
    10   H       0.955963
 Localization group 2:   1 orbitals, occupancy  1.000
 Iterative localization: IB/PM,    1 iter; Final gradient 0.00E+00

 Bond order analysis:       [THRPRINT= 0.020]

   CEN ATOM   CEN ATOM     WIBERG.BO      RENORM.BO

     2   C  -   9   H       0.104347       0.500000
     2   C  -  10   H       0.104347       0.500000
     2   C  -   7   H       0.033316       0.500000
     2   C  -   8   H       0.033316       0.500000





     7   H  -   2   C       0.033316       0.500000

     8   H  -   2   C       0.033316       0.500000

     9   H  -   2   C       0.104347       0.500000

    10   H  -   2   C       0.104347       0.500000


 Valency analysis:

   CEN ATOM   TOT.VALENCE
     1   H       0.001480
     2   C       0.335779
     3   C       0.022621
     4   C       0.022621
     5   H       0.014696
     6   H       0.014696
     7   H       0.041460
     8   H       0.041460
     9   H       0.123865
    10   H       0.123865

 Total charge composition:

   CEN ATOM         s          p       ELECTRONS ->P.CHARGE
     1   H       0.83633                 0.83633    0.16367
     2   C       3.04257    3.26795      6.31052   -0.31052
     3   C       3.00315    3.34262      6.34576   -0.34576
     4   C       3.00315    3.34262      6.34576   -0.34576
     5   H       0.85994                 0.85994    0.14006
     6   H       0.85994                 0.85994    0.14006
     7   H       0.86438                 0.86438    0.13562
     8   H       0.86438                 0.86438    0.13562
     9   H       0.85648                 0.85648    0.14352
    10   H       0.85648                 0.85648    0.14352

 Total charge composition, AO contributions:

   CEN ATOM SHL      SPHERICAL COMPONENTS
     1   H  1s       0.83633

     2   C  1s       1.99248
     2   C  2s       1.05009
     2   C  2p       1.13717    1.09774    1.03304

     3   C  1s       1.99109
     3   C  2s       1.01206
     3   C  2p       1.13476    1.12687    1.08099

     4   C  1s       1.99109
     4   C  2s       1.01206
     4   C  2p       1.13476    1.12687    1.08099

     5   H  1s       0.85994

     6   H  1s       0.85994

     7   H  1s       0.86438

     8   H  1s       0.86438

     9   H  1s       0.85648

    10   H  1s       0.85648

 Active orbital charges:

   CEN ATOM         s          p       ELECTRONS ->SPIN.DEN
     1   H       0.00074                 0.00074    0.00074
     2   C       0.00546    0.78109      0.78655    0.78655
     3   C       0.00010    0.01134      0.01144    0.01144
     4   C       0.00010    0.01134      0.01144    0.01144
     5   H       0.00740                 0.00740    0.00740
     6   H       0.00740                 0.00740    0.00740
     7   H       0.02118                 0.02118    0.02118
     8   H       0.02118                 0.02118    0.02118
     9   H       0.06633                 0.06633    0.06633
    10   H       0.06633                 0.06633    0.06633

 Active orbital charges, AO contributions:

   CEN ATOM SHL      SPHERICAL COMPONENTS
     1   H  1s       0.00074

     2   C  1s       0.00001
     2   C  2s       0.00546
     2   C  2p       0.03215    0.74893    0.00000

     3   C  1s       0.00000
     3   C  2s       0.00010
     3   C  2p       0.00009    0.01115    0.00010

     4   C  1s       0.00000
     4   C  2s       0.00010
     4   C  2p       0.00009    0.01115    0.00010

     5   H  1s       0.00740

     6   H  1s       0.00740

     7   H  1s       0.02118

     8   H  1s       0.02118

     9   H  1s       0.06633

    10   H  1s       0.06633

 Summary of localized orbital composition:   [THRPRINT= 0.020]

   ORB  GRP  ORB.ENERGY      CENTERS/CHARGES
     1   1   -10.137403      C  2   2.000
     2   1   -10.124765      C  4   2.000
     3   1   -10.124765      C  3   2.000
     4   1    -0.607544      C  2   1.016   C  4   0.977
     5   1    -0.607544      C  2   1.016   C  3   0.977
     6   1    -0.521509      C  2   1.163   H  1   0.825
     7   1    -0.504097      C  3   1.100   H  9   0.783   C  2   0.111
     8   1    -0.504097      C  4   1.100   H 10   0.783   C  2   0.111
     9   1    -0.500517      C  4   1.119   H  8   0.837   C  2   0.036
    10   1    -0.500517      C  3   1.119   H  7   0.837   C  2   0.036
    11   1    -0.499725      C  3   1.130   H  5   0.846   (other: 0.024)
    12   1    -0.499725      C  4   1.130   H  6   0.846   (other: 0.024)
    13   2    -0.102498      C  2   0.787   H  9   0.066   H 10   0.066   H  7   0.021   H  8   0.021   (other: 0.038)

 Localized orbitals saved to record      2200.2  (orbital set 4)


 **********************************************************************************************************************************
 DATASETS  * FILE   NREC   LENGTH (MB)   RECORD NAMES
              1      20       48.47       500      610      700      900      950      970     1000      129      960     1100   
                                          VAR    BASINP    GEOM    SYMINP    ZMAT    AOBASIS   BASIS     P2S    ABASIS      S 
                                         1400     1410     1200     1210     1080     1600     1650     1300     1700     1800   
                                           T        V       H0       H01     AOSYM     SMH    MOLCAS    ERIS     OPER     GRID   

              2       5        3.21       700     1000      520     1800     2200   
                                         GEOM     BASIS   MCVARS    GRID      UKS  

 PROGRAMS   *        TOTAL      IBBA       UKS       INT
 CPU TIMES  *        19.04      0.03     17.81      1.06
 REAL TIME  *        20.06 SEC
 DISK USED  *       105.25 MB      
 **********************************************************************************************************************************
 Molecular orbitals read from record     2200.2  Type=UKS/LOCAL(IBO)  
 Occupation numbers read from record     2200.2  Type=UKS/LOCAL(IBO)  
 Orbital energies read from record       2200.2  Type=UKS/LOCAL(IBO)  
 Redundancy group numbers read from rec  2200.2  Type=UKS/BETA (state 1.1)

 IBBA/SVP energy=      0.000000000000

        UKS-SCF 
   -118.28177793
 **********************************************************************************************************************************
 Molpro calculation terminated
