
 Primary working directories    : /tmp/sb13343
 Secondary working directories  : /tmp/sb13343
 Wavefunction directory         : /panfs/panasas01/chem/sb13343/wfu/
 Main file repository           : /tmp/sb13343/

 SHA1      : b4a5b34a9e711420743f49e6833241d17c61fb3c
 NAME      : 2099.9.b4a5b34
 ARCHNAME  : linux/x86_64_openmp
 FC        : /cm/shared/languages/GCC-6.1/bin/gfortran
 BLASLIB   : -lblas
 id        : simonbennie

 Nodes     nprocs
 node32-017    1

 Using customized tuning parameters: mindgm=1; mindgv=20; mindgc=4; mindgr=1; noblas=0; minvec=7
 default implementation of scratch files=df  

 memory,500,m
 geomtyp=xyz
 nosym
 noorient
 geometry={
 H         -1.57413        0.33845        0.00000
 C         -0.49500        0.20144        0.00000
 C          0.18857       -0.05954       -1.30114
 C          0.18857       -0.05954        1.30114
 H         -0.33790        0.40751       -2.14134
 H         -0.33790        0.40751        2.14134
 H          1.22176        0.31596       -1.29638
 H          1.22176        0.31596        1.29638
 H          0.25678       -1.13976       -1.52896
 H          0.25678       -1.13976        1.52896
 }
 basis={ default,sto-3g }
 {uks,M08-HX,direct;wf,25,1,1}
 {ibba,bonds=1}

 Variables initialized (895), CPU time= 0.00 sec
 Commands  initialized (725), CPU time= 0.02 sec, 591 directives.
 Default parameters read. Elapsed time= 0.08 sec

 Checking input...
 Passed
1


                                         ***  PROGRAM SYSTEM MOLPRO  ***
                                       Copyright, TTI GmbH Stuttgart, 2015
                                    Version 2099.9 linked May 26 2017 16:03:21


 **********************************************************************************************************************************
 LABEL *                                                                                 
  64 bit serial version                                                                  DATE: 08-Jun-17          TIME: 15:18:09  
 **********************************************************************************************************************************

 SHA1:             b4a5b34a9e711420743f49e6833241d17c61fb3c
 **********************************************************************************************************************************
 SETTING GEOMTYP        =    XYZ

 Variable memory set to  500000000 words,  buffer space 

 ZSYMEL=NOSYM

 SETTING BASIS          =    STO-3G


 Recomputing integrals since basis changed


 Using spherical harmonics

 Library entry H      S STO-3G               selected for orbital group  1
 Library entry C      S STO-3G               selected for orbital group  2
 Library entry C      P STO-3G               selected for orbital group  2


 PROGRAM * SEWARD (Integral evaluation for generally contracted gaussian basis sets)     Author: Roland Lindh, 1990

 Geometry written to block  1 of record 700


 Point group  C1  



 ATOMIC COORDINATES

 NR  ATOM    CHARGE       X              Y              Z

   1  H       1.00   -2.974674584    0.639577807    0.000000000
   2  C       6.00   -0.935414432    0.380666431    0.000000000
   3  C       6.00    0.356345655   -0.112514293   -2.458798250
   4  C       6.00    0.356345655   -0.112514293    2.458798250
   5  H       1.00   -0.638538457    0.770082293   -4.046546140
   6  H       1.00   -0.638538457    0.770082293    4.046546140
   7  H       1.00    2.308791790    0.597077866   -2.449803153
   8  H       1.00    2.308791790    0.597077866    2.449803153
   9  H       1.00    0.485243874   -2.153834248   -2.889315655
  10  H       1.00    0.485243874   -2.153834248    2.889315655

 Bond lengths in Bohr (Angstrom)

 1-2  2.055630578  2-3  2.820914777  2-4  2.820914777  3-5  2.071162595  3-7  2.077413742
     ( 1.087792856)     ( 1.492763814)     ( 1.492763814)     ( 1.096012045)     ( 1.099320010)

  3- 9  2.090202656   4- 6  2.071162595   4- 8  2.077413742   4-10  2.090202656
       ( 1.106087612)       ( 1.096012045)       ( 1.099320010)       ( 1.106087612)

 Bond angles

  1-2-3  118.44375943   1-2-4  118.44375943   2-3-5  111.94558337   2-3-7  111.52358867

  2- 3- 9  112.24140213   2- 4- 6  111.94558337   2- 4- 8  111.52358867   2- 4-10  112.24140213

  3-2-4  121.29758064   5-3-7  108.01204745   5-3-9  106.73207413   6-4-8  108.01204745

  6- 4-10  106.73207413   7- 3- 9  106.05262855   8- 4-10  106.05262855

 NUCLEAR CHARGE:                   25
 NUMBER OF PRIMITIVE AOS:          66
 NUMBER OF SYMMETRY AOS:           66
 NUMBER OF CONTRACTIONS:           22   (  22A   )
 NUMBER OF CORE ORBITALS:           3   (   3A   )
 NUMBER OF VALENCE ORBITALS:       19   (  19A   )


 NUCLEAR REPULSION ENERGY   75.20704826


 Eigenvalues of metric

         1 0.213E+00 0.225E+00 0.288E+00 0.342E+00 0.359E+00 0.374E+00 0.380E+00 0.402E+00


 Contracted 2-electron integrals neglected if value below      1.0D-11
 AO integral compression algorithm  1   Integral accuracy      1.0D-11

     0.524 MB (compressed) written to integral file ( 89.6%)


 NUMBER OF SORTED TWO-ELECTRON INTEGRALS:      32131.     BUFFER LENGTH:  32768
 NUMBER OF SEGMENTS:   1  SEGMENT LENGTH:      32131      RECORD LENGTH: 524288

 Memory used in sort:       0.59 MW

 SORT1 READ       38209. AND WROTE       30689. INTEGRALS IN      1 RECORDS. CPU TIME:     0.00 SEC, REAL TIME:     0.00 SEC
 SORT2 READ       30689. AND WROTE       32131. INTEGRALS IN      2 RECORDS. CPU TIME:     0.01 SEC, REAL TIME:     0.01 SEC

 FILE SIZES:   FILE 1:    30.6 MBYTE,  FILE 4:     4.2 MBYTE,   TOTAL:     34.9 MBYTE

 OPERATOR DM      FOR CENTER  0  COORDINATES:    0.000000    0.000000    0.000000


 **********************************************************************************************************************************
 DATASETS  * FILE   NREC   LENGTH (MB)   RECORD NAMES
              1      19       30.27       500      610      700      900      950      970     1000      129      960     1100   
                                          VAR    BASINP    GEOM    SYMINP    ZMAT    AOBASIS   BASIS     P2S    ABASIS      S 
                                         1400     1410     1200     1210     1080     1600     1650     1300     1700   
                                           T        V       H0       H01     AOSYM     SMH    MOLCAS    ERIS     OPER   

 PROGRAMS   *        TOTAL       INT
 CPU TIMES  *         0.38      0.24
 REAL TIME  *         0.68 SEC
 DISK USED  *        35.29 MB      
 **********************************************************************************************************************************

 Density functional group M08-HX=XC-M08-HX
 Functional: XC-M08-HX(via MFM 1.6)                                            Gradient terms: 1
 Use grid at  1800.2


 Exact exchange will be calculated, factor:  0.5223

 Functional: XC-M08-HX                 Factor:  1.0000

 Generated new metagrid on record  1800.2 with target accuracy 1.0D-06 and 32470 points in CPU time    0.7
 Computed new grid on record 1800.1 in CPU time    0.8
   21722 words reserved for DFT integration

 PROGRAM * UKS-SCF (Unrestricted Kohn-Sham)     Authors: W. Meyer, H.-J. Werner, P.J. Knowles, 1993

 NUMBER OF ELECTRONS:      13+   12-    SPACE SYMMETRY=1    SPIN SYMMETRY: Doublet 
 CONVERGENCE THRESHOLDS:    1.00E-05 (Density)    1.00E-06 (Energy)
 MAX. NUMBER OF ITERATIONS:       60
 INTERPOLATION TYPE:            DIIS
 INTERPOLATION STEPS:              2 (START)      1 (STEP)
 LEVEL SHIFTS:                 -0.20 (ALPHA)  -0.20 (BETA) 



 Use fine grid record 1800.2 for energy threshold  1.0D-06
 Orbital guess generated from atomic densities. Full valence occupancy:   13

 Molecular orbital dump at record        2200.2

 Initial alpha occupation  13
 Initial beta  occupation  12

 ITERATION    DDIFF          GRAD             ENERGY        2-EL.EN.            DIPOLE MOMENTS         DIIS
    1      0.000D+00      0.000D+00      -116.88689470    250.908480    0.20550   -0.29371    0.00000    0
    2      0.428D-01      0.174D-01      -116.99353069    245.273509    0.07573   -0.10944    0.00000    1
    3      0.304D-02      0.287D-02      -116.99650386    245.239854    0.04457   -0.07914    0.00000    2
    4      0.249D-02      0.145D-02      -116.99781881    245.199168    0.02725   -0.06380    0.00000    3
    5      0.114D-02      0.564D-03      -116.99802977    245.197408    0.02178   -0.05854    0.00000    4
    6      0.288D-03      0.110D-03      -116.99803848    245.194655    0.02202   -0.05840    0.00000    5
    7      0.446D-04      0.203D-04      -116.99803878    245.195394    0.02208   -0.05837    0.00000    6
    8      0.780D-05      0.554D-05      -116.99803881    245.195232    0.02204   -0.05834    0.00000    6
    9      0.238D-05      0.135D-05      -116.99803881    245.195355    0.02204   -0.05834    0.00000    6

 Final alpha occupancy:  13
 Final beta  occupancy:  12

 !UKS STATE 1.1 Energy               -116.998038808864
 Nuclear energy                        75.20704826
 One-electron energy                 -305.39874854
 Two-electron energy                  122.59767764
 Density functional                    -9.40401616     XC-M08-HX=-9.40401616
 Virial quotient                       -1.01471456
 !UKS STATE 1.1 Dipole moment           0.02204094    -0.05833556     0.00000000
 Dipole moment /Debye                   0.05601880    -0.14826449     0.00000000

 Orbital energies for positive spin:

         1.1          2.1          3.1          4.1          5.1          6.1          7.1          8.1          9.1         10.1
    -10.301101   -10.301085   -10.275648    -0.837488    -0.742009    -0.613924    -0.482136    -0.458263    -0.434926    -0.412384

        11.1         12.1         13.1         14.1         15.1
     -0.373142    -0.367232    -0.173824     0.450101     0.491457

 Orbital energies for negative spin:

         1.1          2.1          3.1          4.1          5.1          6.1          7.1          8.1          9.1         10.1
    -10.302963   -10.302942   -10.254002    -0.810536    -0.737852    -0.584043    -0.474608    -0.437488    -0.427859    -0.407005

        11.1         12.1         13.1         14.1         15.1
     -0.362106    -0.359528     0.140342     0.455515     0.507125

 HOMO     13.1    -0.173824 =      -4.7300eV
 LUMO    -13.1     0.140342 =       3.8189eV
 LUMO-HOMO         0.314165 =       8.5489eV

 EXPECTATION VALUE OF S**2:             0.75471398

 Occupation number threshold for canonical orbitals:  1.999000 (occupied),  0.001000 (virtual)

 Number of pseudo-canonical orbitals per symmetry:   11
 Number of active natural orbitals per symmetry:      3

 Natural orbitals saved to record    2200.2 (Orbital set 3)

 Orbital spaces for UNO-CAS (Min. occupation: 0.020  Max. occupation: 1.980):

 Closed:       12
 Active:        1


 **********************************************************************************************************************************
 DATASETS  * FILE   NREC   LENGTH (MB)   RECORD NAMES
              1      20       31.31       500      610      700      900      950      970     1000      129      960     1100   
                                          VAR    BASINP    GEOM    SYMINP    ZMAT    AOBASIS   BASIS     P2S    ABASIS      S 
                                         1400     1410     1200     1210     1080     1600     1650     1300     1700     1800   
                                           T        V       H0       H01     AOSYM     SMH    MOLCAS    ERIS     OPER     GRID   

              2       5        2.93       700     1000      520     1800     2200   
                                         GEOM     BASIS   MCVARS    GRID      UKS  

 PROGRAMS   *        TOTAL       UKS       INT
 CPU TIMES  *         4.65      4.27      0.24
 REAL TIME  *         5.15 SEC
 DISK USED  *        35.29 MB      
 **********************************************************************************************************************************


 PROGRAM * Intrinsic Basis Bonding Analysis (IBBA)          Author: G. Knizia

 Molecular orbitals read from record     2200.2  Type=UKS/ALPHA (state 1.1)
 Fock matrix read from record            2200.2  Type=UKS/TOTAL (state 1.1)
 Orbital energies read from record       2200.2  Type=UKS/ALPHA (state 1.1)
 Density matrix read from record         2200.2  Type=UKS/CHARGE (state 1.1)

 Number of core orbitals:           3 (   3 )
 Number of closed-shell orbitals:   9 (   9 )
 Number of active  orbitals:        1 (   1 )

 Basis set MINAO-AUTO-PP generated.      Number of basis functions:   22 

 Polarized AO type:                A = (O Ot + (1-O)(1-Ot)) P12
 Orthogonalization method:         Symmetric (Loewdin)
 Localization functional:          L = sum[A,i] <i|n_A|i>^4 -> max

 Localization group 1:  12 orbitals, occupancy  2.000
 Iterative localization: IB/PM,    7 iter; Final gradient 0.27E-08

 Bond order analysis:       [THRPRINT= 0.020]

   CEN ATOM   CEN ATOM     WIBERG.BO      RENORM.BO
     1   H  -   2   C       0.953011       0.973693

     2   C  -   3   C       1.161086       1.486772
     2   C  -   4   C       1.161086       1.486772
     2   C  -   1   H       0.953011       0.973693
     2   C  -   9   H       0.064996       0.278340
     2   C  -  10   H       0.064996       0.278340
     2   C  -   7   H       0.020657       0.080548
     2   C  -   8   H       0.020657       0.080548

     3   C  -   2   C       1.161086       1.486772
     3   C  -   5   H       0.955444       0.990655
     3   C  -   7   H       0.938442       0.991005
     3   C  -   9   H       0.874671       0.996996

     4   C  -   2   C       1.161086       1.486772
     4   C  -   6   H       0.955444       0.990655
     4   C  -   8   H       0.938442       0.991005
     4   C  -  10   H       0.874671       0.996996

     5   H  -   3   C       0.955444       0.990655

     6   H  -   4   C       0.955444       0.990655

     7   H  -   3   C       0.938442       0.991005
     7   H  -   2   C       0.020657       0.080548

     8   H  -   4   C       0.938442       0.991005
     8   H  -   2   C       0.020657       0.080548

     9   H  -   3   C       0.874671       0.996996
     9   H  -   2   C       0.064996       0.278340

    10   H  -   4   C       0.874671       0.996996
    10   H  -   2   C       0.064996       0.278340


 Valency analysis:

   CEN ATOM   TOT.VALENCE
     1   H       0.976463
     2   C       3.463902
     3   C       3.949893
     4   C       3.949893
     5   H       0.980955
     6   H       0.980955
     7   H       0.978391
     8   H       0.978391
     9   H       0.963464
    10   H       0.963464
 Localization group 2:   1 orbitals, occupancy  1.000
 Iterative localization: IB/PM,    1 iter; Final gradient 0.00E+00

 Bond order analysis:       [THRPRINT= 0.020]

   CEN ATOM   CEN ATOM     WIBERG.BO      RENORM.BO

     2   C  -   9   H       0.090939       0.500000
     2   C  -  10   H       0.090939       0.500000
     2   C  -   7   H       0.028996       0.500000
     2   C  -   8   H       0.028996       0.500000
     2   C  -   3   C       0.025578       0.500000
     2   C  -   4   C       0.025578       0.500000

     3   C  -   2   C       0.025578       0.500000

     4   C  -   2   C       0.025578       0.500000



     7   H  -   2   C       0.028996       0.500000

     8   H  -   2   C       0.028996       0.500000

     9   H  -   2   C       0.090939       0.500000

    10   H  -   2   C       0.090939       0.500000


 Valency analysis:

   CEN ATOM   TOT.VALENCE
     1   H       0.001598
     2   C       0.314288
     3   C       0.031279
     4   C       0.031279
     5   H       0.013562
     6   H       0.013562
     7   H       0.035383
     8   H       0.035383
     9   H       0.106621
    10   H       0.106621

 Total charge composition:

   CEN ATOM         s          p       ELECTRONS ->P.CHARGE
     1   H       0.84738                 0.84738    0.15262
     2   C       3.04521    3.24488      6.29009   -0.29009
     3   C       2.97784    3.34822      6.32607   -0.32607
     4   C       2.97784    3.34822      6.32607   -0.32607
     5   H       0.86882                 0.86882    0.13118
     6   H       0.86882                 0.86882    0.13118
     7   H       0.87101                 0.87101    0.12899
     8   H       0.87101                 0.87101    0.12899
     9   H       0.86536                 0.86536    0.13464
    10   H       0.86536                 0.86536    0.13464

 Total charge composition, AO contributions:

   CEN ATOM SHL      SPHERICAL COMPONENTS
     1   H  1s       0.84738

     2   C  1s       1.99271
     2   C  2s       1.05250
     2   C  2p       1.12805    1.08553    1.03131

     3   C  1s       1.99152
     3   C  2s       0.98633
     3   C  2p       1.13829    1.13043    1.07950

     4   C  1s       1.99152
     4   C  2s       0.98633
     4   C  2p       1.13829    1.13043    1.07950

     5   H  1s       0.86882

     6   H  1s       0.86882

     7   H  1s       0.87101

     8   H  1s       0.87101

     9   H  1s       0.86536

    10   H  1s       0.86536

 Active orbital charges:

   CEN ATOM         s          p       ELECTRONS ->SPIN.DEN
     1   H       0.00080                 0.00080    0.00080
     2   C       0.00563    0.79909      0.80472    0.80472
     3   C       0.00010    0.01579      0.01589    0.01589
     4   C       0.00010    0.01579      0.01589    0.01589
     5   H       0.00683                 0.00683    0.00683
     6   H       0.00683                 0.00683    0.00683
     7   H       0.01802                 0.01802    0.01802
     8   H       0.01802                 0.01802    0.01802
     9   H       0.05650                 0.05650    0.05650
    10   H       0.05650                 0.05650    0.05650

 Active orbital charges, AO contributions:

   CEN ATOM SHL      SPHERICAL COMPONENTS
     1   H  1s       0.00080

     2   C  1s       0.00001
     2   C  2s       0.00562
     2   C  2p       0.03402    0.76508    0.00000

     3   C  1s       0.00000
     3   C  2s       0.00010
     3   C  2p       0.00022    0.01533    0.00024

     4   C  1s       0.00000
     4   C  2s       0.00010
     4   C  2p       0.00022    0.01533    0.00024

     5   H  1s       0.00683

     6   H  1s       0.00683

     7   H  1s       0.01802

     8   H  1s       0.01802

     9   H  1s       0.05650

    10   H  1s       0.05650

 Summary of localized orbital composition:   [THRPRINT= 0.020]

   ORB  GRP  ORB.ENERGY      CENTERS/CHARGES
     1   1   -10.186314      C  4   2.000
     2   1   -10.186314      C  3   2.000
     3   1   -10.157633      C  2   2.000
     4   1    -0.620893      C  2   1.017   C  4   0.975
     5   1    -0.620893      C  2   1.017   C  3   0.975
     6   1    -0.554202      C  2   1.153   H  1   0.838
     7   1    -0.533882      C  4   1.090   H 10   0.802   C  2   0.101
     8   1    -0.533882      C  3   1.090   H  9   0.802   C  2   0.101
     9   1    -0.532400      C  4   1.124   H  6   0.856   (other: 0.020)
    10   1    -0.532400      C  3   1.124   H  5   0.856   (other: 0.020)
    11   1    -0.530614      C  3   1.114   H  7   0.847   C  2   0.032
    12   1    -0.530614      C  4   1.114   H  8   0.847   C  2   0.032
    13   2    -0.022089      C  2   0.805   H  9   0.057   H 10   0.057   (other: 0.082)

 Localized orbitals saved to record      2200.2  (orbital set 4)


 **********************************************************************************************************************************
 DATASETS  * FILE   NREC   LENGTH (MB)   RECORD NAMES
              1      20       31.31       500      610      700      900      950      970     1000      129      960     1100   
                                          VAR    BASINP    GEOM    SYMINP    ZMAT    AOBASIS   BASIS     P2S    ABASIS      S 
                                         1400     1410     1200     1210     1080     1600     1650     1300     1700     1800   
                                           T        V       H0       H01     AOSYM     SMH    MOLCAS    ERIS     OPER     GRID   

              2       5        2.94       700     1000      520     1800     2200   
                                         GEOM     BASIS   MCVARS    GRID      UKS  

 PROGRAMS   *        TOTAL      IBBA       UKS       INT
 CPU TIMES  *         4.67      0.02      4.27      0.24
 REAL TIME  *         5.24 SEC
 DISK USED  *        35.29 MB      
 **********************************************************************************************************************************
 Molecular orbitals read from record     2200.2  Type=UKS/LOCAL(IBO)  
 Occupation numbers read from record     2200.2  Type=UKS/LOCAL(IBO)  
 Orbital energies read from record       2200.2  Type=UKS/LOCAL(IBO)  
 Redundancy group numbers read from rec  2200.2  Type=UKS/BETA (state 1.1)

 IBBA/STO-3G energy=      0.000000000000

        UKS-SCF 
   -116.99803881
 **********************************************************************************************************************************
 Molpro calculation terminated
