
 Primary working directories    : /tmp/sb13343
 Secondary working directories  : /tmp/sb13343
 Wavefunction directory         : /panfs/panasas01/chem/sb13343/wfu/
 Main file repository           : /tmp/sb13343/

 SHA1      : b4a5b34a9e711420743f49e6833241d17c61fb3c
 NAME      : 2099.9.b4a5b34
 ARCHNAME  : linux/x86_64_openmp
 FC        : /cm/shared/languages/GCC-6.1/bin/gfortran
 BLASLIB   : -lblas
 id        : simonbennie

 Nodes     nprocs
 node32-017    1

 Using customized tuning parameters: mindgm=1; mindgv=20; mindgc=4; mindgr=1; noblas=0; minvec=7
 default implementation of scratch files=df  

 memory,500,m
 geomtyp=xyz
 nosym
 noorient
 geometry={
 H         -1.57413        0.33845        0.00000
 C         -0.49500        0.20144        0.00000
 C          0.18857       -0.05954       -1.30114
 C          0.18857       -0.05954        1.30114
 H         -0.33790        0.40751       -2.14134
 H         -0.33790        0.40751        2.14134
 H          1.22176        0.31596       -1.29638
 H          1.22176        0.31596        1.29638
 H          0.25678       -1.13976       -1.52896
 H          0.25678       -1.13976        1.52896
 }
 basis={ default,sto-3g }
 {uks,MM06-L,direct;wf,25,1,1}
 {ibba,bonds=1}

 Variables initialized (895), CPU time= 0.00 sec
 Commands  initialized (725), CPU time= 0.01 sec, 591 directives.
 Default parameters read. Elapsed time= 0.08 sec

 Checking input...
 Passed
1


                                         ***  PROGRAM SYSTEM MOLPRO  ***
                                       Copyright, TTI GmbH Stuttgart, 2015
                                    Version 2099.9 linked May 26 2017 16:03:21


 **********************************************************************************************************************************
 LABEL *                                                                                 
  64 bit serial version                                                                  DATE: 08-Jun-17          TIME: 15:09:37  
 **********************************************************************************************************************************

 SHA1:             b4a5b34a9e711420743f49e6833241d17c61fb3c
 **********************************************************************************************************************************
 SETTING GEOMTYP        =    XYZ

 Variable memory set to  500000000 words,  buffer space 

 ZSYMEL=NOSYM

 SETTING BASIS          =    STO-3G


 Recomputing integrals since basis changed


 Using spherical harmonics

 Library entry H      S STO-3G               selected for orbital group  1
 Library entry C      S STO-3G               selected for orbital group  2
 Library entry C      P STO-3G               selected for orbital group  2


 PROGRAM * SEWARD (Integral evaluation for generally contracted gaussian basis sets)     Author: Roland Lindh, 1990

 Geometry written to block  1 of record 700


 Point group  C1  



 ATOMIC COORDINATES

 NR  ATOM    CHARGE       X              Y              Z

   1  H       1.00   -2.974674584    0.639577807    0.000000000
   2  C       6.00   -0.935414432    0.380666431    0.000000000
   3  C       6.00    0.356345655   -0.112514293   -2.458798250
   4  C       6.00    0.356345655   -0.112514293    2.458798250
   5  H       1.00   -0.638538457    0.770082293   -4.046546140
   6  H       1.00   -0.638538457    0.770082293    4.046546140
   7  H       1.00    2.308791790    0.597077866   -2.449803153
   8  H       1.00    2.308791790    0.597077866    2.449803153
   9  H       1.00    0.485243874   -2.153834248   -2.889315655
  10  H       1.00    0.485243874   -2.153834248    2.889315655

 Bond lengths in Bohr (Angstrom)

 1-2  2.055630578  2-3  2.820914777  2-4  2.820914777  3-5  2.071162595  3-7  2.077413742
     ( 1.087792856)     ( 1.492763814)     ( 1.492763814)     ( 1.096012045)     ( 1.099320010)

  3- 9  2.090202656   4- 6  2.071162595   4- 8  2.077413742   4-10  2.090202656
       ( 1.106087612)       ( 1.096012045)       ( 1.099320010)       ( 1.106087612)

 Bond angles

  1-2-3  118.44375943   1-2-4  118.44375943   2-3-5  111.94558337   2-3-7  111.52358867

  2- 3- 9  112.24140213   2- 4- 6  111.94558337   2- 4- 8  111.52358867   2- 4-10  112.24140213

  3-2-4  121.29758064   5-3-7  108.01204745   5-3-9  106.73207413   6-4-8  108.01204745

  6- 4-10  106.73207413   7- 3- 9  106.05262855   8- 4-10  106.05262855

 NUCLEAR CHARGE:                   25
 NUMBER OF PRIMITIVE AOS:          66
 NUMBER OF SYMMETRY AOS:           66
 NUMBER OF CONTRACTIONS:           22   (  22A   )
 NUMBER OF CORE ORBITALS:           3   (   3A   )
 NUMBER OF VALENCE ORBITALS:       19   (  19A   )


 NUCLEAR REPULSION ENERGY   75.20704826


 Eigenvalues of metric

         1 0.213E+00 0.225E+00 0.288E+00 0.342E+00 0.359E+00 0.374E+00 0.380E+00 0.402E+00


 Contracted 2-electron integrals neglected if value below      1.0D-11
 AO integral compression algorithm  1   Integral accuracy      1.0D-11

     0.524 MB (compressed) written to integral file ( 89.6%)


 NUMBER OF SORTED TWO-ELECTRON INTEGRALS:      32131.     BUFFER LENGTH:  32768
 NUMBER OF SEGMENTS:   1  SEGMENT LENGTH:      32131      RECORD LENGTH: 524288

 Memory used in sort:       0.59 MW

 SORT1 READ       38209. AND WROTE       30689. INTEGRALS IN      1 RECORDS. CPU TIME:     0.00 SEC, REAL TIME:     0.01 SEC
 SORT2 READ       30689. AND WROTE       32131. INTEGRALS IN      2 RECORDS. CPU TIME:     0.01 SEC, REAL TIME:     0.01 SEC

 FILE SIZES:   FILE 1:    30.6 MBYTE,  FILE 4:     4.2 MBYTE,   TOTAL:     34.9 MBYTE

 OPERATOR DM      FOR CENTER  0  COORDINATES:    0.000000    0.000000    0.000000


 **********************************************************************************************************************************
 DATASETS  * FILE   NREC   LENGTH (MB)   RECORD NAMES
              1      19       30.27       500      610      700      900      950      970     1000      129      960     1100   
                                          VAR    BASINP    GEOM    SYMINP    ZMAT    AOBASIS   BASIS     P2S    ABASIS      S 
                                         1400     1410     1200     1210     1080     1600     1650     1300     1700   
                                           T        V       H0       H01     AOSYM     SMH    MOLCAS    ERIS     OPER   

 PROGRAMS   *        TOTAL       INT
 CPU TIMES  *         0.53      0.39
 REAL TIME  *         0.85 SEC
 DISK USED  *        35.29 MB      
 **********************************************************************************************************************************

 Density functional group MM06-L=M06LX+M06LC
 Functional: M06LX(Automatically generated (new) M06LX)                        Gradient terms: 2
 Functional: M06LC(Automatically generated (new) M06LC)                        Gradient terms: 2
 Use grid at  1800.2

 Functional: M06LX                     Factor:  1.0000
 Functional: M06LC                     Factor:  1.0000

 Generated new metagrid on record  1800.2 with target accuracy 1.0D-06 and 32470 points in CPU time    0.7
 Computed new grid on record 1800.1 in CPU time    0.8
   38486 words reserved for DFT integration

 PROGRAM * UKS-SCF (Unrestricted Kohn-Sham)     Authors: W. Meyer, H.-J. Werner, P.J. Knowles, 1993

 NUMBER OF ELECTRONS:      13+   12-    SPACE SYMMETRY=1    SPIN SYMMETRY: Doublet 
 CONVERGENCE THRESHOLDS:    1.00E-05 (Density)    1.00E-06 (Energy)
 MAX. NUMBER OF ITERATIONS:       60
 INTERPOLATION TYPE:            DIIS
 INTERPOLATION STEPS:              2 (START)      1 (STEP)
 LEVEL SHIFTS:                 -0.20 (ALPHA)  -0.20 (BETA) 



 Use fine grid record 1800.2 for energy threshold  1.0D-06
 Orbital guess generated from atomic densities. Full valence occupancy:   13

 Molecular orbital dump at record        2200.2

 Initial alpha occupation  13
 Initial beta  occupation  12

 ITERATION    DDIFF          GRAD             ENERGY        2-EL.EN.            DIPOLE MOMENTS         DIIS
    1      0.000D+00      0.000D+00      -116.85625735    271.084996    0.20284   -0.31169    0.00000    0
    2      0.594D-01      0.202D-01      -116.99722097    263.214789    0.06350   -0.08481    0.00000    1
    3      0.782D-02      0.347D-02      -117.00142085    264.134244    0.04974   -0.08380    0.00000    2
    4      0.174D-02      0.106D-02      -117.00224148    264.109284    0.04214   -0.07464    0.00000    3
    5      0.108D-02      0.555D-03      -117.00245814    264.110909    0.03607   -0.06643    0.00000    4
    6      0.217D-03      0.867D-04      -117.00246465    264.107789    0.03517   -0.06482    0.00000    5
    7      0.325D-04      0.163D-04      -117.00246483    264.107563    0.03534   -0.06468    0.00000    6
    8      0.811D-05      0.374D-05      -117.00246484    264.107638    0.03529   -0.06461    0.00000    6
    9      0.204D-05      0.771D-06      -117.00246484    264.107600    0.03531   -0.06461    0.00000    6

 Final alpha occupancy:  13
 Final beta  occupancy:  12

 !UKS STATE 1.1 Energy               -117.002464844152
 Nuclear energy                        75.20704826
 One-electron energy                 -305.39671109
 Two-electron energy                  132.05380001
 Density functional                   -18.86660202     M06LX=-18.03381496 M06LC= -0.83278706
 Virial quotient                       -1.01445372
 !UKS STATE 1.1 Dipole moment           0.03530804    -0.06460628     0.00000000
 Dipole moment /Debye                   0.08973821    -0.16420202     0.00000000

 Orbital energies for positive spin:

         1.1          2.1          3.1          4.1          5.1          6.1          7.1          8.1          9.1         10.1
     -9.867405    -9.867402    -9.839041    -0.704645    -0.620124    -0.501893    -0.380540    -0.356661    -0.337761    -0.317352

        11.1         12.1         13.1         14.1         15.1
     -0.280639    -0.274498    -0.082194     0.348569     0.383064

 Orbital energies for negative spin:

         1.1          2.1          3.1          4.1          5.1          6.1          7.1          8.1          9.1         10.1
     -9.868367    -9.868355    -9.824057    -0.684571    -0.619136    -0.473430    -0.372603    -0.340683    -0.332126    -0.312985

        11.1         12.1         13.1         14.1         15.1
     -0.275889    -0.267138     0.065767     0.344659     0.406976

 HOMO     13.1    -0.082194 =      -2.2366eV
 LUMO    -13.1     0.065767 =       1.7896eV
 LUMO-HOMO         0.147961 =       4.0262eV

 EXPECTATION VALUE OF S**2:             0.75663315

 Occupation number threshold for canonical orbitals:  1.999000 (occupied),  0.001000 (virtual)

 Number of pseudo-canonical orbitals per symmetry:   11
 Number of active natural orbitals per symmetry:      3

 Natural orbitals saved to record    2200.2 (Orbital set 3)

 Orbital spaces for UNO-CAS (Min. occupation: 0.020  Max. occupation: 1.980):

 Closed:       12
 Active:        1


 **********************************************************************************************************************************
 DATASETS  * FILE   NREC   LENGTH (MB)   RECORD NAMES
              1      20       31.31       500      610      700      900      950      970     1000      129      960     1100   
                                          VAR    BASINP    GEOM    SYMINP    ZMAT    AOBASIS   BASIS     P2S    ABASIS      S 
                                         1400     1410     1200     1210     1080     1600     1650     1300     1700     1800   
                                           T        V       H0       H01     AOSYM     SMH    MOLCAS    ERIS     OPER     GRID   

              2       5        2.93       700     1000      520     1800     2200   
                                         GEOM     BASIS   MCVARS    GRID      UKS  

 PROGRAMS   *        TOTAL       UKS       INT
 CPU TIMES  *         5.51      4.97      0.39
 REAL TIME  *         6.19 SEC
 DISK USED  *        35.29 MB      
 **********************************************************************************************************************************


 PROGRAM * Intrinsic Basis Bonding Analysis (IBBA)          Author: G. Knizia

 Molecular orbitals read from record     2200.2  Type=UKS/ALPHA (state 1.1)
 Fock matrix read from record            2200.2  Type=UKS/TOTAL (state 1.1)
 Orbital energies read from record       2200.2  Type=UKS/ALPHA (state 1.1)
 Density matrix read from record         2200.2  Type=UKS/CHARGE (state 1.1)

 Number of core orbitals:           3 (   3 )
 Number of closed-shell orbitals:   9 (   9 )
 Number of active  orbitals:        1 (   1 )

 Basis set MINAO-AUTO-PP generated.      Number of basis functions:   22 

 Polarized AO type:                A = (O Ot + (1-O)(1-Ot)) P12
 Orthogonalization method:         Symmetric (Loewdin)
 Localization functional:          L = sum[A,i] <i|n_A|i>^4 -> max

 Localization group 1:  12 orbitals, occupancy  2.000
 Iterative localization: IB/PM,    7 iter; Final gradient 0.18E-08

 Bond order analysis:       [THRPRINT= 0.020]

   CEN ATOM   CEN ATOM     WIBERG.BO      RENORM.BO
     1   H  -   2   C       0.946853       0.970162

     2   C  -   3   C       1.150759       1.490343
     2   C  -   4   C       1.150759       1.490343
     2   C  -   1   H       0.946853       0.970162
     2   C  -   9   H       0.059334       0.281719
     2   C  -  10   H       0.059334       0.281719

     3   C  -   2   C       1.150759       1.490343
     3   C  -   5   H       0.954744       0.988790
     3   C  -   7   H       0.940003       0.989458
     3   C  -   9   H       0.883478       0.997064

     4   C  -   2   C       1.150759       1.490343
     4   C  -   6   H       0.954744       0.988790
     4   C  -   8   H       0.940003       0.989458
     4   C  -  10   H       0.883478       0.997064

     5   H  -   3   C       0.954744       0.988790

     6   H  -   4   C       0.954744       0.988790

     7   H  -   3   C       0.940003       0.989458

     8   H  -   4   C       0.940003       0.989458

     9   H  -   3   C       0.883478       0.997064
     9   H  -   2   C       0.059334       0.281719

    10   H  -   4   C       0.883478       0.997064
    10   H  -   2   C       0.059334       0.281719


 Valency analysis:

   CEN ATOM   TOT.VALENCE
     1   H       0.973428
     2   C       3.420817
     3   C       3.949617
     4   C       3.949617
     5   H       0.980584
     6   H       0.980584
     7   H       0.978189
     8   H       0.978189
     9   H       0.963225
    10   H       0.963225
 Localization group 2:   1 orbitals, occupancy  1.000
 Iterative localization: IB/PM,    1 iter; Final gradient 0.00E+00

 Bond order analysis:       [THRPRINT= 0.020]

   CEN ATOM   CEN ATOM     WIBERG.BO      RENORM.BO

     2   C  -   9   H       0.091805       0.500000
     2   C  -  10   H       0.091805       0.500000
     2   C  -   7   H       0.029914       0.500000
     2   C  -   8   H       0.029914       0.500000





     7   H  -   2   C       0.029914       0.500000

     8   H  -   2   C       0.029914       0.500000

     9   H  -   2   C       0.091805       0.500000

    10   H  -   2   C       0.091805       0.500000


 Valency analysis:

   CEN ATOM   TOT.VALENCE
     1   H       0.001408
     2   C       0.305556
     3   C       0.023126
     4   C       0.023126
     5   H       0.014055
     6   H       0.014055
     7   H       0.036169
     8   H       0.036169
     9   H       0.106694
    10   H       0.106694

 Total charge composition:

   CEN ATOM         s          p       ELECTRONS ->P.CHARGE
     1   H       0.83769                 0.83769    0.16231
     2   C       3.06618    3.22589      6.29207   -0.29207
     3   C       2.99316    3.33871      6.33187   -0.33187
     4   C       2.99316    3.33871      6.33187   -0.33187
     5   H       0.86774                 0.86774    0.13226
     6   H       0.86774                 0.86774    0.13226
     7   H       0.87074                 0.87074    0.12926
     8   H       0.87074                 0.87074    0.12926
     9   H       0.86478                 0.86478    0.13522
    10   H       0.86478                 0.86478    0.13522

 Total charge composition, AO contributions:

   CEN ATOM SHL      SPHERICAL COMPONENTS
     1   H  1s       0.83769

     2   C  1s       1.99279
     2   C  2s       1.07339
     2   C  2p       1.13027    1.06569    1.02993

     3   C  1s       1.99151
     3   C  2s       1.00166
     3   C  2p       1.13379    1.13519    1.06973

     4   C  1s       1.99151
     4   C  2s       1.00166
     4   C  2p       1.13379    1.13519    1.06973

     5   H  1s       0.86774

     6   H  1s       0.86774

     7   H  1s       0.87074

     8   H  1s       0.87074

     9   H  1s       0.86478

    10   H  1s       0.86478

 Active orbital charges:

   CEN ATOM         s          p       ELECTRONS ->SPIN.DEN
     1   H       0.00070                 0.00070    0.00070
     2   C       0.00602    0.80579      0.81180    0.81180
     3   C       0.00010    0.01160      0.01170    0.01170
     4   C       0.00010    0.01160      0.01170    0.01170
     5   H       0.00708                 0.00708    0.00708
     6   H       0.00708                 0.00708    0.00708
     7   H       0.01842                 0.01842    0.01842
     8   H       0.01842                 0.01842    0.01842
     9   H       0.05654                 0.05654    0.05654
    10   H       0.05654                 0.05654    0.05654

 Active orbital charges, AO contributions:

   CEN ATOM SHL      SPHERICAL COMPONENTS
     1   H  1s       0.00070

     2   C  1s       0.00001
     2   C  2s       0.00601
     2   C  2p       0.03423    0.77156    0.00000

     3   C  1s       0.00000
     3   C  2s       0.00009
     3   C  2p       0.00011    0.01123    0.00026

     4   C  1s       0.00000
     4   C  2s       0.00009
     4   C  2p       0.00011    0.01123    0.00026

     5   H  1s       0.00708

     6   H  1s       0.00708

     7   H  1s       0.01842

     8   H  1s       0.01842

     9   H  1s       0.05654

    10   H  1s       0.05654

 Summary of localized orbital composition:   [THRPRINT= 0.020]

   ORB  GRP  ORB.ENERGY      CENTERS/CHARGES
     1   1    -9.755012      C  4   2.000
     2   1    -9.755012      C  3   2.000
     3   1    -9.727204      C  2   2.000
     4   1    -0.512436      C  2   1.023   C  4   0.970
     5   1    -0.512436      C  2   1.023   C  3   0.970
     6   1    -0.446844      C  2   1.161   H  1   0.827
     7   1    -0.432391      C  4   1.101   H 10   0.802   C  2   0.091
     8   1    -0.432391      C  3   1.101   H  9   0.802   C  2   0.091
     9   1    -0.429117      C  4   1.125   H  6   0.855   (other: 0.020)
    10   1    -0.429117      C  3   1.125   H  5   0.855   (other: 0.020)
    11   1    -0.427731      C  3   1.117   H  7   0.847   C  2   0.030
    12   1    -0.427731      C  4   1.117   H  8   0.847   C  2   0.030
    13   2    -0.009576      C  2   0.812   H  9   0.057   H 10   0.057   (other: 0.075)

 Localized orbitals saved to record      2200.2  (orbital set 4)


 **********************************************************************************************************************************
 DATASETS  * FILE   NREC   LENGTH (MB)   RECORD NAMES
              1      20       31.31       500      610      700      900      950      970     1000      129      960     1100   
                                          VAR    BASINP    GEOM    SYMINP    ZMAT    AOBASIS   BASIS     P2S    ABASIS      S 
                                         1400     1410     1200     1210     1080     1600     1650     1300     1700     1800   
                                           T        V       H0       H01     AOSYM     SMH    MOLCAS    ERIS     OPER     GRID   

              2       5        2.94       700     1000      520     1800     2200   
                                         GEOM     BASIS   MCVARS    GRID      UKS  

 PROGRAMS   *        TOTAL      IBBA       UKS       INT
 CPU TIMES  *         5.53      0.02      4.97      0.39
 REAL TIME  *         6.27 SEC
 DISK USED  *        35.29 MB      
 **********************************************************************************************************************************
 Molecular orbitals read from record     2200.2  Type=UKS/LOCAL(IBO)  
 Occupation numbers read from record     2200.2  Type=UKS/LOCAL(IBO)  
 Orbital energies read from record       2200.2  Type=UKS/LOCAL(IBO)  
 Redundancy group numbers read from rec  2200.2  Type=UKS/BETA (state 1.1)

 IBBA/STO-3G energy=      0.000000000000

        UKS-SCF 
   -117.00246484
 **********************************************************************************************************************************
 Molpro calculation terminated
