
 Primary working directories    : /tmp/sb13343
 Secondary working directories  : /tmp/sb13343
 Wavefunction directory         : /panfs/panasas01/chem/sb13343/wfu/
 Main file repository           : /tmp/sb13343/

 SHA1      : b4a5b34a9e711420743f49e6833241d17c61fb3c
 NAME      : 2099.9.b4a5b34
 ARCHNAME  : linux/x86_64_openmp
 FC        : /cm/shared/languages/GCC-6.1/bin/gfortran
 BLASLIB   : -lblas
 id        : simonbennie

 Nodes     nprocs
 node32-018    1

 Using customized tuning parameters: mindgm=1; mindgv=20; mindgc=4; mindgr=1; noblas=0; minvec=7
 default implementation of scratch files=df  

 memory,500,m
 geomtyp=xyz
 nosym
 noorient
 geometry={
 H         -1.57413        0.33845        0.00000
 C         -0.49500        0.20144        0.00000
 C          0.18857       -0.05954       -1.30114
 C          0.18857       -0.05954        1.30114
 H         -0.33790        0.40751       -2.14134
 H         -0.33790        0.40751        2.14134
 H          1.22176        0.31596       -1.29638
 H          1.22176        0.31596        1.29638
 H          0.25678       -1.13976       -1.52896
 H          0.25678       -1.13976        1.52896
 }
 basis={ default,svp }
 {ks,M11-L,direct;wf,25,1,1}
 {ibba,bonds=1}

 Variables initialized (895), CPU time= 0.00 sec
 Commands  initialized (725), CPU time= 0.02 sec, 591 directives.
 Default parameters read. Elapsed time= 0.08 sec

 Checking input...
 Passed
1


                                         ***  PROGRAM SYSTEM MOLPRO  ***
                                       Copyright, TTI GmbH Stuttgart, 2015
                                    Version 2099.9 linked May 26 2017 16:03:21


 **********************************************************************************************************************************
 LABEL *                                                                                 
  64 bit serial version                                                                  DATE: 08-Jun-17          TIME: 15:29:53  
 **********************************************************************************************************************************

 SHA1:             b4a5b34a9e711420743f49e6833241d17c61fb3c
 **********************************************************************************************************************************
 SETTING GEOMTYP        =    XYZ

 Variable memory set to  500000000 words,  buffer space 

 ZSYMEL=NOSYM

 SETTING BASIS          =    SVP


 Recomputing integrals since basis changed


 Using spherical harmonics

 Library entry H      S def2-SVP             selected for orbital group  1
 Library entry H      P def2-SVP             selected for orbital group  1
 Library entry C      S def2-SVP             selected for orbital group  2
 Library entry C      P def2-SVP             selected for orbital group  2
 Library entry C      D def2-SVP             selected for orbital group  2


 PROGRAM * SEWARD (Integral evaluation for generally contracted gaussian basis sets)     Author: Roland Lindh, 1990

 Geometry written to block  1 of record 700


 Point group  C1  



 ATOMIC COORDINATES

 NR  ATOM    CHARGE       X              Y              Z

   1  H       1.00   -2.974674584    0.639577807    0.000000000
   2  C       6.00   -0.935414432    0.380666431    0.000000000
   3  C       6.00    0.356345655   -0.112514293   -2.458798250
   4  C       6.00    0.356345655   -0.112514293    2.458798250
   5  H       1.00   -0.638538457    0.770082293   -4.046546140
   6  H       1.00   -0.638538457    0.770082293    4.046546140
   7  H       1.00    2.308791790    0.597077866   -2.449803153
   8  H       1.00    2.308791790    0.597077866    2.449803153
   9  H       1.00    0.485243874   -2.153834248   -2.889315655
  10  H       1.00    0.485243874   -2.153834248    2.889315655

 Bond lengths in Bohr (Angstrom)

 1-2  2.055630578  2-3  2.820914777  2-4  2.820914777  3-5  2.071162595  3-7  2.077413742
     ( 1.087792856)     ( 1.492763814)     ( 1.492763814)     ( 1.096012045)     ( 1.099320010)

  3- 9  2.090202656   4- 6  2.071162595   4- 8  2.077413742   4-10  2.090202656
       ( 1.106087612)       ( 1.096012045)       ( 1.099320010)       ( 1.106087612)

 Bond angles

  1-2-3  118.44375943   1-2-4  118.44375943   2-3-5  111.94558337   2-3-7  111.52358867

  2- 3- 9  112.24140213   2- 4- 6  111.94558337   2- 4- 8  111.52358867   2- 4-10  112.24140213

  3-2-4  121.29758064   5-3-7  108.01204745   5-3-9  106.73207413   6-4-8  108.01204745

  6- 4-10  106.73207413   7- 3- 9  106.05262855   8- 4-10  106.05262855

 NUCLEAR CHARGE:                   25
 NUMBER OF PRIMITIVE AOS:         124
 NUMBER OF SYMMETRY AOS:          121
 NUMBER OF CONTRACTIONS:           77   (  77A   )
 NUMBER OF CORE ORBITALS:           3   (   3A   )
 NUMBER OF VALENCE ORBITALS:       19   (  19A   )


 NUCLEAR REPULSION ENERGY   75.20704826


 Eigenvalues of metric

         1 0.402E-02 0.537E-02 0.229E-01 0.265E-01 0.266E-01 0.379E-01 0.436E-01 0.492E-01


 Contracted 2-electron integrals neglected if value below      1.0D-11
 AO integral compression algorithm  1   Integral accuracy      1.0D-11

     19.923 MB (compressed) written to integral file ( 49.4%)


 NUMBER OF SORTED TWO-ELECTRON INTEGRALS:    4510506.     BUFFER LENGTH:  32768
 NUMBER OF SEGMENTS:   1  SEGMENT LENGTH:    4510506      RECORD LENGTH: 524288

 Memory used in sort:       5.07 MW

 SORT1 READ     5074366. AND WROTE     4244391. INTEGRALS IN     13 RECORDS. CPU TIME:     0.05 SEC, REAL TIME:     0.12 SEC
 SORT2 READ     4244391. AND WROTE     4510506. INTEGRALS IN     76 RECORDS. CPU TIME:     0.15 SEC, REAL TIME:     0.18 SEC

 FILE SIZES:   FILE 1:    50.3 MBYTE,  FILE 4:    54.6 MBYTE,   TOTAL:    104.8 MBYTE

 OPERATOR DM      FOR CENTER  0  COORDINATES:    0.000000    0.000000    0.000000


 **********************************************************************************************************************************
 DATASETS  * FILE   NREC   LENGTH (MB)   RECORD NAMES
              1      19       47.44       500      610      700      900      950      970     1000      129      960     1100   
                                          VAR    BASINP    GEOM    SYMINP    ZMAT    AOBASIS   BASIS     P2S    ABASIS      S 
                                         1400     1410     1200     1210     1080     1600     1650     1300     1700   
                                           T        V       H0       H01     AOSYM     SMH    MOLCAS    ERIS     OPER   

 PROGRAMS   *        TOTAL       INT
 CPU TIMES  *         1.06      0.92
 REAL TIME  *         1.47 SEC
 DISK USED  *       105.25 MB      
 **********************************************************************************************************************************

 Density functional group M11-L=XC-M11-L
 Functional: XC-M11-L(via MFM 1.6)                                             Gradient terms: 1
 Use grid at  1800.2

 Functional: XC-M11-L                  Factor:  1.0000

 Generated new metagrid on record  1800.2 with target accuracy 1.0D-06 and 32470 points in CPU time    0.7
 Computed new grid on record 1800.1 in CPU time    0.8
   65184 words reserved for DFT integration

 PROGRAM * RKS-SCF (Restricted open shell Kohn-Sham)     Authors: W. Meyer, H.-J. Werner, P.J. Knowles, 1993

 NUMBER OF ELECTRONS:      13+   12-    SPACE SYMMETRY=1    SPIN SYMMETRY: Doublet 
 CONVERGENCE THRESHOLDS:    1.00E-05 (Density)    1.00E-06 (Energy)
 MAX. NUMBER OF ITERATIONS:       60
 INTERPOLATION TYPE:            DIIS
 INTERPOLATION STEPS:              2 (START)      1 (STEP)
 LEVEL SHIFTS:                 -0.60 (CLOSED) -0.30 (OPEN) 



 Use fine grid record 1800.2 for energy threshold  1.0D-06
 Orbital guess generated from atomic densities. Full valence occupancy:   13

 Molecular orbital dump at record        2100.2

 Initial alpha occupancy:  13
 Initial beta  occupancy:  12
 Wave function symmetry:    1

 ITERATION    DDIFF          GRAD             ENERGY        2-EL.EN.            DIPOLE MOMENTS         DIIS   ORB.
    1      0.000D+00      0.000D+00      -118.17116275    271.796189    0.18087   -0.26087    0.00000    0    start
    2      0.000D+00      0.122D-01      -118.32373219    261.047151    0.02370   -0.08164   -0.00000    1    diag,B
    3      0.119D-01      0.336D-02      -118.33292545    262.816035    0.03822   -0.11011   -0.00000    2    diag,B
    4      0.324D-02      0.562D-03      -118.33362428    262.626375    0.02969   -0.09630   -0.00000    3    diag,B
    5      0.119D-02      0.248D-03      -118.33379961    262.598084    0.02928   -0.09440   -0.00000    4    diag,B
    6      0.721D-03      0.893D-04      -118.33382562    262.568842    0.02645   -0.09068   -0.00000    5    diag,B
    7      0.341D-03      0.200D-04      -118.33382712    262.567876    0.02648   -0.09050   -0.00000    6    fixocc
    8      0.838D-04      0.754D-05      -118.33382739    262.568201    0.02635   -0.09035   -0.00000    7    diag,B
    9      0.449D-04      0.215D-05      -118.33382742    262.568236    0.02633   -0.09035   -0.00000    8    diag,B
   10      0.127D-04      0.617D-06      -118.33382742    262.568252    0.02632   -0.09034   -0.00000    9    orth
   11      0.370D-05      0.133D-06      -118.33382742    262.568247    0.02631   -0.09034   -0.00000    0    orth

 Final alpha occupancy:  13
 Final beta  occupancy:  12

 !RKS STATE 1.1 Energy               -118.333827417665
 Nuclear energy                        75.20704826
 One-electron energy                 -306.01909701
 Two-electron energy                  131.28412326
 Density functional                   -18.80590193     XC-M11-L=-18.80590193
 Virial quotient                       -1.00812106
 !RKS STATE 1.1 Dipole moment           0.02631262    -0.09034054    -0.00000000
 Dipole moment /Debye                   0.06687563    -0.22960772    -0.00000000

 Orbital energies:

         1.1          2.1          3.1          4.1          5.1          6.1          7.1          8.1          9.1         10.1
    -10.364537   -10.359075   -10.359074    -0.744463    -0.660764    -0.527427    -0.418613    -0.386106    -0.381178    -0.353660

        11.1         12.1         13.1         14.1         15.1
     -0.331105    -0.318526    -0.155204     0.033377     0.058733

 HOMO     13.1    -0.155204 =      -4.2233eV
 LUMO     14.1     0.033377 =       0.9082eV
 LUMO-HOMO         0.188581 =       5.1316eV


 **********************************************************************************************************************************
 DATASETS  * FILE   NREC   LENGTH (MB)   RECORD NAMES
              1      20       48.47       500      610      700      900      950      970     1000      129      960     1100   
                                          VAR    BASINP    GEOM    SYMINP    ZMAT    AOBASIS   BASIS     P2S    ABASIS      S 
                                         1400     1410     1200     1210     1080     1600     1650     1300     1700     1800   
                                           T        V       H0       H01     AOSYM     SMH    MOLCAS    ERIS     OPER     GRID   

              2       5        3.08       700     1000      520     1800     2100   
                                         GEOM     BASIS   MCVARS    GRID      RKS  

 PROGRAMS   *        TOTAL        KS       INT
 CPU TIMES  *        19.65     18.58      0.92
 REAL TIME  *        20.57 SEC
 DISK USED  *       105.25 MB      
 **********************************************************************************************************************************


 PROGRAM * Intrinsic Basis Bonding Analysis (IBBA)          Author: G. Knizia

 Molecular orbitals read from record     2100.2  Type=RKS/CANONICAL (state 1.1)
 Fock matrix read from record            2100.2  Type=RKS/TOTAL (state 1.1)
 Orbital energies read from record       2100.2  Type=RKS/CANONICAL (state 1.1)
 Density matrix read from record         2100.2  Type=RKS/CHARGE (state 1.1)

 Number of core orbitals:           3 (   3 )
 Number of closed-shell orbitals:   9 (   9 )
 Number of active  orbitals:        1 (   1 )

 Basis set MINAO-AUTO-PP generated.      Number of basis functions:   22 

 Polarized AO type:                A = (O Ot + (1-O)(1-Ot)) P12
 Orthogonalization method:         Symmetric (Loewdin)
 Localization functional:          L = sum[A,i] <i|n_A|i>^4 -> max

 Localization group 1:  12 orbitals, occupancy  2.000
 Iterative localization: IB/PM,    7 iter; Final gradient 0.30E-08

 Bond order analysis:       [THRPRINT= 0.020]

   CEN ATOM   CEN ATOM     WIBERG.BO      RENORM.BO
     1   H  -   2   C       0.949960       0.961759

     2   C  -   3   C       1.105570       1.497724
     2   C  -   4   C       1.105570       1.497724
     2   C  -   1   H       0.949960       0.961759
     2   C  -   9   H       0.040504       0.307103
     2   C  -  10   H       0.040504       0.307103

     3   C  -   2   C       1.105570       1.497724
     3   C  -   5   H       0.954906       0.987178
     3   C  -   7   H       0.946224       0.986051
     3   C  -   9   H       0.916589       0.998103

     4   C  -   2   C       1.105570       1.497724
     4   C  -   6   H       0.954906       0.987178
     4   C  -   8   H       0.946224       0.986051
     4   C  -  10   H       0.916589       0.998103

     5   H  -   3   C       0.954906       0.987178

     6   H  -   4   C       0.954906       0.987178

     7   H  -   3   C       0.946224       0.986051

     8   H  -   4   C       0.946224       0.986051

     9   H  -   3   C       0.916589       0.998103
     9   H  -   2   C       0.040504       0.307103

    10   H  -   4   C       0.916589       0.998103
    10   H  -   2   C       0.040504       0.307103


 Valency analysis:

   CEN ATOM   TOT.VALENCE
     1   H       0.984206
     2   C       3.278806
     3   C       3.943168
     4   C       3.943168
     5   H       0.977891
     6   H       0.977891
     7   H       0.976969
     8   H       0.976969
     9   H       0.965476
    10   H       0.965476
 Localization group 2:   1 orbitals, occupancy  1.000
 Iterative localization: IB/PM,    1 iter; Final gradient 0.00E+00

 Bond order analysis:       [THRPRINT= 0.020]

   CEN ATOM   CEN ATOM     WIBERG.BO      RENORM.BO

     2   C  -   9   H       0.087589       0.500000
     2   C  -  10   H       0.087589       0.500000
     2   C  -   7   H       0.027441       0.500000
     2   C  -   8   H       0.027441       0.500000





     7   H  -   2   C       0.027441       0.500000

     8   H  -   2   C       0.027441       0.500000

     9   H  -   2   C       0.087589       0.500000

    10   H  -   2   C       0.087589       0.500000


 Valency analysis:

   CEN ATOM   TOT.VALENCE
     1   H       0.000980
     2   C       0.253854
     3   C       0.002704
     4   C       0.002704
     5   H       0.010727
     6   H       0.010727
     7   H       0.031732
     8   H       0.031732
     9   H       0.097648
    10   H       0.097648

 Total charge composition:

   CEN ATOM         s          p       ELECTRONS ->P.CHARGE
     1   H       0.87482                 0.87482    0.12518
     2   C       3.02555    3.09676      6.12231   -0.12231
     3   C       3.04944    3.36526      6.41470   -0.41470
     4   C       3.04944    3.36526      6.41470   -0.41470
     5   H       0.85670                 0.85670    0.14330
     6   H       0.85670                 0.85670    0.14330
     7   H       0.86437                 0.86437    0.13563
     8   H       0.86437                 0.86437    0.13563
     9   H       0.86567                 0.86567    0.13433
    10   H       0.86567                 0.86567    0.13433

 Total charge composition, AO contributions:

   CEN ATOM SHL      SPHERICAL COMPONENTS
     1   H  1s       0.87482

     2   C  1s       1.99040
     2   C  2s       1.03514
     2   C  2p       1.09067    1.00819    0.99789

     3   C  1s       1.98853
     3   C  2s       1.06091
     3   C  2p       1.13248    1.14340    1.08938

     4   C  1s       1.98853
     4   C  2s       1.06091
     4   C  2p       1.13248    1.14340    1.08938

     5   H  1s       0.85670

     6   H  1s       0.85670

     7   H  1s       0.86437

     8   H  1s       0.86437

     9   H  1s       0.86567

    10   H  1s       0.86567

 Active orbital charges:

   CEN ATOM         s          p       ELECTRONS ->SPIN.DEN
     1   H       0.00049                 0.00049    0.00049
     2   C       0.00974    0.84108      0.85082    0.85082
     3   C       0.00011    0.00124      0.00135    0.00135
     4   C       0.00011    0.00124      0.00135    0.00135
     5   H       0.00539                 0.00539    0.00539
     6   H       0.00539                 0.00539    0.00539
     7   H       0.01613                 0.01613    0.01613
     8   H       0.01613                 0.01613    0.01613
     9   H       0.05147                 0.05147    0.05147
    10   H       0.05147                 0.05147    0.05147

 Active orbital charges, AO contributions:

   CEN ATOM SHL      SPHERICAL COMPONENTS
     1   H  1s       0.00049

     2   C  1s       0.00002
     2   C  2s       0.00972
     2   C  2p       0.03353    0.80755    0.00000

     3   C  1s       0.00000
     3   C  2s       0.00011
     3   C  2p       0.00004    0.00109    0.00011

     4   C  1s       0.00000
     4   C  2s       0.00011
     4   C  2p       0.00004    0.00109    0.00011

     5   H  1s       0.00539

     6   H  1s       0.00539

     7   H  1s       0.01613

     8   H  1s       0.01613

     9   H  1s       0.05147

    10   H  1s       0.05147

 Summary of localized orbital composition:   [THRPRINT= 0.020]

   ORB  GRP  ORB.ENERGY      CENTERS/CHARGES
     1   1   -10.260757      C  2   2.000
     2   1   -10.235559      C  4   2.000
     3   1   -10.235559      C  3   2.000
     4   1    -0.585175      C  3   1.010   C  2   0.984
     5   1    -0.585175      C  4   1.010   C  2   0.984
     6   1    -0.487716      C  2   1.122   H  1   0.863
     7   1    -0.471387      C  3   1.130   H  9   0.812   C  2   0.057
     8   1    -0.471387      C  4   1.130   H 10   0.812   C  2   0.057
     9   1    -0.468228      C  4   1.130   H  8   0.843   C  2   0.021
    10   1    -0.468228      C  3   1.130   H  7   0.843   C  2   0.021
    11   1    -0.467680      C  4   1.136   H  6   0.846
    12   1    -0.467680      C  3   1.136   H  5   0.846
    13   2    -0.108200      C  2   0.851   H  9   0.051   H 10   0.051   (other: 0.046)

 Localized orbitals saved to record      2100.2  (orbital set 2)


 **********************************************************************************************************************************
 DATASETS  * FILE   NREC   LENGTH (MB)   RECORD NAMES
              1      20       48.47       500      610      700      900      950      970     1000      129      960     1100   
                                          VAR    BASINP    GEOM    SYMINP    ZMAT    AOBASIS   BASIS     P2S    ABASIS      S 
                                         1400     1410     1200     1210     1080     1600     1650     1300     1700     1800   
                                           T        V       H0       H01     AOSYM     SMH    MOLCAS    ERIS     OPER     GRID   

              2       5        3.13       700     1000      520     1800     2100   
                                         GEOM     BASIS   MCVARS    GRID      RKS  

 PROGRAMS   *        TOTAL      IBBA        KS       INT
 CPU TIMES  *        19.68      0.04     18.58      0.92
 REAL TIME  *        20.66 SEC
 DISK USED  *       105.25 MB      
 **********************************************************************************************************************************
 Molecular orbitals read from record     2100.2  Type=RKS/LOCAL(IBO)  
 Occupation numbers read from record     2100.2  Type=RKS/LOCAL(IBO)  
 Orbital energies read from record       2100.2  Type=RKS/LOCAL(IBO)  
 Redundancy group numbers read from rec  2100.2  Type=RKS/LOCAL(IBO)  

 IBBA/SVP energy=      0.000000000000

        KS-SCF  
   -118.33382742
 **********************************************************************************************************************************
 Molpro calculation terminated
