
 Primary working directories    : /tmp/sb13343
 Secondary working directories  : /tmp/sb13343
 Wavefunction directory         : /panfs/panasas01/chem/sb13343/wfu/
 Main file repository           : /tmp/sb13343/

 SHA1      : b4a5b34a9e711420743f49e6833241d17c61fb3c
 NAME      : 2099.9.b4a5b34
 ARCHNAME  : linux/x86_64_openmp
 FC        : /cm/shared/languages/GCC-6.1/bin/gfortran
 BLASLIB   : -lblas
 id        : simonbennie

 Nodes     nprocs
 node32-017    1

 Using customized tuning parameters: mindgm=1; mindgv=20; mindgc=4; mindgr=1; noblas=0; minvec=7
 default implementation of scratch files=df  

 memory,500,m
 geomtyp=xyz
 nosym
 noorient
 geometry={
 H         -1.57413        0.33845        0.00000
 C         -0.49500        0.20144        0.00000
 C          0.18857       -0.05954       -1.30114
 C          0.18857       -0.05954        1.30114
 H         -0.33790        0.40751       -2.14134
 H         -0.33790        0.40751        2.14134
 H          1.22176        0.31596       -1.29638
 H          1.22176        0.31596        1.29638
 H          0.25678       -1.13976       -1.52896
 H          0.25678       -1.13976        1.52896
 }
 basis={ default,sto-3g }
 {uks,B-VWN,direct;wf,25,1,1}
 {ibba,bonds=1}

 Variables initialized (895), CPU time= 0.00 sec
 Commands  initialized (725), CPU time= 0.02 sec, 591 directives.
 Default parameters read. Elapsed time= 0.07 sec

 Checking input...
 Passed
1


                                         ***  PROGRAM SYSTEM MOLPRO  ***
                                       Copyright, TTI GmbH Stuttgart, 2015
                                    Version 2099.9 linked May 26 2017 16:03:21


 **********************************************************************************************************************************
 LABEL *                                                                                 
  64 bit serial version                                                                  DATE: 08-Jun-17          TIME: 15:02:09  
 **********************************************************************************************************************************

 SHA1:             b4a5b34a9e711420743f49e6833241d17c61fb3c
 **********************************************************************************************************************************
 SETTING GEOMTYP        =    XYZ

 Variable memory set to  500000000 words,  buffer space 

 ZSYMEL=NOSYM

 SETTING BASIS          =    STO-3G


 Recomputing integrals since basis changed


 Using spherical harmonics

 Library entry H      S STO-3G               selected for orbital group  1
 Library entry C      S STO-3G               selected for orbital group  2
 Library entry C      P STO-3G               selected for orbital group  2


 PROGRAM * SEWARD (Integral evaluation for generally contracted gaussian basis sets)     Author: Roland Lindh, 1990

 Geometry written to block  1 of record 700


 Point group  C1  



 ATOMIC COORDINATES

 NR  ATOM    CHARGE       X              Y              Z

   1  H       1.00   -2.974674584    0.639577807    0.000000000
   2  C       6.00   -0.935414432    0.380666431    0.000000000
   3  C       6.00    0.356345655   -0.112514293   -2.458798250
   4  C       6.00    0.356345655   -0.112514293    2.458798250
   5  H       1.00   -0.638538457    0.770082293   -4.046546140
   6  H       1.00   -0.638538457    0.770082293    4.046546140
   7  H       1.00    2.308791790    0.597077866   -2.449803153
   8  H       1.00    2.308791790    0.597077866    2.449803153
   9  H       1.00    0.485243874   -2.153834248   -2.889315655
  10  H       1.00    0.485243874   -2.153834248    2.889315655

 Bond lengths in Bohr (Angstrom)

 1-2  2.055630578  2-3  2.820914777  2-4  2.820914777  3-5  2.071162595  3-7  2.077413742
     ( 1.087792856)     ( 1.492763814)     ( 1.492763814)     ( 1.096012045)     ( 1.099320010)

  3- 9  2.090202656   4- 6  2.071162595   4- 8  2.077413742   4-10  2.090202656
       ( 1.106087612)       ( 1.096012045)       ( 1.099320010)       ( 1.106087612)

 Bond angles

  1-2-3  118.44375943   1-2-4  118.44375943   2-3-5  111.94558337   2-3-7  111.52358867

  2- 3- 9  112.24140213   2- 4- 6  111.94558337   2- 4- 8  111.52358867   2- 4-10  112.24140213

  3-2-4  121.29758064   5-3-7  108.01204745   5-3-9  106.73207413   6-4-8  108.01204745

  6- 4-10  106.73207413   7- 3- 9  106.05262855   8- 4-10  106.05262855

 NUCLEAR CHARGE:                   25
 NUMBER OF PRIMITIVE AOS:          66
 NUMBER OF SYMMETRY AOS:           66
 NUMBER OF CONTRACTIONS:           22   (  22A   )
 NUMBER OF CORE ORBITALS:           3   (   3A   )
 NUMBER OF VALENCE ORBITALS:       19   (  19A   )


 NUCLEAR REPULSION ENERGY   75.20704826


 Eigenvalues of metric

         1 0.213E+00 0.225E+00 0.288E+00 0.342E+00 0.359E+00 0.374E+00 0.380E+00 0.402E+00


 Contracted 2-electron integrals neglected if value below      1.0D-11
 AO integral compression algorithm  1   Integral accuracy      1.0D-11

     0.524 MB (compressed) written to integral file ( 89.6%)


 NUMBER OF SORTED TWO-ELECTRON INTEGRALS:      32131.     BUFFER LENGTH:  32768
 NUMBER OF SEGMENTS:   1  SEGMENT LENGTH:      32131      RECORD LENGTH: 524288

 Memory used in sort:       0.59 MW

 SORT1 READ       38209. AND WROTE       30689. INTEGRALS IN      1 RECORDS. CPU TIME:     0.00 SEC, REAL TIME:     0.01 SEC
 SORT2 READ       30689. AND WROTE       32131. INTEGRALS IN      2 RECORDS. CPU TIME:     0.01 SEC, REAL TIME:     0.01 SEC

 FILE SIZES:   FILE 1:    30.6 MBYTE,  FILE 4:     4.2 MBYTE,   TOTAL:     34.9 MBYTE

 OPERATOR DM      FOR CENTER  0  COORDINATES:    0.000000    0.000000    0.000000


 **********************************************************************************************************************************
 DATASETS  * FILE   NREC   LENGTH (MB)   RECORD NAMES
              1      19       30.27       500      610      700      900      950      970     1000      129      960     1100   
                                          VAR    BASINP    GEOM    SYMINP    ZMAT    AOBASIS   BASIS     P2S    ABASIS      S 
                                         1400     1410     1200     1210     1080     1600     1650     1300     1700   
                                           T        V       H0       H01     AOSYM     SMH    MOLCAS    ERIS     OPER   

 PROGRAMS   *        TOTAL       INT
 CPU TIMES  *         0.53      0.39
 REAL TIME  *         0.85 SEC
 DISK USED  *        35.29 MB      
 **********************************************************************************************************************************

 Density functional group B-VWN=B88+VWN5
 Functional: B88(Automatically generated (new) B88)                            Gradient terms: 1
 Functional: VWN5(Automatically generated (new) VWN5)                          Gradient terms: 0
 Use grid at  1800.2

 Functional: B88                       Factor:  1.0000
 Functional: VWN5                      Factor:  1.0000

 Generated new metagrid on record  1800.2 with target accuracy 1.0D-06 and 32470 points in CPU time    0.7
 Computed new grid on record 1800.1 in CPU time    0.8
   21722 words reserved for DFT integration

 PROGRAM * UKS-SCF (Unrestricted Kohn-Sham)     Authors: W. Meyer, H.-J. Werner, P.J. Knowles, 1993

 NUMBER OF ELECTRONS:      13+   12-    SPACE SYMMETRY=1    SPIN SYMMETRY: Doublet 
 CONVERGENCE THRESHOLDS:    1.00E-05 (Density)    1.00E-06 (Energy)
 MAX. NUMBER OF ITERATIONS:       60
 INTERPOLATION TYPE:            DIIS
 INTERPOLATION STEPS:              2 (START)      1 (STEP)
 LEVEL SHIFTS:                 -0.20 (ALPHA)  -0.20 (BETA) 



 Use fine grid record 1800.2 for energy threshold  1.0D-06
 Orbital guess generated from atomic densities. Full valence occupancy:   13

 Molecular orbital dump at record        2200.2

 Initial alpha occupation  13
 Initial beta  occupation  12

 ITERATION    DDIFF          GRAD             ENERGY        2-EL.EN.            DIPOLE MOMENTS         DIIS
    1      0.000D+00      0.000D+00      -117.55999825    271.169205    0.20707   -0.31373    0.00000    0
    2      0.635D-01      0.210D-01      -117.70874209    262.758947    0.05785   -0.06923    0.00000    1
    3      0.104D-01      0.435D-02      -117.71472811    263.998185    0.04557   -0.07595    0.00000    2
    4      0.156D-02      0.823D-03      -117.71521722    263.975531    0.03836   -0.07134    0.00000    3
    5      0.957D-03      0.513D-03      -117.71539038    263.977898    0.03214   -0.06580    0.00000    4
    6      0.316D-03      0.110D-03      -117.71540136    263.975273    0.03141   -0.06498    0.00000    5
    7      0.345D-04      0.124D-04      -117.71540150    263.975098    0.03145   -0.06493    0.00000    6
    8      0.553D-05      0.252D-05      -117.71540150    263.975129    0.03142   -0.06493    0.00000    5
    9      0.970D-06      0.530D-06      -117.71540150    263.975082    0.03143   -0.06493    0.00000    5

 Final alpha occupancy:  13
 Final beta  occupancy:  12

 !UKS STATE 1.1 Energy               -117.715401502096
 Nuclear energy                        75.20704826
 One-electron energy                 -305.34101681
 Two-electron energy                  131.98754123
 Density functional                   -19.56897418     B88=-18.03313926 VWN5= -1.53583492
 Virial quotient                       -1.02152602
 !UKS STATE 1.1 Dipole moment           0.03142563    -0.06493139     0.00000000
 Dipole moment /Debye                   0.07987075    -0.16502831     0.00000000

 Orbital energies for positive spin:

         1.1          2.1          3.1          4.1          5.1          6.1          7.1          8.1          9.1         10.1
     -9.794411    -9.794409    -9.762770    -0.679492    -0.602273    -0.490433    -0.380645    -0.357876    -0.339998    -0.321918

        11.1         12.1         13.1         14.1         15.1
     -0.286620    -0.282012    -0.091237     0.311871     0.342694

 Orbital energies for negative spin:

         1.1          2.1          3.1          4.1          5.1          6.1          7.1          8.1          9.1         10.1
     -9.795233    -9.795226    -9.749681    -0.664543    -0.600903    -0.471541    -0.375909    -0.346894    -0.336086    -0.319085

        11.1         12.1         13.1         14.1         15.1
     -0.281540    -0.276991     0.015769     0.315690     0.365660

 HOMO     13.1    -0.091237 =      -2.4827eV
 LUMO    -13.1     0.015769 =       0.4291eV
 LUMO-HOMO         0.107006 =       2.9118eV

 EXPECTATION VALUE OF S**2:             0.75329304

 Occupation number threshold for canonical orbitals:  1.999000 (occupied),  0.001000 (virtual)

 Number of pseudo-canonical orbitals per symmetry:   12
 Number of active natural orbitals per symmetry:      1

 Natural orbitals saved to record    2200.2 (Orbital set 3)

 Orbital spaces for UNO-CAS (Min. occupation: 0.020  Max. occupation: 1.980):

 Closed:       12
 Active:        1


 **********************************************************************************************************************************
 DATASETS  * FILE   NREC   LENGTH (MB)   RECORD NAMES
              1      20       31.31       500      610      700      900      950      970     1000      129      960     1100   
                                          VAR    BASINP    GEOM    SYMINP    ZMAT    AOBASIS   BASIS     P2S    ABASIS      S 
                                         1400     1410     1200     1210     1080     1600     1650     1300     1700     1800   
                                           T        V       H0       H01     AOSYM     SMH    MOLCAS    ERIS     OPER     GRID   

              2       5        2.93       700     1000      520     1800     2200   
                                         GEOM     BASIS   MCVARS    GRID      UKS  

 PROGRAMS   *        TOTAL       UKS       INT
 CPU TIMES  *         2.78      2.25      0.39
 REAL TIME  *         3.18 SEC
 DISK USED  *        35.29 MB      
 **********************************************************************************************************************************


 PROGRAM * Intrinsic Basis Bonding Analysis (IBBA)          Author: G. Knizia

 Molecular orbitals read from record     2200.2  Type=UKS/ALPHA (state 1.1)
 Fock matrix read from record            2200.2  Type=UKS/TOTAL (state 1.1)
 Orbital energies read from record       2200.2  Type=UKS/ALPHA (state 1.1)
 Density matrix read from record         2200.2  Type=UKS/CHARGE (state 1.1)

 Number of core orbitals:           3 (   3 )
 Number of closed-shell orbitals:   9 (   9 )
 Number of active  orbitals:        1 (   1 )

 Basis set MINAO-AUTO-PP generated.      Number of basis functions:   22 

 Polarized AO type:                A = (O Ot + (1-O)(1-Ot)) P12
 Orthogonalization method:         Symmetric (Loewdin)
 Localization functional:          L = sum[A,i] <i|n_A|i>^4 -> max

 Localization group 1:  12 orbitals, occupancy  2.000
 Iterative localization: IB/PM,    7 iter; Final gradient 0.11E-08

 Bond order analysis:       [THRPRINT= 0.020]

   CEN ATOM   CEN ATOM     WIBERG.BO      RENORM.BO
     1   H  -   2   C       0.954784       0.971589

     2   C  -   3   C       1.136698       1.492083
     2   C  -   4   C       1.136698       1.492083
     2   C  -   1   H       0.954784       0.971589
     2   C  -   9   H       0.055488       0.287519
     2   C  -  10   H       0.055488       0.287519

     3   C  -   2   C       1.136698       1.492083
     3   C  -   5   H       0.956564       0.989714
     3   C  -   7   H       0.943427       0.990187
     3   C  -   9   H       0.893365       0.997419

     4   C  -   2   C       1.136698       1.492083
     4   C  -   6   H       0.956564       0.989714
     4   C  -   8   H       0.943427       0.990187
     4   C  -  10   H       0.893365       0.997419

     5   H  -   3   C       0.956564       0.989714

     6   H  -   4   C       0.956564       0.989714

     7   H  -   3   C       0.943427       0.990187

     8   H  -   4   C       0.943427       0.990187

     9   H  -   3   C       0.893365       0.997419
     9   H  -   2   C       0.055488       0.287519

    10   H  -   4   C       0.893365       0.997419
    10   H  -   2   C       0.055488       0.287519


 Valency analysis:

   CEN ATOM   TOT.VALENCE
     1   H       0.980037
     2   C       3.390003
     3   C       3.948624
     4   C       3.948624
     5   H       0.981264
     6   H       0.981264
     7   H       0.979378
     8   H       0.979378
     9   H       0.967154
    10   H       0.967154
 Localization group 2:   1 orbitals, occupancy  1.000
 Iterative localization: IB/PM,    1 iter; Final gradient 0.00E+00

 Bond order analysis:       [THRPRINT= 0.020]

   CEN ATOM   CEN ATOM     WIBERG.BO      RENORM.BO

     2   C  -   9   H       0.088851       0.500000
     2   C  -  10   H       0.088851       0.500000
     2   C  -   7   H       0.028504       0.500000
     2   C  -   8   H       0.028504       0.500000





     7   H  -   2   C       0.028504       0.500000

     8   H  -   2   C       0.028504       0.500000

     9   H  -   2   C       0.088851       0.500000

    10   H  -   2   C       0.088851       0.500000


 Valency analysis:

   CEN ATOM   TOT.VALENCE
     1   H       0.001195
     2   C       0.288889
     3   C       0.018852
     4   C       0.018852
     5   H       0.013121
     6   H       0.013121
     7   H       0.033958
     8   H       0.033958
     9   H       0.101911
    10   H       0.101911

 Total charge composition:

   CEN ATOM         s          p       ELECTRONS ->P.CHARGE
     1   H       0.85931                 0.85931    0.14069
     2   C       3.04413    3.18703      6.23116   -0.23116
     3   C       2.98490    3.35385      6.33875   -0.33875
     4   C       2.98490    3.35385      6.33875   -0.33875
     5   H       0.86972                 0.86972    0.13028
     6   H       0.86972                 0.86972    0.13028
     7   H       0.87368                 0.87368    0.12632
     8   H       0.87368                 0.87368    0.12632
     9   H       0.87262                 0.87262    0.12738
    10   H       0.87262                 0.87262    0.12738

 Total charge composition, AO contributions:

   CEN ATOM SHL      SPHERICAL COMPONENTS
     1   H  1s       0.85931

     2   C  1s       1.99301
     2   C  2s       1.05112
     2   C  2p       1.11390    1.05309    1.02005

     3   C  1s       1.99179
     3   C  2s       0.99311
     3   C  2p       1.13738    1.13530    1.08117

     4   C  1s       1.99179
     4   C  2s       0.99311
     4   C  2p       1.13738    1.13530    1.08117

     5   H  1s       0.86972

     6   H  1s       0.86972

     7   H  1s       0.87368

     8   H  1s       0.87368

     9   H  1s       0.87262

    10   H  1s       0.87262

 Active orbital charges:

   CEN ATOM         s          p       ELECTRONS ->SPIN.DEN
     1   H       0.00060                 0.00060    0.00060
     2   C       0.00642    0.81847      0.82489    0.82489
     3   C       0.00010    0.00941      0.00952    0.00952
     4   C       0.00010    0.00941      0.00952    0.00952
     5   H       0.00660                 0.00660    0.00660
     6   H       0.00660                 0.00660    0.00660
     7   H       0.01728                 0.01728    0.01728
     8   H       0.01728                 0.01728    0.01728
     9   H       0.05386                 0.05386    0.05386
    10   H       0.05386                 0.05386    0.05386

 Active orbital charges, AO contributions:

   CEN ATOM SHL      SPHERICAL COMPONENTS
     1   H  1s       0.00060

     2   C  1s       0.00001
     2   C  2s       0.00641
     2   C  2p       0.03431    0.78416    0.00000

     3   C  1s       0.00000
     3   C  2s       0.00010
     3   C  2p       0.00008    0.00912    0.00022

     4   C  1s       0.00000
     4   C  2s       0.00010
     4   C  2p       0.00008    0.00912    0.00022

     5   H  1s       0.00660

     6   H  1s       0.00660

     7   H  1s       0.01728

     8   H  1s       0.01728

     9   H  1s       0.05386

    10   H  1s       0.05386

 Summary of localized orbital composition:   [THRPRINT= 0.020]

   ORB  GRP  ORB.ENERGY      CENTERS/CHARGES
     1   1    -9.684338      C  4   2.000
     2   1    -9.684338      C  3   2.000
     3   1    -9.654719      C  2   2.000
     4   1    -0.503969      C  2   1.010   C  3   0.983
     5   1    -0.503969      C  2   1.010   C  4   0.983
     6   1    -0.445693      C  2   1.140   H  1   0.850
     7   1    -0.431117      C  4   1.100   H 10   0.813   C  2   0.082
     8   1    -0.431117      C  3   1.100   H  9   0.813   C  2   0.082
     9   1    -0.428603      C  4   1.124   H  6   0.857
    10   1    -0.428603      C  3   1.124   H  5   0.857
    11   1    -0.426897      C  3   1.116   H  7   0.851   C  2   0.027
    12   1    -0.426897      C  4   1.116   H  8   0.851   C  2   0.027
    13   2    -0.038473      C  2   0.825   H  9   0.054   H 10   0.054   (other: 0.067)

 Localized orbitals saved to record      2200.2  (orbital set 4)


 **********************************************************************************************************************************
 DATASETS  * FILE   NREC   LENGTH (MB)   RECORD NAMES
              1      20       31.31       500      610      700      900      950      970     1000      129      960     1100   
                                          VAR    BASINP    GEOM    SYMINP    ZMAT    AOBASIS   BASIS     P2S    ABASIS      S 
                                         1400     1410     1200     1210     1080     1600     1650     1300     1700     1800   
                                           T        V       H0       H01     AOSYM     SMH    MOLCAS    ERIS     OPER     GRID   

              2       5        2.94       700     1000      520     1800     2200   
                                         GEOM     BASIS   MCVARS    GRID      UKS  

 PROGRAMS   *        TOTAL      IBBA       UKS       INT
 CPU TIMES  *         2.81      0.03      2.25      0.39
 REAL TIME  *         3.26 SEC
 DISK USED  *        35.29 MB      
 **********************************************************************************************************************************
 Molecular orbitals read from record     2200.2  Type=UKS/LOCAL(IBO)  
 Occupation numbers read from record     2200.2  Type=UKS/LOCAL(IBO)  
 Orbital energies read from record       2200.2  Type=UKS/LOCAL(IBO)  
 Redundancy group numbers read from rec  2200.2  Type=UKS/BETA (state 1.1)

 IBBA/STO-3G energy=      0.000000000000

        UKS-SCF 
   -117.71540150
 **********************************************************************************************************************************
 Molpro calculation terminated
