
 Primary working directories    : /tmp/sb13343
 Secondary working directories  : /tmp/sb13343
 Wavefunction directory         : /panfs/panasas01/chem/sb13343/wfu/
 Main file repository           : /tmp/sb13343/

 SHA1      : b4a5b34a9e711420743f49e6833241d17c61fb3c
 NAME      : 2099.9.b4a5b34
 ARCHNAME  : linux/x86_64_openmp
 FC        : /cm/shared/languages/GCC-6.1/bin/gfortran
 BLASLIB   : -lblas
 id        : simonbennie

 Nodes     nprocs
 node32-018    1

 Using customized tuning parameters: mindgm=1; mindgv=20; mindgc=4; mindgr=1; noblas=0; minvec=7
 default implementation of scratch files=df  

 memory,500,m
 geomtyp=xyz
 nosym
 noorient
 geometry={
 H         -1.57413        0.33845        0.00000
 C         -0.49500        0.20144        0.00000
 C          0.18857       -0.05954       -1.30114
 C          0.18857       -0.05954        1.30114
 H         -0.33790        0.40751       -2.14134
 H         -0.33790        0.40751        2.14134
 H          1.22176        0.31596       -1.29638
 H          1.22176        0.31596        1.29638
 H          0.25678       -1.13976       -1.52896
 H          0.25678       -1.13976        1.52896
 }
 basis={ default,svp }
 {uks,MM06-2X,direct;wf,25,1,1}
 {ibba,bonds=1}

 Variables initialized (895), CPU time= 0.00 sec
 Commands  initialized (725), CPU time= 0.01 sec, 591 directives.
 Default parameters read. Elapsed time= 0.08 sec

 Checking input...
 Passed
1


                                         ***  PROGRAM SYSTEM MOLPRO  ***
                                       Copyright, TTI GmbH Stuttgart, 2015
                                    Version 2099.9 linked May 26 2017 16:03:21


 **********************************************************************************************************************************
 LABEL *                                                                                 
  64 bit serial version                                                                  DATE: 08-Jun-17          TIME: 15:30:26  
 **********************************************************************************************************************************

 SHA1:             b4a5b34a9e711420743f49e6833241d17c61fb3c
 **********************************************************************************************************************************
 SETTING GEOMTYP        =    XYZ

 Variable memory set to  500000000 words,  buffer space 

 ZSYMEL=NOSYM

 SETTING BASIS          =    SVP


 Recomputing integrals since basis changed


 Using spherical harmonics

 Library entry H      S def2-SVP             selected for orbital group  1
 Library entry H      P def2-SVP             selected for orbital group  1
 Library entry C      S def2-SVP             selected for orbital group  2
 Library entry C      P def2-SVP             selected for orbital group  2
 Library entry C      D def2-SVP             selected for orbital group  2


 PROGRAM * SEWARD (Integral evaluation for generally contracted gaussian basis sets)     Author: Roland Lindh, 1990

 Geometry written to block  1 of record 700


 Point group  C1  



 ATOMIC COORDINATES

 NR  ATOM    CHARGE       X              Y              Z

   1  H       1.00   -2.974674584    0.639577807    0.000000000
   2  C       6.00   -0.935414432    0.380666431    0.000000000
   3  C       6.00    0.356345655   -0.112514293   -2.458798250
   4  C       6.00    0.356345655   -0.112514293    2.458798250
   5  H       1.00   -0.638538457    0.770082293   -4.046546140
   6  H       1.00   -0.638538457    0.770082293    4.046546140
   7  H       1.00    2.308791790    0.597077866   -2.449803153
   8  H       1.00    2.308791790    0.597077866    2.449803153
   9  H       1.00    0.485243874   -2.153834248   -2.889315655
  10  H       1.00    0.485243874   -2.153834248    2.889315655

 Bond lengths in Bohr (Angstrom)

 1-2  2.055630578  2-3  2.820914777  2-4  2.820914777  3-5  2.071162595  3-7  2.077413742
     ( 1.087792856)     ( 1.492763814)     ( 1.492763814)     ( 1.096012045)     ( 1.099320010)

  3- 9  2.090202656   4- 6  2.071162595   4- 8  2.077413742   4-10  2.090202656
       ( 1.106087612)       ( 1.096012045)       ( 1.099320010)       ( 1.106087612)

 Bond angles

  1-2-3  118.44375943   1-2-4  118.44375943   2-3-5  111.94558337   2-3-7  111.52358867

  2- 3- 9  112.24140213   2- 4- 6  111.94558337   2- 4- 8  111.52358867   2- 4-10  112.24140213

  3-2-4  121.29758064   5-3-7  108.01204745   5-3-9  106.73207413   6-4-8  108.01204745

  6- 4-10  106.73207413   7- 3- 9  106.05262855   8- 4-10  106.05262855

 NUCLEAR CHARGE:                   25
 NUMBER OF PRIMITIVE AOS:         124
 NUMBER OF SYMMETRY AOS:          121
 NUMBER OF CONTRACTIONS:           77   (  77A   )
 NUMBER OF CORE ORBITALS:           3   (   3A   )
 NUMBER OF VALENCE ORBITALS:       19   (  19A   )


 NUCLEAR REPULSION ENERGY   75.20704826


 Eigenvalues of metric

         1 0.402E-02 0.537E-02 0.229E-01 0.265E-01 0.266E-01 0.379E-01 0.436E-01 0.492E-01


 Contracted 2-electron integrals neglected if value below      1.0D-11
 AO integral compression algorithm  1   Integral accuracy      1.0D-11

     19.923 MB (compressed) written to integral file ( 49.4%)


 NUMBER OF SORTED TWO-ELECTRON INTEGRALS:    4510506.     BUFFER LENGTH:  32768
 NUMBER OF SEGMENTS:   1  SEGMENT LENGTH:    4510506      RECORD LENGTH: 524288

 Memory used in sort:       5.07 MW

 SORT1 READ     5074366. AND WROTE     4244391. INTEGRALS IN     13 RECORDS. CPU TIME:     0.06 SEC, REAL TIME:     0.11 SEC
 SORT2 READ     4244391. AND WROTE     4510506. INTEGRALS IN     76 RECORDS. CPU TIME:     0.14 SEC, REAL TIME:     0.17 SEC

 FILE SIZES:   FILE 1:    50.3 MBYTE,  FILE 4:    54.6 MBYTE,   TOTAL:    104.8 MBYTE

 OPERATOR DM      FOR CENTER  0  COORDINATES:    0.000000    0.000000    0.000000


 **********************************************************************************************************************************
 DATASETS  * FILE   NREC   LENGTH (MB)   RECORD NAMES
              1      19       47.44       500      610      700      900      950      970     1000      129      960     1100   
                                          VAR    BASINP    GEOM    SYMINP    ZMAT    AOBASIS   BASIS     P2S    ABASIS      S 
                                         1400     1410     1200     1210     1080     1600     1650     1300     1700   
                                           T        V       H0       H01     AOSYM     SMH    MOLCAS    ERIS     OPER   

 PROGRAMS   *        TOTAL       INT
 CPU TIMES  *         1.03      0.89
 REAL TIME  *         1.45 SEC
 DISK USED  *       105.25 MB      
 **********************************************************************************************************************************

 Density functional group MM06-2X=M062XX+M062XC
 Functional: M062XX(Automatically generated (new) M062XX)                      Gradient terms: 2
 Functional: M062XC(Automatically generated (new) M062XC)                      Gradient terms: 2
 Use grid at  1800.2


 Exact exchange will be calculated, factor:  0.5400

 Functional: M062XX                    Factor:  0.4600
 Functional: M062XC                    Factor:  1.0000

 Generated new metagrid on record  1800.2 with target accuracy 1.0D-06 and 32470 points in CPU time    0.7
 Computed new grid on record 1800.1 in CPU time    0.8
  123858 words reserved for DFT integration

 PROGRAM * UKS-SCF (Unrestricted Kohn-Sham)     Authors: W. Meyer, H.-J. Werner, P.J. Knowles, 1993

 NUMBER OF ELECTRONS:      13+   12-    SPACE SYMMETRY=1    SPIN SYMMETRY: Doublet 
 CONVERGENCE THRESHOLDS:    1.00E-05 (Density)    1.00E-06 (Energy)
 MAX. NUMBER OF ITERATIONS:       60
 INTERPOLATION TYPE:            DIIS
 INTERPOLATION STEPS:              2 (START)      1 (STEP)
 LEVEL SHIFTS:                 -0.20 (ALPHA)  -0.20 (BETA) 



 Use fine grid record 1800.2 for energy threshold  1.0D-06
 Orbital guess generated from atomic densities. Full valence occupancy:   13

 Molecular orbital dump at record        2200.2

 Initial alpha occupation  13
 Initial beta  occupation  12

 ITERATION    DDIFF          GRAD             ENERGY        2-EL.EN.            DIPOLE MOMENTS         DIIS
    1      0.000D+00      0.000D+00      -113.87406528    243.736788    0.18433   -0.24415    0.00000    0
    2      0.472D-02      0.279D-02      -113.90227591    239.907095    0.08464   -0.14207   -0.00000    1
    3      0.139D-02      0.932D-03      -113.90529604    240.519903    0.05921   -0.12663   -0.00000    2
    4      0.123D-02      0.398D-03      -113.90661538    240.427308    0.03295   -0.10492   -0.00000    3
    5      0.517D-03      0.151D-03      -113.90681710    240.406660    0.02409   -0.09648   -0.00000    4
    6      0.192D-03      0.539D-04      -113.90684783    240.406187    0.02257   -0.09396   -0.00000    5
    7      0.550D-04      0.137D-04      -113.90684975    240.405744    0.02196   -0.09303   -0.00000    6
    8      0.133D-04      0.356D-05      -113.90684984    240.406755    0.02215   -0.09310   -0.00000    7
    9      0.663D-05      0.144D-05      -113.90684986    240.406537    0.02222   -0.09312   -0.00000    7
   10      0.333D-05      0.484D-06      -113.90684986    240.406577    0.02225   -0.09312   -0.00000    7

 Final alpha occupancy:  13
 Final beta  occupancy:  12

 !UKS STATE 1.1 Energy               -113.906849861968
 Nuclear energy                        75.20704826
 One-electron energy                 -304.76211558
 Two-electron energy                  120.20328858
 Density functional                    -4.55507112     M062XX=-8.10175710 M062XC=-0.82826285
 Virial quotient                       -0.98905504
 !UKS STATE 1.1 Dipole moment           0.02224510    -0.09312357    -0.00000000
 Dipole moment /Debye                   0.05653771    -0.23668101    -0.00000000

 Orbital energies for positive spin:

         1.1          2.1          3.1          4.1          5.1          6.1          7.1          8.1          9.1         10.1
    -10.156876   -10.153669   -10.153623    -0.797682    -0.699120    -0.566366    -0.453625    -0.427884    -0.404534    -0.376320

        11.1         12.1         13.1         14.1         15.1
     -0.343694    -0.333677    -0.158448     0.149525     0.183162

 Orbital energies for negative spin:

         1.1          2.1          3.1          4.1          5.1          6.1          7.1          8.1          9.1         10.1
    -10.154085   -10.154041   -10.152130    -0.782133    -0.695658    -0.546996    -0.446912    -0.406884    -0.397189    -0.367800

        11.1         12.1         13.1         14.1         15.1
     -0.339949    -0.328462     0.064836     0.144444     0.183518

 HOMO     13.1    -0.158448 =      -4.3116eV
 LUMO    -13.1     0.064836 =       1.7643eV
 LUMO-HOMO         0.223284 =       6.0759eV

 EXPECTATION VALUE OF S**2:             0.75275396

 Occupation number threshold for canonical orbitals:  1.999000 (occupied),  0.001000 (virtual)

 Number of pseudo-canonical orbitals per symmetry:   12
 Number of active natural orbitals per symmetry:      1

 Natural orbitals saved to record    2200.2 (Orbital set 3)

 Orbital spaces for UNO-CAS (Min. occupation: 0.020  Max. occupation: 1.980):

 Closed:       12
 Active:        1


 **********************************************************************************************************************************
 DATASETS  * FILE   NREC   LENGTH (MB)   RECORD NAMES
              1      20       48.47       500      610      700      900      950      970     1000      129      960     1100   
                                          VAR    BASINP    GEOM    SYMINP    ZMAT    AOBASIS   BASIS     P2S    ABASIS      S 
                                         1400     1410     1200     1210     1080     1600     1650     1300     1700     1800   
                                           T        V       H0       H01     AOSYM     SMH    MOLCAS    ERIS     OPER     GRID   

              2       5        3.16       700     1000      520     1800     2200   
                                         GEOM     BASIS   MCVARS    GRID      UKS  

 PROGRAMS   *        TOTAL       UKS       INT
 CPU TIMES  *        27.25     26.22      0.89
 REAL TIME  *        27.77 SEC
 DISK USED  *       105.25 MB      
 **********************************************************************************************************************************


 PROGRAM * Intrinsic Basis Bonding Analysis (IBBA)          Author: G. Knizia

 Molecular orbitals read from record     2200.2  Type=UKS/ALPHA (state 1.1)
 Fock matrix read from record            2200.2  Type=UKS/TOTAL (state 1.1)
 Orbital energies read from record       2200.2  Type=UKS/ALPHA (state 1.1)
 Density matrix read from record         2200.2  Type=UKS/CHARGE (state 1.1)

 Number of core orbitals:           3 (   3 )
 Number of closed-shell orbitals:   9 (   9 )
 Number of active  orbitals:        1 (   1 )

 Basis set MINAO-AUTO-PP generated.      Number of basis functions:   22 

 Polarized AO type:                A = (O Ot + (1-O)(1-Ot)) P12
 Orthogonalization method:         Symmetric (Loewdin)
 Localization functional:          L = sum[A,i] <i|n_A|i>^4 -> max

 Localization group 1:  12 orbitals, occupancy  2.000
 Iterative localization: IB/PM,    8 iter; Final gradient 0.11E-08

 Bond order analysis:       [THRPRINT= 0.020]

   CEN ATOM   CEN ATOM     WIBERG.BO      RENORM.BO
     1   H  -   2   C       0.952878       0.968155

     2   C  -   3   C       1.183852       1.483046
     2   C  -   4   C       1.183852       1.483046
     2   C  -   1   H       0.952878       0.968155
     2   C  -   9   H       0.072134       0.266464
     2   C  -  10   H       0.072134       0.266464
     2   C  -   7   H       0.023826       0.080276
     2   C  -   8   H       0.023826       0.080276

     3   C  -   2   C       1.183852       1.483046
     3   C  -   5   H       0.952223       0.988247
     3   C  -   7   H       0.932198       0.986728
     3   C  -   9   H       0.862229       0.996155

     4   C  -   2   C       1.183852       1.483046
     4   C  -   6   H       0.952223       0.988247
     4   C  -   8   H       0.932198       0.986728
     4   C  -  10   H       0.862229       0.996155

     5   H  -   3   C       0.952223       0.988247

     6   H  -   4   C       0.952223       0.988247

     7   H  -   3   C       0.932198       0.986728
     7   H  -   2   C       0.023826       0.080276

     8   H  -   4   C       0.932198       0.986728
     8   H  -   2   C       0.023826       0.080276

     9   H  -   3   C       0.862229       0.996155
     9   H  -   2   C       0.072134       0.266464

    10   H  -   4   C       0.862229       0.996155
    10   H  -   2   C       0.072134       0.266464


 Valency analysis:

   CEN ATOM   TOT.VALENCE
     1   H       0.983653
     2   C       3.532605
     3   C       3.958567
     4   C       3.958567
     5   H       0.983647
     6   H       0.983647
     7   H       0.981241
     8   H       0.981241
     9   H       0.963977
    10   H       0.963977
 Localization group 2:   1 orbitals, occupancy  1.000
 Iterative localization: IB/PM,    1 iter; Final gradient 0.00E+00

 Bond order analysis:       [THRPRINT= 0.020]

   CEN ATOM   CEN ATOM     WIBERG.BO      RENORM.BO

     2   C  -   9   H       0.108312       0.500000
     2   C  -  10   H       0.108312       0.500000
     2   C  -   7   H       0.034630       0.500000
     2   C  -   8   H       0.034630       0.500000





     7   H  -   2   C       0.034630       0.500000

     8   H  -   2   C       0.034630       0.500000

     9   H  -   2   C       0.108312       0.500000

    10   H  -   2   C       0.108312       0.500000


 Valency analysis:

   CEN ATOM   TOT.VALENCE
     1   H       0.001686
     2   C       0.347184
     3   C       0.023712
     4   C       0.023712
     5   H       0.014525
     6   H       0.014525
     7   H       0.043607
     8   H       0.043607
     9   H       0.129772
    10   H       0.129772

 Total charge composition:

   CEN ATOM         s          p       ELECTRONS ->P.CHARGE
     1   H       0.87299                 0.87299    0.12701
     2   C       3.00405    3.25284      6.25690   -0.25690
     3   C       2.96676    3.32357      6.29033   -0.29033
     4   C       2.96676    3.32357      6.29033   -0.29033
     5   H       0.87944                 0.87944    0.12056
     6   H       0.87944                 0.87944    0.12056
     7   H       0.88534                 0.88534    0.11466
     8   H       0.88534                 0.88534    0.11466
     9   H       0.87995                 0.87995    0.12005
    10   H       0.87995                 0.87995    0.12005

 Total charge composition, AO contributions:

   CEN ATOM SHL      SPHERICAL COMPONENTS
     1   H  1s       0.87299

     2   C  1s       1.99349
     2   C  2s       1.01056
     2   C  2p       1.11831    1.10385    1.03068

     3   C  1s       1.99225
     3   C  2s       0.97451
     3   C  2p       1.12678    1.11192    1.08488

     4   C  1s       1.99225
     4   C  2s       0.97451
     4   C  2p       1.12678    1.11192    1.08488

     5   H  1s       0.87944

     6   H  1s       0.87944

     7   H  1s       0.88534

     8   H  1s       0.88534

     9   H  1s       0.87995

    10   H  1s       0.87995

 Active orbital charges:

   CEN ATOM         s          p       ELECTRONS ->SPIN.DEN
     1   H       0.00084                 0.00084    0.00084
     2   C       0.00565    0.77077      0.77642    0.77642
     3   C       0.00014    0.01186      0.01200    0.01200
     4   C       0.00014    0.01186      0.01200    0.01200
     5   H       0.00732                 0.00732    0.00732
     6   H       0.00732                 0.00732    0.00732
     7   H       0.02230                 0.02230    0.02230
     8   H       0.02230                 0.02230    0.02230
     9   H       0.06975                 0.06975    0.06975
    10   H       0.06975                 0.06975    0.06975

 Active orbital charges, AO contributions:

   CEN ATOM SHL      SPHERICAL COMPONENTS
     1   H  1s       0.00084

     2   C  1s       0.00001
     2   C  2s       0.00564
     2   C  2p       0.03154    0.73923    0.00000

     3   C  1s       0.00000
     3   C  2s       0.00014
     3   C  2p       0.00008    0.01171    0.00007

     4   C  1s       0.00000
     4   C  2s       0.00014
     4   C  2p       0.00008    0.01171    0.00007

     5   H  1s       0.00732

     6   H  1s       0.00732

     7   H  1s       0.02230

     8   H  1s       0.02230

     9   H  1s       0.06975

    10   H  1s       0.06975

 Summary of localized orbital composition:   [THRPRINT= 0.020]

   ORB  GRP  ORB.ENERGY      CENTERS/CHARGES
     1   1   -10.055640      C  2   2.000
     2   1   -10.043930      C  4   2.000
     3   1   -10.043930      C  3   2.000
     4   1    -0.604811      C  2   1.004   C  4   0.988
     5   1    -0.604811      C  2   1.004   C  3   0.988
     6   1    -0.510734      C  2   1.125   H  1   0.861
     7   1    -0.494754      C  4   1.074   H 10   0.802   C  2   0.116
     8   1    -0.494754      C  3   1.074   H  9   0.802   C  2   0.116
     9   1    -0.490740      C  3   1.098   H  7   0.856   C  2   0.039
    10   1    -0.490740      C  4   1.098   H  8   0.856   C  2   0.039
    11   1    -0.489548      C  4   1.110   H  6   0.865   (other: 0.025)
    12   1    -0.489548      C  3   1.110   H  5   0.865   (other: 0.025)
    13   2    -0.046075      C  2   0.776   H  9   0.070   H 10   0.070   H  7   0.022   H  8   0.022   (other: 0.039)

 Localized orbitals saved to record      2200.2  (orbital set 4)


 **********************************************************************************************************************************
 DATASETS  * FILE   NREC   LENGTH (MB)   RECORD NAMES
              1      20       48.47       500      610      700      900      950      970     1000      129      960     1100   
                                          VAR    BASINP    GEOM    SYMINP    ZMAT    AOBASIS   BASIS     P2S    ABASIS      S 
                                         1400     1410     1200     1210     1080     1600     1650     1300     1700     1800   
                                           T        V       H0       H01     AOSYM     SMH    MOLCAS    ERIS     OPER     GRID   

              2       5        3.21       700     1000      520     1800     2200   
                                         GEOM     BASIS   MCVARS    GRID      UKS  

 PROGRAMS   *        TOTAL      IBBA       UKS       INT
 CPU TIMES  *        27.28      0.03     26.22      0.89
 REAL TIME  *        27.86 SEC
 DISK USED  *       105.25 MB      
 **********************************************************************************************************************************
 Molecular orbitals read from record     2200.2  Type=UKS/LOCAL(IBO)  
 Occupation numbers read from record     2200.2  Type=UKS/LOCAL(IBO)  
 Orbital energies read from record       2200.2  Type=UKS/LOCAL(IBO)  
 Redundancy group numbers read from rec  2200.2  Type=UKS/BETA (state 1.1)

 IBBA/SVP energy=      0.000000000000

        UKS-SCF 
   -113.90684986
 **********************************************************************************************************************************
 Molpro calculation terminated
