
 Primary working directories    : /tmp/sb13343
 Secondary working directories  : /tmp/sb13343
 Wavefunction directory         : /panfs/panasas01/chem/sb13343/wfu/
 Main file repository           : /tmp/sb13343/

 SHA1      : b4a5b34a9e711420743f49e6833241d17c61fb3c
 NAME      : 2099.9.b4a5b34
 ARCHNAME  : linux/x86_64_openmp
 FC        : /cm/shared/languages/GCC-6.1/bin/gfortran
 BLASLIB   : -lblas
 id        : simonbennie

 Nodes     nprocs
 node32-018    1

 Using customized tuning parameters: mindgm=1; mindgv=20; mindgc=4; mindgr=1; noblas=0; minvec=7
 default implementation of scratch files=df  

 memory,500,m
 geomtyp=xyz
 nosym
 noorient
 geometry={
 H         -1.57413        0.33845        0.00000
 C         -0.49500        0.20144        0.00000
 C          0.18857       -0.05954       -1.30114
 C          0.18857       -0.05954        1.30114
 H         -0.33790        0.40751       -2.14134
 H         -0.33790        0.40751        2.14134
 H          1.22176        0.31596       -1.29638
 H          1.22176        0.31596        1.29638
 H          0.25678       -1.13976       -1.52896
 H          0.25678       -1.13976        1.52896
 }
 basis={ default,svp }
 {ks,M06-2X,direct;wf,25,1,1}
 {ibba,bonds=1}

 Variables initialized (895), CPU time= 0.00 sec
 Commands  initialized (725), CPU time= 0.01 sec, 591 directives.
 Default parameters read. Elapsed time= 0.09 sec

 Checking input...
 Passed
1


                                         ***  PROGRAM SYSTEM MOLPRO  ***
                                       Copyright, TTI GmbH Stuttgart, 2015
                                    Version 2099.9 linked May 26 2017 16:03:21


 **********************************************************************************************************************************
 LABEL *                                                                                 
  64 bit serial version                                                                  DATE: 08-Jun-17          TIME: 15:33:05  
 **********************************************************************************************************************************

 SHA1:             b4a5b34a9e711420743f49e6833241d17c61fb3c
 **********************************************************************************************************************************
 SETTING GEOMTYP        =    XYZ

 Variable memory set to  500000000 words,  buffer space 

 ZSYMEL=NOSYM

 SETTING BASIS          =    SVP


 Recomputing integrals since basis changed


 Using spherical harmonics

 Library entry H      S def2-SVP             selected for orbital group  1
 Library entry H      P def2-SVP             selected for orbital group  1
 Library entry C      S def2-SVP             selected for orbital group  2
 Library entry C      P def2-SVP             selected for orbital group  2
 Library entry C      D def2-SVP             selected for orbital group  2


 PROGRAM * SEWARD (Integral evaluation for generally contracted gaussian basis sets)     Author: Roland Lindh, 1990

 Geometry written to block  1 of record 700


 Point group  C1  



 ATOMIC COORDINATES

 NR  ATOM    CHARGE       X              Y              Z

   1  H       1.00   -2.974674584    0.639577807    0.000000000
   2  C       6.00   -0.935414432    0.380666431    0.000000000
   3  C       6.00    0.356345655   -0.112514293   -2.458798250
   4  C       6.00    0.356345655   -0.112514293    2.458798250
   5  H       1.00   -0.638538457    0.770082293   -4.046546140
   6  H       1.00   -0.638538457    0.770082293    4.046546140
   7  H       1.00    2.308791790    0.597077866   -2.449803153
   8  H       1.00    2.308791790    0.597077866    2.449803153
   9  H       1.00    0.485243874   -2.153834248   -2.889315655
  10  H       1.00    0.485243874   -2.153834248    2.889315655

 Bond lengths in Bohr (Angstrom)

 1-2  2.055630578  2-3  2.820914777  2-4  2.820914777  3-5  2.071162595  3-7  2.077413742
     ( 1.087792856)     ( 1.492763814)     ( 1.492763814)     ( 1.096012045)     ( 1.099320010)

  3- 9  2.090202656   4- 6  2.071162595   4- 8  2.077413742   4-10  2.090202656
       ( 1.106087612)       ( 1.096012045)       ( 1.099320010)       ( 1.106087612)

 Bond angles

  1-2-3  118.44375943   1-2-4  118.44375943   2-3-5  111.94558337   2-3-7  111.52358867

  2- 3- 9  112.24140213   2- 4- 6  111.94558337   2- 4- 8  111.52358867   2- 4-10  112.24140213

  3-2-4  121.29758064   5-3-7  108.01204745   5-3-9  106.73207413   6-4-8  108.01204745

  6- 4-10  106.73207413   7- 3- 9  106.05262855   8- 4-10  106.05262855

 NUCLEAR CHARGE:                   25
 NUMBER OF PRIMITIVE AOS:         124
 NUMBER OF SYMMETRY AOS:          121
 NUMBER OF CONTRACTIONS:           77   (  77A   )
 NUMBER OF CORE ORBITALS:           3   (   3A   )
 NUMBER OF VALENCE ORBITALS:       19   (  19A   )


 NUCLEAR REPULSION ENERGY   75.20704826


 Eigenvalues of metric

         1 0.402E-02 0.537E-02 0.229E-01 0.265E-01 0.266E-01 0.379E-01 0.436E-01 0.492E-01


 Contracted 2-electron integrals neglected if value below      1.0D-11
 AO integral compression algorithm  1   Integral accuracy      1.0D-11

     19.923 MB (compressed) written to integral file ( 49.4%)


 NUMBER OF SORTED TWO-ELECTRON INTEGRALS:    4510506.     BUFFER LENGTH:  32768
 NUMBER OF SEGMENTS:   1  SEGMENT LENGTH:    4510506      RECORD LENGTH: 524288

 Memory used in sort:       5.07 MW

 SORT1 READ     5074366. AND WROTE     4244391. INTEGRALS IN     13 RECORDS. CPU TIME:     0.06 SEC, REAL TIME:     0.12 SEC
 SORT2 READ     4244391. AND WROTE     4510506. INTEGRALS IN     76 RECORDS. CPU TIME:     0.13 SEC, REAL TIME:     0.18 SEC

 FILE SIZES:   FILE 1:    50.3 MBYTE,  FILE 4:    54.6 MBYTE,   TOTAL:    104.8 MBYTE

 OPERATOR DM      FOR CENTER  0  COORDINATES:    0.000000    0.000000    0.000000


 **********************************************************************************************************************************
 DATASETS  * FILE   NREC   LENGTH (MB)   RECORD NAMES
              1      19       47.44       500      610      700      900      950      970     1000      129      960     1100   
                                          VAR    BASINP    GEOM    SYMINP    ZMAT    AOBASIS   BASIS     P2S    ABASIS      S 
                                         1400     1410     1200     1210     1080     1600     1650     1300     1700   
                                           T        V       H0       H01     AOSYM     SMH    MOLCAS    ERIS     OPER   

 PROGRAMS   *        TOTAL       INT
 CPU TIMES  *         1.01      0.86
 REAL TIME  *         1.52 SEC
 DISK USED  *       105.25 MB      
 **********************************************************************************************************************************

 Density functional group M06-2X=XC-M06-2X
 Functional: XC-M06-2X(via MFM 1.6)                                            Gradient terms: 1
 Use grid at  1800.2


 Exact exchange will be calculated, factor:  0.5400

 Functional: XC-M06-2X                 Factor:  1.0000

 Generated new metagrid on record  1800.2 with target accuracy 1.0D-06 and 32470 points in CPU time    0.7
 Computed new grid on record 1800.1 in CPU time    0.8
   65184 words reserved for DFT integration

 PROGRAM * RKS-SCF (Restricted open shell Kohn-Sham)     Authors: W. Meyer, H.-J. Werner, P.J. Knowles, 1993

 NUMBER OF ELECTRONS:      13+   12-    SPACE SYMMETRY=1    SPIN SYMMETRY: Doublet 
 CONVERGENCE THRESHOLDS:    1.00E-05 (Density)    1.00E-06 (Energy)
 MAX. NUMBER OF ITERATIONS:       60
 INTERPOLATION TYPE:            DIIS
 INTERPOLATION STEPS:              2 (START)      1 (STEP)
 LEVEL SHIFTS:                 -0.60 (CLOSED) -0.30 (OPEN) 



 Use fine grid record 1800.2 for energy threshold  1.0D-06
 Orbital guess generated from atomic densities. Full valence occupancy:   13

 Molecular orbital dump at record        2100.2

 Initial alpha occupancy:  13
 Initial beta  occupancy:  12
 Wave function symmetry:    1

 ITERATION    DDIFF          GRAD             ENERGY        2-EL.EN.            DIPOLE MOMENTS         DIIS   ORB.
    1      0.000D+00      0.000D+00      -118.23922873    248.656788    0.21251   -0.26340    0.00000    0    start
    2      0.000D+00      0.788D-02      -118.30281466    242.883585    0.07687   -0.12572   -0.00000    1    diag,B
    3      0.731D-02      0.184D-02      -118.30671520    243.529070    0.05569   -0.11801   -0.00000    2    diag,B
    4      0.171D-02      0.649D-03      -118.30815870    243.428938    0.03336   -0.09904   -0.00000    3    diag,B
    5      0.135D-02      0.193D-03      -118.30832028    243.414116    0.02898   -0.09386   -0.00000    4    diag,B
    6      0.574D-03      0.516D-04      -118.30833217    243.407239    0.02837   -0.09230   -0.00000    5    diag,B
    7      0.174D-03      0.170D-04      -118.30833355    243.406717    0.02862   -0.09204   -0.00000    6    fixocc
    8      0.578D-04      0.541D-05      -118.30833373    243.406655    0.02871   -0.09193   -0.00000    7    diag,B
    9      0.207D-04      0.174D-05      -118.30833375    243.406736    0.02874   -0.09191   -0.00000    8    diag,B
   10      0.946D-05      0.493D-06      -118.30833375    243.406747    0.02875   -0.09190   -0.00000    0    orth

 Final alpha occupancy:  13
 Final beta  occupancy:  12

 !RKS STATE 1.1 Energy               -118.308333748854
 Nuclear energy                        75.20704826
 One-electron energy                 -306.18057258
 Two-electron energy                  121.70337352
 Density functional                    -9.03818295     XC-M06-2X=-9.03818295
 Virial quotient                       -1.01269261
 !RKS STATE 1.1 Dipole moment           0.02874592    -0.09190157    -0.00000000
 Dipole moment /Debye                   0.07306005    -0.23357519    -0.00000000

 Orbital energies:

         1.1          2.1          3.1          4.1          5.1          6.1          7.1          8.1          9.1         10.1
    -10.547306   -10.543951   -10.543927    -0.856694    -0.768794    -0.629195    -0.515393    -0.479680    -0.468510    -0.442492

        11.1         12.1         13.1         14.1         15.1
     -0.411747    -0.403177    -0.237624     0.110060     0.139383

 HOMO     13.1    -0.237624 =      -6.4661eV
 LUMO     14.1     0.110060 =       2.9949eV
 LUMO-HOMO         0.347684 =       9.4610eV


 **********************************************************************************************************************************
 DATASETS  * FILE   NREC   LENGTH (MB)   RECORD NAMES
              1      20       48.47       500      610      700      900      950      970     1000      129      960     1100   
                                          VAR    BASINP    GEOM    SYMINP    ZMAT    AOBASIS   BASIS     P2S    ABASIS      S 
                                         1400     1410     1200     1210     1080     1600     1650     1300     1700     1800   
                                           T        V       H0       H01     AOSYM     SMH    MOLCAS    ERIS     OPER     GRID   

              2       5        3.08       700     1000      520     1800     2100   
                                         GEOM     BASIS   MCVARS    GRID      RKS  

 PROGRAMS   *        TOTAL        KS       INT
 CPU TIMES  *        18.23     17.21      0.86
 REAL TIME  *        18.85 SEC
 DISK USED  *       105.25 MB      
 **********************************************************************************************************************************


 PROGRAM * Intrinsic Basis Bonding Analysis (IBBA)          Author: G. Knizia

 Molecular orbitals read from record     2100.2  Type=RKS/CANONICAL (state 1.1)
 Fock matrix read from record            2100.2  Type=RKS/TOTAL (state 1.1)
 Orbital energies read from record       2100.2  Type=RKS/CANONICAL (state 1.1)
 Density matrix read from record         2100.2  Type=RKS/CHARGE (state 1.1)

 Number of core orbitals:           3 (   3 )
 Number of closed-shell orbitals:   9 (   9 )
 Number of active  orbitals:        1 (   1 )

 Basis set MINAO-AUTO-PP generated.      Number of basis functions:   22 

 Polarized AO type:                A = (O Ot + (1-O)(1-Ot)) P12
 Orthogonalization method:         Symmetric (Loewdin)
 Localization functional:          L = sum[A,i] <i|n_A|i>^4 -> max

 Localization group 1:  12 orbitals, occupancy  2.000
 Iterative localization: IB/PM,    7 iter; Final gradient 0.98E-09

 Bond order analysis:       [THRPRINT= 0.020]

   CEN ATOM   CEN ATOM     WIBERG.BO      RENORM.BO
     1   H  -   2   C       0.956536       0.970806

     2   C  -   4   C       1.085027       1.496028
     2   C  -   3   C       1.085027       1.496028
     2   C  -   1   H       0.956536       0.970806
     2   C  -   9   H       0.035277       0.309863
     2   C  -  10   H       0.035277       0.309863

     3   C  -   2   C       1.085027       1.496028
     3   C  -   5   H       0.958413       0.989835
     3   C  -   7   H       0.951568       0.989113
     3   C  -   9   H       0.926922       0.998563

     4   C  -   2   C       1.085027       1.496028
     4   C  -   6   H       0.958413       0.989835
     4   C  -   8   H       0.951568       0.989113
     4   C  -  10   H       0.926922       0.998563

     5   H  -   3   C       0.958413       0.989835

     6   H  -   4   C       0.958413       0.989835

     7   H  -   3   C       0.951568       0.989113

     8   H  -   4   C       0.951568       0.989113

     9   H  -   3   C       0.926922       0.998563
     9   H  -   2   C       0.035277       0.309863

    10   H  -   4   C       0.926922       0.998563
    10   H  -   2   C       0.035277       0.309863


 Valency analysis:

   CEN ATOM   TOT.VALENCE
     1   H       0.984045
     2   C       3.230955
     3   C       3.938724
     4   C       3.938724
     5   H       0.979604
     6   H       0.979604
     7   H       0.979063
     8   H       0.979063
     9   H       0.970962
    10   H       0.970962
 Localization group 2:   1 orbitals, occupancy  1.000
 Iterative localization: IB/PM,    1 iter; Final gradient 0.00E+00

 Bond order analysis:       [THRPRINT= 0.020]

   CEN ATOM   CEN ATOM     WIBERG.BO      RENORM.BO

     2   C  -   9   H       0.072052       0.500000
     2   C  -  10   H       0.072052       0.500000
     2   C  -   7   H       0.022497       0.500000
     2   C  -   8   H       0.022497       0.500000





     7   H  -   2   C       0.022497       0.500000

     8   H  -   2   C       0.022497       0.500000

     9   H  -   2   C       0.072052       0.500000

    10   H  -   2   C       0.072052       0.500000


 Valency analysis:

   CEN ATOM   TOT.VALENCE
     1   H       0.000729
     2   C       0.209867
     3   C       0.002833
     4   C       0.002833
     5   H       0.008551
     6   H       0.008551
     7   H       0.025213
     8   H       0.025213
     9   H       0.078450
    10   H       0.078450

 Total charge composition:

   CEN ATOM         s          p       ELECTRONS ->P.CHARGE
     1   H       0.87405                 0.87405    0.12595
     2   C       2.99742    3.13180      6.12922   -0.12922
     3   C       3.00329    3.39503      6.39832   -0.39832
     4   C       3.00329    3.39503      6.39832   -0.39832
     5   H       0.86148                 0.86148    0.13852
     6   H       0.86148                 0.86148    0.13852
     7   H       0.86807                 0.86807    0.13193
     8   H       0.86807                 0.86807    0.13193
     9   H       0.87049                 0.87049    0.12951
    10   H       0.87049                 0.87049    0.12951

 Total charge composition, AO contributions:

   CEN ATOM SHL      SPHERICAL COMPONENTS
     1   H  1s       0.87405

     2   C  1s       1.99206
     2   C  2s       1.00537
     2   C  2p       1.10826    1.01272    1.01082

     3   C  1s       1.99037
     3   C  2s       1.01292
     3   C  2p       1.14398    1.15252    1.09853

     4   C  1s       1.99037
     4   C  2s       1.01292
     4   C  2p       1.14398    1.15252    1.09853

     5   H  1s       0.86148

     6   H  1s       0.86148

     7   H  1s       0.86807

     8   H  1s       0.86807

     9   H  1s       0.87049

    10   H  1s       0.87049

 Active orbital charges:

   CEN ATOM         s          p       ELECTRONS ->SPIN.DEN
     1   H       0.00036                 0.00036    0.00036
     2   C       0.00935    0.87153      0.88088    0.88088
     3   C       0.00010    0.00132      0.00142    0.00142
     4   C       0.00010    0.00132      0.00142    0.00142
     5   H       0.00429                 0.00429    0.00429
     6   H       0.00429                 0.00429    0.00429
     7   H       0.01277                 0.01277    0.01277
     8   H       0.01277                 0.01277    0.01277
     9   H       0.04090                 0.04090    0.04090
    10   H       0.04090                 0.04090    0.04090

 Active orbital charges, AO contributions:

   CEN ATOM SHL      SPHERICAL COMPONENTS
     1   H  1s       0.00036

     2   C  1s       0.00001
     2   C  2s       0.00934
     2   C  2p       0.03509    0.83644    0.00000

     3   C  1s       0.00000
     3   C  2s       0.00010
     3   C  2p       0.00001    0.00123    0.00008

     4   C  1s       0.00000
     4   C  2s       0.00010
     4   C  2p       0.00001    0.00123    0.00008

     5   H  1s       0.00429

     6   H  1s       0.00429

     7   H  1s       0.01277

     8   H  1s       0.01277

     9   H  1s       0.04090

    10   H  1s       0.04090

 Summary of localized orbital composition:   [THRPRINT= 0.020]

   ORB  GRP  ORB.ENERGY      CENTERS/CHARGES
     1   1   -10.445127      C  2   2.000
     2   1   -10.425194      C  4   2.000
     3   1   -10.425194      C  3   2.000
     4   1    -0.672897      C  3   1.006   C  2   0.987
     5   1    -0.672897      C  4   1.006   C  2   0.987
     6   1    -0.585151      C  2   1.124   H  1   0.864
     7   1    -0.565311      C  3   1.124   H  9   0.827   C  2   0.047
     8   1    -0.565311      C  4   1.124   H 10   0.827   C  2   0.047
     9   1    -0.563628      C  3   1.127   H  7   0.850   (other: 0.022)
    10   1    -0.563628      C  4   1.127   H  8   0.850   (other: 0.022)
    11   1    -0.563263      C  3   1.133   H  5   0.852
    12   1    -0.563263      C  4   1.133   H  6   0.852
    13   2    -0.105951      C  2   0.881   H  9   0.041   H 10   0.041   (other: 0.037)

 Localized orbitals saved to record      2100.2  (orbital set 2)


 **********************************************************************************************************************************
 DATASETS  * FILE   NREC   LENGTH (MB)   RECORD NAMES
              1      20       48.47       500      610      700      900      950      970     1000      129      960     1100   
                                          VAR    BASINP    GEOM    SYMINP    ZMAT    AOBASIS   BASIS     P2S    ABASIS      S 
                                         1400     1410     1200     1210     1080     1600     1650     1300     1700     1800   
                                           T        V       H0       H01     AOSYM     SMH    MOLCAS    ERIS     OPER     GRID   

              2       5        3.13       700     1000      520     1800     2100   
                                         GEOM     BASIS   MCVARS    GRID      RKS  

 PROGRAMS   *        TOTAL      IBBA        KS       INT
 CPU TIMES  *        18.25      0.03     17.21      0.86
 REAL TIME  *        18.96 SEC
 DISK USED  *       105.25 MB      
 **********************************************************************************************************************************
 Molecular orbitals read from record     2100.2  Type=RKS/LOCAL(IBO)  
 Occupation numbers read from record     2100.2  Type=RKS/LOCAL(IBO)  
 Orbital energies read from record       2100.2  Type=RKS/LOCAL(IBO)  
 Redundancy group numbers read from rec  2100.2  Type=RKS/LOCAL(IBO)  

 IBBA/SVP energy=      0.000000000000

        KS-SCF  
   -118.30833375
 **********************************************************************************************************************************
 Molpro calculation terminated
