
 Primary working directories    : /tmp/sb13343
 Secondary working directories  : /tmp/sb13343
 Wavefunction directory         : /panfs/panasas01/chem/sb13343/wfu/
 Main file repository           : /tmp/sb13343/

 SHA1      : b4a5b34a9e711420743f49e6833241d17c61fb3c
 NAME      : 2099.9.b4a5b34
 ARCHNAME  : linux/x86_64_openmp
 FC        : /cm/shared/languages/GCC-6.1/bin/gfortran
 BLASLIB   : -lblas
 id        : simonbennie

 Nodes     nprocs
 node32-017    1

 Using customized tuning parameters: mindgm=1; mindgv=20; mindgc=4; mindgr=1; noblas=0; minvec=7
 default implementation of scratch files=df  

 memory,500,m
 geomtyp=xyz
 nosym
 noorient
 geometry={
 H         -1.57413        0.33845        0.00000
 C         -0.49500        0.20144        0.00000
 C          0.18857       -0.05954       -1.30114
 C          0.18857       -0.05954        1.30114
 H         -0.33790        0.40751       -2.14134
 H         -0.33790        0.40751        2.14134
 H          1.22176        0.31596       -1.29638
 H          1.22176        0.31596        1.29638
 H          0.25678       -1.13976       -1.52896
 H          0.25678       -1.13976        1.52896
 }
 basis={ default,sto-3g }
 {ks,B97R,direct;wf,25,1,1}
 {ibba,bonds=1}

 Variables initialized (895), CPU time= 0.01 sec
 Commands  initialized (725), CPU time= 0.01 sec, 591 directives.
 Default parameters read. Elapsed time= 0.08 sec

 Checking input...
 Passed
1


                                         ***  PROGRAM SYSTEM MOLPRO  ***
                                       Copyright, TTI GmbH Stuttgart, 2015
                                    Version 2099.9 linked May 26 2017 16:03:21


 **********************************************************************************************************************************
 LABEL *                                                                                 
  64 bit serial version                                                                  DATE: 08-Jun-17          TIME: 15:04:49  
 **********************************************************************************************************************************

 SHA1:             b4a5b34a9e711420743f49e6833241d17c61fb3c
 **********************************************************************************************************************************
 SETTING GEOMTYP        =    XYZ

 Variable memory set to  500000000 words,  buffer space 

 ZSYMEL=NOSYM

 SETTING BASIS          =    STO-3G


 Recomputing integrals since basis changed


 Using spherical harmonics

 Library entry H      S STO-3G               selected for orbital group  1
 Library entry C      S STO-3G               selected for orbital group  2
 Library entry C      P STO-3G               selected for orbital group  2


 PROGRAM * SEWARD (Integral evaluation for generally contracted gaussian basis sets)     Author: Roland Lindh, 1990

 Geometry written to block  1 of record 700


 Point group  C1  



 ATOMIC COORDINATES

 NR  ATOM    CHARGE       X              Y              Z

   1  H       1.00   -2.974674584    0.639577807    0.000000000
   2  C       6.00   -0.935414432    0.380666431    0.000000000
   3  C       6.00    0.356345655   -0.112514293   -2.458798250
   4  C       6.00    0.356345655   -0.112514293    2.458798250
   5  H       1.00   -0.638538457    0.770082293   -4.046546140
   6  H       1.00   -0.638538457    0.770082293    4.046546140
   7  H       1.00    2.308791790    0.597077866   -2.449803153
   8  H       1.00    2.308791790    0.597077866    2.449803153
   9  H       1.00    0.485243874   -2.153834248   -2.889315655
  10  H       1.00    0.485243874   -2.153834248    2.889315655

 Bond lengths in Bohr (Angstrom)

 1-2  2.055630578  2-3  2.820914777  2-4  2.820914777  3-5  2.071162595  3-7  2.077413742
     ( 1.087792856)     ( 1.492763814)     ( 1.492763814)     ( 1.096012045)     ( 1.099320010)

  3- 9  2.090202656   4- 6  2.071162595   4- 8  2.077413742   4-10  2.090202656
       ( 1.106087612)       ( 1.096012045)       ( 1.099320010)       ( 1.106087612)

 Bond angles

  1-2-3  118.44375943   1-2-4  118.44375943   2-3-5  111.94558337   2-3-7  111.52358867

  2- 3- 9  112.24140213   2- 4- 6  111.94558337   2- 4- 8  111.52358867   2- 4-10  112.24140213

  3-2-4  121.29758064   5-3-7  108.01204745   5-3-9  106.73207413   6-4-8  108.01204745

  6- 4-10  106.73207413   7- 3- 9  106.05262855   8- 4-10  106.05262855

 NUCLEAR CHARGE:                   25
 NUMBER OF PRIMITIVE AOS:          66
 NUMBER OF SYMMETRY AOS:           66
 NUMBER OF CONTRACTIONS:           22   (  22A   )
 NUMBER OF CORE ORBITALS:           3   (   3A   )
 NUMBER OF VALENCE ORBITALS:       19   (  19A   )


 NUCLEAR REPULSION ENERGY   75.20704826


 Eigenvalues of metric

         1 0.213E+00 0.225E+00 0.288E+00 0.342E+00 0.359E+00 0.374E+00 0.380E+00 0.402E+00


 Contracted 2-electron integrals neglected if value below      1.0D-11
 AO integral compression algorithm  1   Integral accuracy      1.0D-11

     0.524 MB (compressed) written to integral file ( 89.6%)


 NUMBER OF SORTED TWO-ELECTRON INTEGRALS:      32131.     BUFFER LENGTH:  32768
 NUMBER OF SEGMENTS:   1  SEGMENT LENGTH:      32131      RECORD LENGTH: 524288

 Memory used in sort:       0.59 MW

 SORT1 READ       38209. AND WROTE       30689. INTEGRALS IN      1 RECORDS. CPU TIME:     0.00 SEC, REAL TIME:     0.01 SEC
 SORT2 READ       30689. AND WROTE       32131. INTEGRALS IN      2 RECORDS. CPU TIME:     0.01 SEC, REAL TIME:     0.01 SEC

 FILE SIZES:   FILE 1:    30.6 MBYTE,  FILE 4:     4.2 MBYTE,   TOTAL:     34.9 MBYTE

 OPERATOR DM      FOR CENTER  0  COORDINATES:    0.000000    0.000000    0.000000


 **********************************************************************************************************************************
 DATASETS  * FILE   NREC   LENGTH (MB)   RECORD NAMES
              1      19       30.27       500      610      700      900      950      970     1000      129      960     1100   
                                          VAR    BASINP    GEOM    SYMINP    ZMAT    AOBASIS   BASIS     P2S    ABASIS      S 
                                         1400     1410     1200     1210     1080     1600     1650     1300     1700   
                                           T        V       H0       H01     AOSYM     SMH    MOLCAS    ERIS     OPER   

 PROGRAMS   *        TOTAL       INT
 CPU TIMES  *         0.54      0.39
 REAL TIME  *         0.86 SEC
 DISK USED  *        35.29 MB      
 **********************************************************************************************************************************

 Density functional group B97R=B97RDF
 Functional: B97RDF(Automatically generated (new) B97RDF)                      Gradient terms: 1
 Use grid at  1800.2


 Exact exchange will be calculated, factor:  0.2100

 Functional: B97RDF                    Factor:  1.0000

 Generated new metagrid on record  1800.2 with target accuracy 1.0D-06 and 32470 points in CPU time    0.7
 Computed new grid on record 1800.1 in CPU time    0.8
   21722 words reserved for DFT integration

 PROGRAM * RKS-SCF (Restricted open shell Kohn-Sham)     Authors: W. Meyer, H.-J. Werner, P.J. Knowles, 1993

 NUMBER OF ELECTRONS:      13+   12-    SPACE SYMMETRY=1    SPIN SYMMETRY: Doublet 
 CONVERGENCE THRESHOLDS:    1.00E-05 (Density)    1.00E-06 (Energy)
 MAX. NUMBER OF ITERATIONS:       60
 INTERPOLATION TYPE:            DIIS
 INTERPOLATION STEPS:              2 (START)      1 (STEP)
 LEVEL SHIFTS:                 -0.60 (CLOSED) -0.30 (OPEN) 



 Use fine grid record 1800.2 for energy threshold  1.0D-06
 Orbital guess generated from atomic densities. Full valence occupancy:   13

 Molecular orbital dump at record        2100.2

 Initial alpha occupancy:  13
 Initial beta  occupancy:  12
 Wave function symmetry:    1

 ITERATION    DDIFF          GRAD             ENERGY        2-EL.EN.            DIPOLE MOMENTS         DIIS   ORB.
    1      0.000D+00      0.000D+00      -116.88341993    263.145994    0.20769   -0.30742    0.00000    0    start
    2      0.000D+00      0.266D-01      -117.01790867    256.324049    0.03150   -0.05628    0.00000    1    diag,B
    3      0.512D-01      0.203D-02      -117.01905141    256.527033    0.03437   -0.06942    0.00000    2    diag,B
    4      0.326D-02      0.610D-03      -117.01931894    256.516458    0.03298   -0.07071    0.00000    3    diag,B
    5      0.153D-02      0.182D-03      -117.01935055    256.514723    0.03160   -0.06950    0.00000    4    diag,B
    6      0.608D-03      0.315D-04      -117.01935123    256.514530    0.03141   -0.06906    0.00000    5    diag,B
    7      0.761D-04      0.884D-05      -117.01935128    256.514744    0.03141   -0.06896    0.00000    6    fixocc
    8      0.250D-04      0.151D-05      -117.01935128    256.514751    0.03144   -0.06899    0.00000    7    diag,B
    9      0.489D-05      0.186D-06      -117.01935128    256.514751    0.03144   -0.06898    0.00000    0    orth

 Final alpha occupancy:  13
 Final beta  occupancy:  12

 !RKS STATE 1.1 Energy               -117.019351283014
 Nuclear energy                        75.20704826
 One-electron energy                 -305.40619446
 Two-electron energy                  128.25737549
 Density functional                   -15.07758057     B97RDF=-15.07758057
 Virial quotient                       -1.01498238
 !RKS STATE 1.1 Dipole moment           0.03143739    -0.06898341     0.00000000
 Dipole moment /Debye                   0.07990063    -0.17532686     0.00000000

 Orbital energies:

         1.1          2.1          3.1          4.1          5.1          6.1          7.1          8.1          9.1         10.1
    -10.012450   -10.012438    -9.973879    -0.731782    -0.654475    -0.523434    -0.410963    -0.381063    -0.367047    -0.347343

        11.1         12.1         13.1         14.1         15.1
     -0.308658    -0.303039    -0.119192     0.387186     0.416592

 HOMO     13.1    -0.119192 =      -3.2434eV
 LUMO     14.1     0.387186 =      10.5359eV
 LUMO-HOMO         0.506378 =      13.7792eV


 **********************************************************************************************************************************
 DATASETS  * FILE   NREC   LENGTH (MB)   RECORD NAMES
              1      20       31.31       500      610      700      900      950      970     1000      129      960     1100   
                                          VAR    BASINP    GEOM    SYMINP    ZMAT    AOBASIS   BASIS     P2S    ABASIS      S 
                                         1400     1410     1200     1210     1080     1600     1650     1300     1700     1800   
                                           T        V       H0       H01     AOSYM     SMH    MOLCAS    ERIS     OPER     GRID   

              2       5        2.92       700     1000      520     1800     2100   
                                         GEOM     BASIS   MCVARS    GRID      RKS  

 PROGRAMS   *        TOTAL        KS       INT
 CPU TIMES  *         2.79      2.25      0.39
 REAL TIME  *         3.18 SEC
 DISK USED  *        35.29 MB      
 **********************************************************************************************************************************


 PROGRAM * Intrinsic Basis Bonding Analysis (IBBA)          Author: G. Knizia

 Molecular orbitals read from record     2100.2  Type=RKS/CANONICAL (state 1.1)
 Fock matrix read from record            2100.2  Type=RKS/TOTAL (state 1.1)
 Orbital energies read from record       2100.2  Type=RKS/CANONICAL (state 1.1)
 Density matrix read from record         2100.2  Type=RKS/CHARGE (state 1.1)

 Number of core orbitals:           3 (   3 )
 Number of closed-shell orbitals:   9 (   9 )
 Number of active  orbitals:        1 (   1 )

 Basis set MINAO-AUTO-PP generated.      Number of basis functions:   22 

 Polarized AO type:                A = (O Ot + (1-O)(1-Ot)) P12
 Orthogonalization method:         Symmetric (Loewdin)
 Localization functional:          L = sum[A,i] <i|n_A|i>^4 -> max

 Localization group 1:  12 orbitals, occupancy  2.000
 Iterative localization: IB/PM,    7 iter; Final gradient 0.74E-09

 Bond order analysis:       [THRPRINT= 0.020]

   CEN ATOM   CEN ATOM     WIBERG.BO      RENORM.BO
     1   H  -   2   C       0.962088       0.972597

     2   C  -   4   C       1.076640       1.499385
     2   C  -   3   C       1.076640       1.499385
     2   C  -   1   H       0.962088       0.972597
     2   C  -   9   H       0.032257       0.310501
     2   C  -  10   H       0.032257       0.310501

     3   C  -   2   C       1.076640       1.499385
     3   C  -   5   H       0.960208       0.990413
     3   C  -   7   H       0.954233       0.990895
     3   C  -   9   H       0.931138       0.998617

     4   C  -   2   C       1.076640       1.499385
     4   C  -   6   H       0.960208       0.990413
     4   C  -   8   H       0.954233       0.990895
     4   C  -  10   H       0.931138       0.998617

     5   H  -   3   C       0.960208       0.990413

     6   H  -   4   C       0.960208       0.990413

     7   H  -   3   C       0.954233       0.990895

     8   H  -   4   C       0.954233       0.990895

     9   H  -   3   C       0.931138       0.998617
     9   H  -   2   C       0.032257       0.310501

    10   H  -   4   C       0.931138       0.998617
    10   H  -   2   C       0.032257       0.310501


 Valency analysis:

   CEN ATOM   TOT.VALENCE
     1   H       0.986740
     2   C       3.211336
     3   C       3.936554
     4   C       3.936554
     5   H       0.980670
     6   H       0.980670
     7   H       0.979879
     8   H       0.979879
     9   H       0.972598
    10   H       0.972598
 Localization group 2:   1 orbitals, occupancy  1.000
 Iterative localization: IB/PM,    1 iter; Final gradient 0.00E+00

 Bond order analysis:       [THRPRINT= 0.020]

   CEN ATOM   CEN ATOM     WIBERG.BO      RENORM.BO

     2   C  -   9   H       0.066272       0.500000
     2   C  -  10   H       0.066272       0.500000
     2   C  -   7   H       0.021290       0.500000
     2   C  -   8   H       0.021290       0.500000





     7   H  -   2   C       0.021290       0.500000

     8   H  -   2   C       0.021290       0.500000

     9   H  -   2   C       0.066272       0.500000

    10   H  -   2   C       0.066272       0.500000


 Valency analysis:

   CEN ATOM   TOT.VALENCE
     1   H       0.000663
     2   C       0.201416
     3   C       0.005307
     4   C       0.005307
     5   H       0.009136
     6   H       0.009136
     7   H       0.023730
     8   H       0.023730
     9   H       0.071972
    10   H       0.071972

 Total charge composition:

   CEN ATOM         s          p       ELECTRONS ->P.CHARGE
     1   H       0.88518                 0.88518    0.11482
     2   C       3.00461    3.09368      6.09830   -0.09830
     3   C       2.99234    3.40835      6.40070   -0.40070
     4   C       2.99234    3.40835      6.40070   -0.40070
     5   H       0.86556                 0.86556    0.13444
     6   H       0.86556                 0.86556    0.13444
     7   H       0.87016                 0.87016    0.12984
     8   H       0.87016                 0.87016    0.12984
     9   H       0.87185                 0.87185    0.12815
    10   H       0.87185                 0.87185    0.12815

 Total charge composition, AO contributions:

   CEN ATOM SHL      SPHERICAL COMPONENTS
     1   H  1s       0.88518

     2   C  1s       1.99295
     2   C  2s       1.01166
     2   C  2p       1.09218    1.00321    0.99830

     3   C  1s       1.99154
     3   C  2s       1.00080
     3   C  2p       1.14897    1.15771    1.10167

     4   C  1s       1.99154
     4   C  2s       1.00080
     4   C  2p       1.14897    1.15771    1.10167

     5   H  1s       0.86556

     6   H  1s       0.86556

     7   H  1s       0.87016

     8   H  1s       0.87016

     9   H  1s       0.87185

    10   H  1s       0.87185

 Active orbital charges:

   CEN ATOM         s          p       ELECTRONS ->SPIN.DEN
     1   H       0.00033                 0.00033    0.00033
     2   C       0.00933    0.87705      0.88638    0.88638
     3   C       0.00008    0.00258      0.00266    0.00266
     4   C       0.00008    0.00258      0.00266    0.00266
     5   H       0.00459                 0.00459    0.00459
     6   H       0.00459                 0.00459    0.00459
     7   H       0.01201                 0.01201    0.01201
     8   H       0.01201                 0.01201    0.01201
     9   H       0.03738                 0.03738    0.03738
    10   H       0.03738                 0.03738    0.03738

 Active orbital charges, AO contributions:

   CEN ATOM SHL      SPHERICAL COMPONENTS
     1   H  1s       0.00033

     2   C  1s       0.00001
     2   C  2s       0.00933
     2   C  2p       0.03664    0.84041    0.00000

     3   C  1s       0.00000
     3   C  2s       0.00008
     3   C  2p       0.00000    0.00243    0.00015

     4   C  1s       0.00000
     4   C  2s       0.00008
     4   C  2p       0.00000    0.00243    0.00015

     5   H  1s       0.00459

     6   H  1s       0.00459

     7   H  1s       0.01201

     8   H  1s       0.01201

     9   H  1s       0.03738

    10   H  1s       0.03738

 Summary of localized orbital composition:   [THRPRINT= 0.020]

   ORB  GRP  ORB.ENERGY      CENTERS/CHARGES
     1   1    -9.898339      C  4   2.000
     2   1    -9.898339      C  3   2.000
     3   1    -9.873233      C  2   2.000
     4   1    -0.546419      C  3   1.011   C  2   0.981
     5   1    -0.546419      C  4   1.011   C  2   0.981
     6   1    -0.479903      C  2   1.113   H  1   0.877
     7   1    -0.465243      C  4   1.124   H 10   0.831   C  2   0.043
     8   1    -0.465243      C  3   1.124   H  9   0.831   C  2   0.043
     9   1    -0.464216      C  3   1.131   H  5   0.855
    10   1    -0.464216      C  4   1.131   H  6   0.855
    11   1    -0.462500      C  4   1.126   H  8   0.853   (other: 0.020)
    12   1    -0.462500      C  3   1.126   H  7   0.853   (other: 0.020)
    13   2    -0.020797      C  2   0.886   H  9   0.037   H 10   0.037   (other: 0.039)

 Localized orbitals saved to record      2100.2  (orbital set 2)


 **********************************************************************************************************************************
 DATASETS  * FILE   NREC   LENGTH (MB)   RECORD NAMES
              1      20       31.31       500      610      700      900      950      970     1000      129      960     1100   
                                          VAR    BASINP    GEOM    SYMINP    ZMAT    AOBASIS   BASIS     P2S    ABASIS      S 
                                         1400     1410     1200     1210     1080     1600     1650     1300     1700     1800   
                                           T        V       H0       H01     AOSYM     SMH    MOLCAS    ERIS     OPER     GRID   

              2       5        2.92       700     1000      520     1800     2100   
                                         GEOM     BASIS   MCVARS    GRID      RKS  

 PROGRAMS   *        TOTAL      IBBA        KS       INT
 CPU TIMES  *         2.82      0.03      2.25      0.39
 REAL TIME  *         3.26 SEC
 DISK USED  *        35.29 MB      
 **********************************************************************************************************************************
 Molecular orbitals read from record     2100.2  Type=RKS/LOCAL(IBO)  
 Occupation numbers read from record     2100.2  Type=RKS/LOCAL(IBO)  
 Orbital energies read from record       2100.2  Type=RKS/LOCAL(IBO)  
 Redundancy group numbers read from rec  2100.2  Type=RKS/LOCAL(IBO)  

 IBBA/STO-3G energy=      0.000000000000

        KS-SCF  
   -117.01935128
 **********************************************************************************************************************************
 Molpro calculation terminated
