
 Primary working directories    : /tmp/sb13343
 Secondary working directories  : /tmp/sb13343
 Wavefunction directory         : /panfs/panasas01/chem/sb13343/wfu/
 Main file repository           : /tmp/sb13343/

 SHA1      : b4a5b34a9e711420743f49e6833241d17c61fb3c
 NAME      : 2099.9.b4a5b34
 ARCHNAME  : linux/x86_64_openmp
 FC        : /cm/shared/languages/GCC-6.1/bin/gfortran
 BLASLIB   : -lblas
 id        : simonbennie

 Nodes     nprocs
 node32-043    1

 Using customized tuning parameters: mindgm=1; mindgv=20; mindgc=4; mindgr=1; noblas=0; minvec=7
 default implementation of scratch files=df  

 memory,500,m
 geomtyp=xyz
 nosym
 noorient
 geometry={
 H         -1.57413        0.33845        0.00000
 C         -0.49500        0.20144        0.00000
 C          0.18857       -0.05954       -1.30114
 C          0.18857       -0.05954        1.30114
 H         -0.33790        0.40751       -2.14134
 H         -0.33790        0.40751        2.14134
 H          1.22176        0.31596       -1.29638
 H          1.22176        0.31596        1.29638
 H          0.25678       -1.13976       -1.52896
 H          0.25678       -1.13976        1.52896
 }
 basis={ default,sto-3g }
 {ks,SOGGA11,direct;wf,25,1,1}
 {ibba,bonds=1}

 Variables initialized (895), CPU time= 0.00 sec
 Commands  initialized (725), CPU time= 0.02 sec, 591 directives.
 Default parameters read. Elapsed time= 0.08 sec

 Checking input...
 Passed
1


                                         ***  PROGRAM SYSTEM MOLPRO  ***
                                       Copyright, TTI GmbH Stuttgart, 2015
                                    Version 2099.9 linked May 26 2017 16:03:21


 **********************************************************************************************************************************
 LABEL *                                                                                 
  64 bit serial version                                                                  DATE: 08-Jun-17          TIME: 15:15:29  
 **********************************************************************************************************************************

 SHA1:             b4a5b34a9e711420743f49e6833241d17c61fb3c
 **********************************************************************************************************************************
 SETTING GEOMTYP        =    XYZ

 Variable memory set to  500000000 words,  buffer space 

 ZSYMEL=NOSYM

 SETTING BASIS          =    STO-3G


 Recomputing integrals since basis changed


 Using spherical harmonics

 Library entry H      S STO-3G               selected for orbital group  1
 Library entry C      S STO-3G               selected for orbital group  2
 Library entry C      P STO-3G               selected for orbital group  2


 PROGRAM * SEWARD (Integral evaluation for generally contracted gaussian basis sets)     Author: Roland Lindh, 1990

 Geometry written to block  1 of record 700


 Point group  C1  



 ATOMIC COORDINATES

 NR  ATOM    CHARGE       X              Y              Z

   1  H       1.00   -2.974674584    0.639577807    0.000000000
   2  C       6.00   -0.935414432    0.380666431    0.000000000
   3  C       6.00    0.356345655   -0.112514293   -2.458798250
   4  C       6.00    0.356345655   -0.112514293    2.458798250
   5  H       1.00   -0.638538457    0.770082293   -4.046546140
   6  H       1.00   -0.638538457    0.770082293    4.046546140
   7  H       1.00    2.308791790    0.597077866   -2.449803153
   8  H       1.00    2.308791790    0.597077866    2.449803153
   9  H       1.00    0.485243874   -2.153834248   -2.889315655
  10  H       1.00    0.485243874   -2.153834248    2.889315655

 Bond lengths in Bohr (Angstrom)

 1-2  2.055630578  2-3  2.820914777  2-4  2.820914777  3-5  2.071162595  3-7  2.077413742
     ( 1.087792856)     ( 1.492763814)     ( 1.492763814)     ( 1.096012045)     ( 1.099320010)

  3- 9  2.090202656   4- 6  2.071162595   4- 8  2.077413742   4-10  2.090202656
       ( 1.106087612)       ( 1.096012045)       ( 1.099320010)       ( 1.106087612)

 Bond angles

  1-2-3  118.44375943   1-2-4  118.44375943   2-3-5  111.94558337   2-3-7  111.52358867

  2- 3- 9  112.24140213   2- 4- 6  111.94558337   2- 4- 8  111.52358867   2- 4-10  112.24140213

  3-2-4  121.29758064   5-3-7  108.01204745   5-3-9  106.73207413   6-4-8  108.01204745

  6- 4-10  106.73207413   7- 3- 9  106.05262855   8- 4-10  106.05262855

 NUCLEAR CHARGE:                   25
 NUMBER OF PRIMITIVE AOS:          66
 NUMBER OF SYMMETRY AOS:           66
 NUMBER OF CONTRACTIONS:           22   (  22A   )
 NUMBER OF CORE ORBITALS:           3   (   3A   )
 NUMBER OF VALENCE ORBITALS:       19   (  19A   )


 NUCLEAR REPULSION ENERGY   75.20704826


 Eigenvalues of metric

         1 0.213E+00 0.225E+00 0.288E+00 0.342E+00 0.359E+00 0.374E+00 0.380E+00 0.402E+00


 Contracted 2-electron integrals neglected if value below      1.0D-11
 AO integral compression algorithm  1   Integral accuracy      1.0D-11

     0.524 MB (compressed) written to integral file ( 89.6%)


 NUMBER OF SORTED TWO-ELECTRON INTEGRALS:      32131.     BUFFER LENGTH:  32768
 NUMBER OF SEGMENTS:   1  SEGMENT LENGTH:      32131      RECORD LENGTH: 524288

 Memory used in sort:       0.59 MW

 SORT1 READ       38209. AND WROTE       30689. INTEGRALS IN      1 RECORDS. CPU TIME:     0.00 SEC, REAL TIME:     0.01 SEC
 SORT2 READ       30689. AND WROTE       32131. INTEGRALS IN      2 RECORDS. CPU TIME:     0.01 SEC, REAL TIME:     0.00 SEC

 FILE SIZES:   FILE 1:    30.6 MBYTE,  FILE 4:     4.2 MBYTE,   TOTAL:     34.9 MBYTE

 OPERATOR DM      FOR CENTER  0  COORDINATES:    0.000000    0.000000    0.000000


 **********************************************************************************************************************************
 DATASETS  * FILE   NREC   LENGTH (MB)   RECORD NAMES
              1      19       30.27       500      610      700      900      950      970     1000      129      960     1100   
                                          VAR    BASINP    GEOM    SYMINP    ZMAT    AOBASIS   BASIS     P2S    ABASIS      S 
                                         1400     1410     1200     1210     1080     1600     1650     1300     1700   
                                           T        V       H0       H01     AOSYM     SMH    MOLCAS    ERIS     OPER   

 PROGRAMS   *        TOTAL       INT
 CPU TIMES  *         0.39      0.24
 REAL TIME  *         0.68 SEC
 DISK USED  *        35.29 MB      
 **********************************************************************************************************************************

 Density functional group SOGGA11=XC-SOGGA11
 Functional: XC-SOGGA11(via MFM 1.6)                                           Gradient terms: 1
 Use grid at  1800.2

 Functional: XC-SOGGA11                Factor:  1.0000

 Generated new metagrid on record  1800.2 with target accuracy 1.0D-06 and 32470 points in CPU time    0.7
 Computed new grid on record 1800.1 in CPU time    0.8
   21722 words reserved for DFT integration

 PROGRAM * RKS-SCF (Restricted open shell Kohn-Sham)     Authors: W. Meyer, H.-J. Werner, P.J. Knowles, 1993

 NUMBER OF ELECTRONS:      13+   12-    SPACE SYMMETRY=1    SPIN SYMMETRY: Doublet 
 CONVERGENCE THRESHOLDS:    1.00E-05 (Density)    1.00E-06 (Energy)
 MAX. NUMBER OF ITERATIONS:       60
 INTERPOLATION TYPE:            DIIS
 INTERPOLATION STEPS:              2 (START)      1 (STEP)
 LEVEL SHIFTS:                 -0.60 (CLOSED) -0.30 (OPEN) 



 Use fine grid record 1800.2 for energy threshold  1.0D-06
 Orbital guess generated from atomic densities. Full valence occupancy:   13

 Molecular orbital dump at record        2100.2

 Initial alpha occupancy:  13
 Initial beta  occupancy:  12
 Wave function symmetry:    1

 ITERATION    DDIFF          GRAD             ENERGY        2-EL.EN.            DIPOLE MOMENTS         DIIS   ORB.
    1      0.000D+00      0.000D+00      -116.87673888    272.172101    0.23566   -0.34069    0.00000    0    start
    2      0.000D+00      0.307D-01      -117.05055155    263.538856    0.01826   -0.02949    0.00000    1    diag,B
    3      0.643D-01      0.445D-02      -117.05378321    264.426478    0.04210   -0.07570    0.00000    2    diag,B
    4      0.771D-02      0.534D-03      -117.05397239    264.419998    0.04277   -0.07936    0.00000    3    diag,B
    5      0.137D-02      0.173D-03      -117.05399917    264.417255    0.04143   -0.07862    0.00000    4    diag,B
    6      0.611D-03      0.307D-04      -117.05399976    264.417006    0.04127   -0.07845    0.00000    5    diag,B
    7      0.806D-04      0.892D-05      -117.05399981    264.417268    0.04122   -0.07832    0.00000    6    fixocc
    8      0.249D-04      0.136D-05      -117.05399981    264.417272    0.04125   -0.07834    0.00000    7    diag,B
    9      0.397D-05      0.170D-06      -117.05399981    264.417277    0.04125   -0.07834    0.00000    0    orth

 Final alpha occupancy:  13
 Final beta  occupancy:  12

 !RKS STATE 1.1 Energy               -117.053999812816
 Nuclear energy                        75.20704826
 One-electron energy                 -305.55585290
 Two-electron energy                  132.20863848
 Density functional                   -18.91383365     XC-SOGGA11=-18.91383365
 Virial quotient                       -1.01549775
 !RKS STATE 1.1 Dipole moment           0.04125068    -0.07834256     0.00000000
 Dipole moment /Debye                   0.10484190    -0.19911389     0.00000000

 Orbital energies:

         1.1          2.1          3.1          4.1          5.1          6.1          7.1          8.1          9.1         10.1
     -9.734661    -9.734661    -9.701849    -0.652329    -0.581445    -0.460672    -0.358456    -0.331209    -0.317399    -0.298794

        11.1         12.1         13.1         14.1         15.1
     -0.262667    -0.256485    -0.072892     0.337293     0.367959

 HOMO     13.1    -0.072892 =      -1.9835eV
 LUMO     14.1     0.337293 =       9.1782eV
 LUMO-HOMO         0.410185 =      11.1617eV


 **********************************************************************************************************************************
 DATASETS  * FILE   NREC   LENGTH (MB)   RECORD NAMES
              1      20       31.31       500      610      700      900      950      970     1000      129      960     1100   
                                          VAR    BASINP    GEOM    SYMINP    ZMAT    AOBASIS   BASIS     P2S    ABASIS      S 
                                         1400     1410     1200     1210     1080     1600     1650     1300     1700     1800   
                                           T        V       H0       H01     AOSYM     SMH    MOLCAS    ERIS     OPER     GRID   

              2       5        2.92       700     1000      520     1800     2100   
                                         GEOM     BASIS   MCVARS    GRID      RKS  

 PROGRAMS   *        TOTAL        KS       INT
 CPU TIMES  *         3.17      2.78      0.24
 REAL TIME  *         3.64 SEC
 DISK USED  *        35.29 MB      
 **********************************************************************************************************************************


 PROGRAM * Intrinsic Basis Bonding Analysis (IBBA)          Author: G. Knizia

 Molecular orbitals read from record     2100.2  Type=RKS/CANONICAL (state 1.1)
 Fock matrix read from record            2100.2  Type=RKS/TOTAL (state 1.1)
 Orbital energies read from record       2100.2  Type=RKS/CANONICAL (state 1.1)
 Density matrix read from record         2100.2  Type=RKS/CHARGE (state 1.1)

 Number of core orbitals:           3 (   3 )
 Number of closed-shell orbitals:   9 (   9 )
 Number of active  orbitals:        1 (   1 )

 Basis set MINAO-AUTO-PP generated.      Number of basis functions:   22 

 Polarized AO type:                A = (O Ot + (1-O)(1-Ot)) P12
 Orthogonalization method:         Symmetric (Loewdin)
 Localization functional:          L = sum[A,i] <i|n_A|i>^4 -> max

 Localization group 1:  12 orbitals, occupancy  2.000
 Iterative localization: IB/PM,    7 iter; Final gradient 0.56E-09

 Bond order analysis:       [THRPRINT= 0.020]

   CEN ATOM   CEN ATOM     WIBERG.BO      RENORM.BO
     1   H  -   2   C       0.959514       0.971489

     2   C  -   4   C       1.086341       1.498117
     2   C  -   3   C       1.086341       1.498117
     2   C  -   1   H       0.959514       0.971489
     2   C  -   9   H       0.035469       0.305725
     2   C  -  10   H       0.035469       0.305725

     3   C  -   2   C       1.086341       1.498117
     3   C  -   5   H       0.955958       0.989906
     3   C  -   7   H       0.949053       0.990298
     3   C  -   9   H       0.922149       0.998472

     4   C  -   2   C       1.086341       1.498117
     4   C  -   6   H       0.955958       0.989906
     4   C  -   8   H       0.949053       0.990298
     4   C  -  10   H       0.922149       0.998472

     5   H  -   3   C       0.955958       0.989906

     6   H  -   4   C       0.955958       0.989906

     7   H  -   3   C       0.949053       0.990298

     8   H  -   4   C       0.949053       0.990298

     9   H  -   3   C       0.922149       0.998472
     9   H  -   2   C       0.035469       0.305725

    10   H  -   4   C       0.922149       0.998472
    10   H  -   2   C       0.035469       0.305725


 Valency analysis:

   CEN ATOM   TOT.VALENCE
     1   H       0.985349
     2   C       3.237870
     3   C       3.929159
     4   C       3.929159
     5   H       0.978066
     6   H       0.978066
     7   H       0.977065
     8   H       0.977065
     9   H       0.968362
    10   H       0.968362
 Localization group 2:   1 orbitals, occupancy  1.000
 Iterative localization: IB/PM,    1 iter; Final gradient 0.00E+00

 Bond order analysis:       [THRPRINT= 0.020]

   CEN ATOM   CEN ATOM     WIBERG.BO      RENORM.BO

     2   C  -   9   H       0.071497       0.500000
     2   C  -  10   H       0.071497       0.500000
     2   C  -   7   H       0.023107       0.500000
     2   C  -   8   H       0.023107       0.500000





     7   H  -   2   C       0.023107       0.500000

     8   H  -   2   C       0.023107       0.500000

     9   H  -   2   C       0.071497       0.500000

    10   H  -   2   C       0.071497       0.500000


 Valency analysis:

   CEN ATOM   TOT.VALENCE
     1   H       0.000585
     2   C       0.218768
     3   C       0.006533
     4   C       0.006533
     5   H       0.009994
     6   H       0.009994
     7   H       0.026060
     8   H       0.026060
     9   H       0.078373
    10   H       0.078373

 Total charge composition:

   CEN ATOM         s          p       ELECTRONS ->P.CHARGE
     1   H       0.87925                 0.87925    0.12075
     2   C       3.00261    3.10218      6.10479   -0.10479
     3   C       2.99365    3.43266      6.42631   -0.42631
     4   C       2.99365    3.43266      6.42631   -0.42631
     5   H       0.85692                 0.85692    0.14308
     6   H       0.85692                 0.85692    0.14308
     7   H       0.86176                 0.86176    0.13824
     8   H       0.86176                 0.86176    0.13824
     9   H       0.86299                 0.86299    0.13701
    10   H       0.86299                 0.86299    0.13701

 Total charge composition, AO contributions:

   CEN ATOM SHL      SPHERICAL COMPONENTS
     1   H  1s       0.87925

     2   C  1s       1.99319
     2   C  2s       1.00942
     2   C  2p       1.09662    1.00838    0.99719

     3   C  1s       1.99188
     3   C  2s       1.00177
     3   C  2p       1.15794    1.16637    1.10836

     4   C  1s       1.99188
     4   C  2s       1.00177
     4   C  2p       1.15794    1.16637    1.10836

     5   H  1s       0.85692

     6   H  1s       0.85692

     7   H  1s       0.86176

     8   H  1s       0.86176

     9   H  1s       0.86299

    10   H  1s       0.86299

 Active orbital charges:

   CEN ATOM         s          p       ELECTRONS ->SPIN.DEN
     1   H       0.00029                 0.00029    0.00029
     2   C       0.00855    0.86644      0.87499    0.87499
     3   C       0.00007    0.00321      0.00328    0.00328
     4   C       0.00007    0.00321      0.00328    0.00328
     5   H       0.00502                 0.00502    0.00502
     6   H       0.00502                 0.00502    0.00502
     7   H       0.01320                 0.01320    0.01320
     8   H       0.01320                 0.01320    0.01320
     9   H       0.04086                 0.04086    0.04086
    10   H       0.04086                 0.04086    0.04086

 Active orbital charges, AO contributions:

   CEN ATOM SHL      SPHERICAL COMPONENTS
     1   H  1s       0.00029

     2   C  1s       0.00001
     2   C  2s       0.00854
     2   C  2p       0.03618    0.83026    0.00000

     3   C  1s       0.00000
     3   C  2s       0.00007
     3   C  2p       0.00001    0.00307    0.00013

     4   C  1s       0.00000
     4   C  2s       0.00007
     4   C  2p       0.00001    0.00307    0.00013

     5   H  1s       0.00502

     6   H  1s       0.00502

     7   H  1s       0.01320

     8   H  1s       0.01320

     9   H  1s       0.04086

    10   H  1s       0.04086

 Summary of localized orbital composition:   [THRPRINT= 0.020]

   ORB  GRP  ORB.ENERGY      CENTERS/CHARGES
     1   1    -9.623664      C  4   2.000
     2   1    -9.623664      C  3   2.000
     3   1    -9.603946      C  2   2.000
     4   1    -0.485445      C  3   1.013   C  2   0.979
     5   1    -0.485445      C  4   1.013   C  2   0.979
     6   1    -0.421857      C  2   1.119   H  1   0.870
     7   1    -0.409476      C  3   1.131   H  9   0.818   C  2   0.048
     8   1    -0.409476      C  4   1.131   H 10   0.818   C  2   0.048
     9   1    -0.407740      C  3   1.139   H  5   0.846
    10   1    -0.407740      C  4   1.139   H  6   0.846
    11   1    -0.406087      C  3   1.134   H  7   0.843   (other: 0.022)
    12   1    -0.406087      C  4   1.134   H  8   0.843   (other: 0.022)
    13   2    -0.018045      C  2   0.875   H  9   0.041   H 10   0.041   (other: 0.043)

 Localized orbitals saved to record      2100.2  (orbital set 2)


 **********************************************************************************************************************************
 DATASETS  * FILE   NREC   LENGTH (MB)   RECORD NAMES
              1      20       31.31       500      610      700      900      950      970     1000      129      960     1100   
                                          VAR    BASINP    GEOM    SYMINP    ZMAT    AOBASIS   BASIS     P2S    ABASIS      S 
                                         1400     1410     1200     1210     1080     1600     1650     1300     1700     1800   
                                           T        V       H0       H01     AOSYM     SMH    MOLCAS    ERIS     OPER     GRID   

              2       5        2.92       700     1000      520     1800     2100   
                                         GEOM     BASIS   MCVARS    GRID      RKS  

 PROGRAMS   *        TOTAL      IBBA        KS       INT
 CPU TIMES  *         3.19      0.02      2.78      0.24
 REAL TIME  *         3.72 SEC
 DISK USED  *        35.29 MB      
 **********************************************************************************************************************************
 Molecular orbitals read from record     2100.2  Type=RKS/LOCAL(IBO)  
 Occupation numbers read from record     2100.2  Type=RKS/LOCAL(IBO)  
 Orbital energies read from record       2100.2  Type=RKS/LOCAL(IBO)  
 Redundancy group numbers read from rec  2100.2  Type=RKS/LOCAL(IBO)  

 IBBA/STO-3G energy=      0.000000000000

        KS-SCF  
   -117.05399981
 **********************************************************************************************************************************
 Molpro calculation terminated
