
 Primary working directories    : /tmp/sb13343
 Secondary working directories  : /tmp/sb13343
 Wavefunction directory         : /panfs/panasas01/chem/sb13343/wfu/
 Main file repository           : /tmp/sb13343/

 SHA1      : b4a5b34a9e711420743f49e6833241d17c61fb3c
 NAME      : 2099.9.b4a5b34
 ARCHNAME  : linux/x86_64_openmp
 FC        : /cm/shared/languages/GCC-6.1/bin/gfortran
 BLASLIB   : -lblas
 id        : simonbennie

 Nodes     nprocs
 node32-018    1

 Using customized tuning parameters: mindgm=1; mindgv=20; mindgc=4; mindgr=1; noblas=0; minvec=7
 default implementation of scratch files=df  

 memory,500,m
 geomtyp=xyz
 nosym
 noorient
 geometry={
 H         -1.57413        0.33845        0.00000
 C         -0.49500        0.20144        0.00000
 C          0.18857       -0.05954       -1.30114
 C          0.18857       -0.05954        1.30114
 H         -0.33790        0.40751       -2.14134
 H         -0.33790        0.40751        2.14134
 H          1.22176        0.31596       -1.29638
 H          1.22176        0.31596        1.29638
 H          0.25678       -1.13976       -1.52896
 H          0.25678       -1.13976        1.52896
 }
 basis={ default,svp }
 {uks,MM05-2X,direct;wf,25,1,1}
 {ibba,bonds=1}

 Variables initialized (895), CPU time= 0.00 sec
 Commands  initialized (725), CPU time= 0.02 sec, 591 directives.
 Default parameters read. Elapsed time= 0.08 sec

 Checking input...
 Passed
1


                                         ***  PROGRAM SYSTEM MOLPRO  ***
                                       Copyright, TTI GmbH Stuttgart, 2015
                                    Version 2099.9 linked May 26 2017 16:03:21


 **********************************************************************************************************************************
 LABEL *                                                                                 
  64 bit serial version                                                                  DATE: 08-Jun-17          TIME: 15:26:09  
 **********************************************************************************************************************************

 SHA1:             b4a5b34a9e711420743f49e6833241d17c61fb3c
 **********************************************************************************************************************************
 SETTING GEOMTYP        =    XYZ

 Variable memory set to  500000000 words,  buffer space 

 ZSYMEL=NOSYM

 SETTING BASIS          =    SVP


 Recomputing integrals since basis changed


 Using spherical harmonics

 Library entry H      S def2-SVP             selected for orbital group  1
 Library entry H      P def2-SVP             selected for orbital group  1
 Library entry C      S def2-SVP             selected for orbital group  2
 Library entry C      P def2-SVP             selected for orbital group  2
 Library entry C      D def2-SVP             selected for orbital group  2


 PROGRAM * SEWARD (Integral evaluation for generally contracted gaussian basis sets)     Author: Roland Lindh, 1990

 Geometry written to block  1 of record 700


 Point group  C1  



 ATOMIC COORDINATES

 NR  ATOM    CHARGE       X              Y              Z

   1  H       1.00   -2.974674584    0.639577807    0.000000000
   2  C       6.00   -0.935414432    0.380666431    0.000000000
   3  C       6.00    0.356345655   -0.112514293   -2.458798250
   4  C       6.00    0.356345655   -0.112514293    2.458798250
   5  H       1.00   -0.638538457    0.770082293   -4.046546140
   6  H       1.00   -0.638538457    0.770082293    4.046546140
   7  H       1.00    2.308791790    0.597077866   -2.449803153
   8  H       1.00    2.308791790    0.597077866    2.449803153
   9  H       1.00    0.485243874   -2.153834248   -2.889315655
  10  H       1.00    0.485243874   -2.153834248    2.889315655

 Bond lengths in Bohr (Angstrom)

 1-2  2.055630578  2-3  2.820914777  2-4  2.820914777  3-5  2.071162595  3-7  2.077413742
     ( 1.087792856)     ( 1.492763814)     ( 1.492763814)     ( 1.096012045)     ( 1.099320010)

  3- 9  2.090202656   4- 6  2.071162595   4- 8  2.077413742   4-10  2.090202656
       ( 1.106087612)       ( 1.096012045)       ( 1.099320010)       ( 1.106087612)

 Bond angles

  1-2-3  118.44375943   1-2-4  118.44375943   2-3-5  111.94558337   2-3-7  111.52358867

  2- 3- 9  112.24140213   2- 4- 6  111.94558337   2- 4- 8  111.52358867   2- 4-10  112.24140213

  3-2-4  121.29758064   5-3-7  108.01204745   5-3-9  106.73207413   6-4-8  108.01204745

  6- 4-10  106.73207413   7- 3- 9  106.05262855   8- 4-10  106.05262855

 NUCLEAR CHARGE:                   25
 NUMBER OF PRIMITIVE AOS:         124
 NUMBER OF SYMMETRY AOS:          121
 NUMBER OF CONTRACTIONS:           77   (  77A   )
 NUMBER OF CORE ORBITALS:           3   (   3A   )
 NUMBER OF VALENCE ORBITALS:       19   (  19A   )


 NUCLEAR REPULSION ENERGY   75.20704826


 Eigenvalues of metric

         1 0.402E-02 0.537E-02 0.229E-01 0.265E-01 0.266E-01 0.379E-01 0.436E-01 0.492E-01


 Contracted 2-electron integrals neglected if value below      1.0D-11
 AO integral compression algorithm  1   Integral accuracy      1.0D-11

     19.923 MB (compressed) written to integral file ( 49.4%)


 NUMBER OF SORTED TWO-ELECTRON INTEGRALS:    4510506.     BUFFER LENGTH:  32768
 NUMBER OF SEGMENTS:   1  SEGMENT LENGTH:    4510506      RECORD LENGTH: 524288

 Memory used in sort:       5.07 MW

 SORT1 READ     5074366. AND WROTE     4244391. INTEGRALS IN     13 RECORDS. CPU TIME:     0.06 SEC, REAL TIME:     0.12 SEC
 SORT2 READ     4244391. AND WROTE     4510506. INTEGRALS IN     76 RECORDS. CPU TIME:     0.14 SEC, REAL TIME:     0.17 SEC

 FILE SIZES:   FILE 1:    50.3 MBYTE,  FILE 4:    54.6 MBYTE,   TOTAL:    104.8 MBYTE

 OPERATOR DM      FOR CENTER  0  COORDINATES:    0.000000    0.000000    0.000000


 **********************************************************************************************************************************
 DATASETS  * FILE   NREC   LENGTH (MB)   RECORD NAMES
              1      19       47.44       500      610      700      900      950      970     1000      129      960     1100   
                                          VAR    BASINP    GEOM    SYMINP    ZMAT    AOBASIS   BASIS     P2S    ABASIS      S 
                                         1400     1410     1200     1210     1080     1600     1650     1300     1700   
                                           T        V       H0       H01     AOSYM     SMH    MOLCAS    ERIS     OPER   

 PROGRAMS   *        TOTAL       INT
 CPU TIMES  *         1.03      0.89
 REAL TIME  *         1.46 SEC
 DISK USED  *       105.25 MB      
 **********************************************************************************************************************************

 Density functional group MM05-2X=M052XX+M052XC
 Functional: M052XX(Automatically generated (new) M052XX)                      Gradient terms: 2
 Functional: M052XC(Automatically generated (new) M052XC)                      Gradient terms: 2
 Use grid at  1800.2


 Exact exchange will be calculated, factor:  0.5600

 Functional: M052XX                    Factor:  0.4400
 Functional: M052XC                    Factor:  1.0000

 Generated new metagrid on record  1800.2 with target accuracy 1.0D-06 and 32470 points in CPU time    0.7
 Computed new grid on record 1800.1 in CPU time    0.8
  123858 words reserved for DFT integration

 PROGRAM * UKS-SCF (Unrestricted Kohn-Sham)     Authors: W. Meyer, H.-J. Werner, P.J. Knowles, 1993

 NUMBER OF ELECTRONS:      13+   12-    SPACE SYMMETRY=1    SPIN SYMMETRY: Doublet 
 CONVERGENCE THRESHOLDS:    1.00E-05 (Density)    1.00E-06 (Energy)
 MAX. NUMBER OF ITERATIONS:       60
 INTERPOLATION TYPE:            DIIS
 INTERPOLATION STEPS:              2 (START)      1 (STEP)
 LEVEL SHIFTS:                 -0.20 (ALPHA)  -0.20 (BETA) 



 Use fine grid record 1800.2 for energy threshold  1.0D-06
 Orbital guess generated from atomic densities. Full valence occupancy:   13

 Molecular orbital dump at record        2200.2

 Initial alpha occupation  13
 Initial beta  occupation  12

 ITERATION    DDIFF          GRAD             ENERGY        2-EL.EN.            DIPOLE MOMENTS         DIIS
    1      0.000D+00      0.000D+00      -118.27768494    248.033020    0.22283   -0.27448    0.00000    0
    2      0.787D-02      0.447D-02      -118.34360294    242.000993    0.10261   -0.14993   -0.00000    1
    3      0.191D-02      0.131D-02      -118.34912674    242.952709    0.07379   -0.13612   -0.00000    2
    4      0.138D-02      0.489D-03      -118.35104893    242.883726    0.04801   -0.11527   -0.00000    3
    5      0.578D-03      0.172D-03      -118.35129762    242.860690    0.03972   -0.10712   -0.00000    4
    6      0.199D-03      0.575D-04      -118.35133205    242.860465    0.03820   -0.10464   -0.00000    5
    7      0.403D-04      0.175D-04      -118.35133424    242.858791    0.03763   -0.10374   -0.00000    6
    8      0.156D-04      0.528D-05      -118.35133441    242.859884    0.03767   -0.10366   -0.00000    7
    9      0.483D-05      0.127D-05      -118.35133443    242.859791    0.03773   -0.10368   -0.00000    7
   10      0.172D-05      0.473D-06      -118.35133443    242.859854    0.03774   -0.10368   -0.00000    6

 Final alpha occupancy:  13
 Final beta  occupancy:  12

 !UKS STATE 1.1 Energy               -118.351334432366
 Nuclear energy                        75.20704826
 One-electron energy                 -306.26690492
 Two-electron energy                  121.42992711
 Density functional                    -8.72140488     M052XX=-17.93125732 M052XC= -0.83165166
 Virial quotient                       -1.01329127
 !UKS STATE 1.1 Dipole moment           0.03773517    -0.10368250    -0.00000000
 Dipole moment /Debye                   0.09590696    -0.26351736    -0.00000000

 Orbital energies for positive spin:

         1.1          2.1          3.1          4.1          5.1          6.1          7.1          8.1          9.1         10.1
    -10.576348   -10.568776   -10.568756    -0.876567    -0.780159    -0.648645    -0.525634    -0.500378    -0.478378    -0.452748

        11.1         12.1         13.1         14.1         15.1
     -0.419329    -0.411078    -0.236829     0.118938     0.149218

 Orbital energies for negative spin:

         1.1          2.1          3.1          4.1          5.1          6.1          7.1          8.1          9.1         10.1
    -10.569577   -10.569569   -10.564549    -0.856803    -0.775683    -0.624696    -0.518373    -0.477703    -0.470392    -0.443244

        11.1         12.1         13.1         14.1         15.1
     -0.414626    -0.405529     0.012319     0.116815     0.151951

 HOMO     13.1    -0.236829 =      -6.4444eV
 LUMO    -13.1     0.012319 =       0.3352eV
 LUMO-HOMO         0.249147 =       6.7796eV

 EXPECTATION VALUE OF S**2:             0.75394204

 Occupation number threshold for canonical orbitals:  1.999000 (occupied),  0.001000 (virtual)

 Number of pseudo-canonical orbitals per symmetry:   12
 Number of active natural orbitals per symmetry:      1

 Natural orbitals saved to record    2200.2 (Orbital set 3)

 Orbital spaces for UNO-CAS (Min. occupation: 0.020  Max. occupation: 1.980):

 Closed:       12
 Active:        1


 **********************************************************************************************************************************
 DATASETS  * FILE   NREC   LENGTH (MB)   RECORD NAMES
              1      20       48.47       500      610      700      900      950      970     1000      129      960     1100   
                                          VAR    BASINP    GEOM    SYMINP    ZMAT    AOBASIS   BASIS     P2S    ABASIS      S 
                                         1400     1410     1200     1210     1080     1600     1650     1300     1700     1800   
                                           T        V       H0       H01     AOSYM     SMH    MOLCAS    ERIS     OPER     GRID   

              2       5        3.16       700     1000      520     1800     2200   
                                         GEOM     BASIS   MCVARS    GRID      UKS  

 PROGRAMS   *        TOTAL       UKS       INT
 CPU TIMES  *        27.45     26.42      0.89
 REAL TIME  *        28.06 SEC
 DISK USED  *       105.25 MB      
 **********************************************************************************************************************************


 PROGRAM * Intrinsic Basis Bonding Analysis (IBBA)          Author: G. Knizia

 Molecular orbitals read from record     2200.2  Type=UKS/ALPHA (state 1.1)
 Fock matrix read from record            2200.2  Type=UKS/TOTAL (state 1.1)
 Orbital energies read from record       2200.2  Type=UKS/ALPHA (state 1.1)
 Density matrix read from record         2200.2  Type=UKS/CHARGE (state 1.1)

 Number of core orbitals:           3 (   3 )
 Number of closed-shell orbitals:   9 (   9 )
 Number of active  orbitals:        1 (   1 )

 Basis set MINAO-AUTO-PP generated.      Number of basis functions:   22 

 Polarized AO type:                A = (O Ot + (1-O)(1-Ot)) P12
 Orthogonalization method:         Symmetric (Loewdin)
 Localization functional:          L = sum[A,i] <i|n_A|i>^4 -> max

 Localization group 1:  12 orbitals, occupancy  2.000
 Iterative localization: IB/PM,    8 iter; Final gradient 0.43E-09

 Bond order analysis:       [THRPRINT= 0.020]

   CEN ATOM   CEN ATOM     WIBERG.BO      RENORM.BO
     1   H  -   2   C       0.947980       0.971153

     2   C  -   3   C       1.178255       1.482788
     2   C  -   4   C       1.178255       1.482788
     2   C  -   1   H       0.947980       0.971153
     2   C  -   9   H       0.068807       0.271721
     2   C  -  10   H       0.068807       0.271721
     2   C  -   7   H       0.022248       0.080596
     2   C  -   8   H       0.022248       0.080596

     3   C  -   2   C       1.178255       1.482788
     3   C  -   5   H       0.950552       0.989619
     3   C  -   7   H       0.931762       0.988897
     3   C  -   9   H       0.863171       0.996495

     4   C  -   2   C       1.178255       1.482788
     4   C  -   6   H       0.950552       0.989619
     4   C  -   8   H       0.931762       0.988897
     4   C  -  10   H       0.863171       0.996495

     5   H  -   3   C       0.950552       0.989619

     6   H  -   4   C       0.950552       0.989619

     7   H  -   3   C       0.931762       0.988897
     7   H  -   2   C       0.022248       0.080596

     8   H  -   4   C       0.931762       0.988897
     8   H  -   2   C       0.022248       0.080596

     9   H  -   3   C       0.863171       0.996495
     9   H  -   2   C       0.068807       0.271721

    10   H  -   4   C       0.863171       0.996495
    10   H  -   2   C       0.068807       0.271721


 Valency analysis:

   CEN ATOM   TOT.VALENCE
     1   H       0.974710
     2   C       3.504902
     3   C       3.948593
     4   C       3.948593
     5   H       0.977870
     6   H       0.977870
     7   H       0.975194
     8   H       0.975194
     9   H       0.957555
    10   H       0.957555
 Localization group 2:   1 orbitals, occupancy  1.000
 Iterative localization: IB/PM,    1 iter; Final gradient 0.00E+00

 Bond order analysis:       [THRPRINT= 0.020]

   CEN ATOM   CEN ATOM     WIBERG.BO      RENORM.BO

     2   C  -   9   H       0.100150       0.500000
     2   C  -  10   H       0.100150       0.500000
     2   C  -   7   H       0.031647       0.500000
     2   C  -   8   H       0.031647       0.500000
     2   C  -   3   C       0.020971       0.500000
     2   C  -   4   C       0.020971       0.500000

     3   C  -   2   C       0.020971       0.500000

     4   C  -   2   C       0.020971       0.500000



     7   H  -   2   C       0.031647       0.500000

     8   H  -   2   C       0.031647       0.500000

     9   H  -   2   C       0.100150       0.500000

    10   H  -   2   C       0.100150       0.500000


 Valency analysis:

   CEN ATOM   TOT.VALENCE
     1   H       0.001693
     2   C       0.328220
     3   C       0.026093
     4   C       0.026093
     5   H       0.013364
     6   H       0.013364
     7   H       0.039108
     8   H       0.039108
     9   H       0.118308
    10   H       0.118308

 Total charge composition:

   CEN ATOM         s          p       ELECTRONS ->P.CHARGE
     1   H       0.84182                 0.84182    0.15818
     2   C       3.03546    3.27697      6.31243   -0.31243
     3   C       2.99698    3.34836      6.34534   -0.34534
     4   C       2.99698    3.34836      6.34534   -0.34534
     5   H       0.85797                 0.85797    0.14203
     6   H       0.85797                 0.85797    0.14203
     7   H       0.86245                 0.86245    0.13755
     8   H       0.86245                 0.86245    0.13755
     9   H       0.85712                 0.85712    0.14288
    10   H       0.85712                 0.85712    0.14288

 Total charge composition, AO contributions:

   CEN ATOM SHL      SPHERICAL COMPONENTS
     1   H  1s       0.84182

     2   C  1s       1.99205
     2   C  2s       1.04341
     2   C  2p       1.13674    1.10566    1.03458

     3   C  1s       1.99055
     3   C  2s       1.00643
     3   C  2p       1.13912    1.12671    1.08252

     4   C  1s       1.99055
     4   C  2s       1.00643
     4   C  2p       1.13912    1.12671    1.08252

     5   H  1s       0.85797

     6   H  1s       0.85797

     7   H  1s       0.86245

     8   H  1s       0.86245

     9   H  1s       0.85712

    10   H  1s       0.85712

 Active orbital charges:

   CEN ATOM         s          p       ELECTRONS ->SPIN.DEN
     1   H       0.00085                 0.00085    0.00085
     2   C       0.00566    0.78741      0.79307    0.79307
     3   C       0.00012    0.01310      0.01322    0.01322
     4   C       0.00012    0.01310      0.01322    0.01322
     5   H       0.00673                 0.00673    0.00673
     6   H       0.00673                 0.00673    0.00673
     7   H       0.01995                 0.01995    0.01995
     8   H       0.01995                 0.01995    0.01995
     9   H       0.06314                 0.06314    0.06314
    10   H       0.06314                 0.06314    0.06314

 Active orbital charges, AO contributions:

   CEN ATOM SHL      SPHERICAL COMPONENTS
     1   H  1s       0.00085

     2   C  1s       0.00001
     2   C  2s       0.00565
     2   C  2p       0.03256    0.75485    0.00000

     3   C  1s       0.00000
     3   C  2s       0.00012
     3   C  2p       0.00012    0.01286    0.00012

     4   C  1s       0.00000
     4   C  2s       0.00012
     4   C  2p       0.00012    0.01286    0.00012

     5   H  1s       0.00673

     6   H  1s       0.00673

     7   H  1s       0.01995

     8   H  1s       0.01995

     9   H  1s       0.06314

    10   H  1s       0.06314

 Summary of localized orbital composition:   [THRPRINT= 0.020]

   ORB  GRP  ORB.ENERGY      CENTERS/CHARGES
     1   1   -10.464559      C  2   2.000
     2   1   -10.450659      C  4   2.000
     3   1   -10.450659      C  3   2.000
     4   1    -0.679044      C  2   1.015   C  3   0.977
     5   1    -0.679044      C  2   1.015   C  4   0.977
     6   1    -0.593547      C  2   1.157   H  1   0.831
     7   1    -0.572909      C  4   1.095   H 10   0.787   C  2   0.112
     8   1    -0.572909      C  3   1.095   H  9   0.787   C  2   0.112
     9   1    -0.569508      C  3   1.132   H  5   0.845   (other: 0.023)
    10   1    -0.569508      C  4   1.132   H  6   0.845   (other: 0.023)
    11   1    -0.569424      C  4   1.120   H  8   0.836   C  2   0.036
    12   1    -0.569424      C  3   1.120   H  7   0.836   C  2   0.036
    13   2    -0.110631      C  2   0.793   H  9   0.063   H 10   0.063   (other: 0.081)

 Localized orbitals saved to record      2200.2  (orbital set 4)


 **********************************************************************************************************************************
 DATASETS  * FILE   NREC   LENGTH (MB)   RECORD NAMES
              1      20       48.47       500      610      700      900      950      970     1000      129      960     1100   
                                          VAR    BASINP    GEOM    SYMINP    ZMAT    AOBASIS   BASIS     P2S    ABASIS      S 
                                         1400     1410     1200     1210     1080     1600     1650     1300     1700     1800   
                                           T        V       H0       H01     AOSYM     SMH    MOLCAS    ERIS     OPER     GRID   

              2       5        3.21       700     1000      520     1800     2200   
                                         GEOM     BASIS   MCVARS    GRID      UKS  

 PROGRAMS   *        TOTAL      IBBA       UKS       INT
 CPU TIMES  *        27.49      0.04     26.42      0.89
 REAL TIME  *        28.14 SEC
 DISK USED  *       105.25 MB      
 **********************************************************************************************************************************
 Molecular orbitals read from record     2200.2  Type=UKS/LOCAL(IBO)  
 Occupation numbers read from record     2200.2  Type=UKS/LOCAL(IBO)  
 Orbital energies read from record       2200.2  Type=UKS/LOCAL(IBO)  
 Redundancy group numbers read from rec  2200.2  Type=UKS/BETA (state 1.1)

 IBBA/SVP energy=      0.000000000000

        UKS-SCF 
   -118.35133443
 **********************************************************************************************************************************
 Molpro calculation terminated
