
 Primary working directories    : /tmp/sb13343
 Secondary working directories  : /tmp/sb13343
 Wavefunction directory         : /panfs/panasas01/chem/sb13343/wfu/
 Main file repository           : /tmp/sb13343/

 SHA1      : b4a5b34a9e711420743f49e6833241d17c61fb3c
 NAME      : 2099.9.b4a5b34
 ARCHNAME  : linux/x86_64_openmp
 FC        : /cm/shared/languages/GCC-6.1/bin/gfortran
 BLASLIB   : -lblas
 id        : simonbennie

 Nodes     nprocs
 node32-017    1

 Using customized tuning parameters: mindgm=1; mindgv=20; mindgc=4; mindgr=1; noblas=0; minvec=7
 default implementation of scratch files=df  

 memory,500,m
 geomtyp=xyz
 nosym
 noorient
 geometry={
 H         -1.57413        0.33845        0.00000
 C         -0.49500        0.20144        0.00000
 C          0.18857       -0.05954       -1.30114
 C          0.18857       -0.05954        1.30114
 H         -0.33790        0.40751       -2.14134
 H         -0.33790        0.40751        2.14134
 H          1.22176        0.31596       -1.29638
 H          1.22176        0.31596        1.29638
 H          0.25678       -1.13976       -1.52896
 H          0.25678       -1.13976        1.52896
 }
 basis={ default,svp }
 {uks,M05-2X,direct;wf,25,1,1}
 {ibba,bonds=1}

 Variables initialized (895), CPU time= 0.01 sec
 Commands  initialized (725), CPU time= 0.01 sec, 591 directives.
 Default parameters read. Elapsed time= 0.08 sec

 Checking input...
 Passed
1


                                         ***  PROGRAM SYSTEM MOLPRO  ***
                                       Copyright, TTI GmbH Stuttgart, 2015
                                    Version 2099.9 linked May 26 2017 16:03:21


 **********************************************************************************************************************************
 LABEL *                                                                                 
  64 bit serial version                                                                  DATE: 08-Jun-17          TIME: 15:32:33  
 **********************************************************************************************************************************

 SHA1:             b4a5b34a9e711420743f49e6833241d17c61fb3c
 **********************************************************************************************************************************
 SETTING GEOMTYP        =    XYZ

 Variable memory set to  500000000 words,  buffer space 

 ZSYMEL=NOSYM

 SETTING BASIS          =    SVP


 Recomputing integrals since basis changed


 Using spherical harmonics

 Library entry H      S def2-SVP             selected for orbital group  1
 Library entry H      P def2-SVP             selected for orbital group  1
 Library entry C      S def2-SVP             selected for orbital group  2
 Library entry C      P def2-SVP             selected for orbital group  2
 Library entry C      D def2-SVP             selected for orbital group  2


 PROGRAM * SEWARD (Integral evaluation for generally contracted gaussian basis sets)     Author: Roland Lindh, 1990

 Geometry written to block  1 of record 700


 Point group  C1  



 ATOMIC COORDINATES

 NR  ATOM    CHARGE       X              Y              Z

   1  H       1.00   -2.974674584    0.639577807    0.000000000
   2  C       6.00   -0.935414432    0.380666431    0.000000000
   3  C       6.00    0.356345655   -0.112514293   -2.458798250
   4  C       6.00    0.356345655   -0.112514293    2.458798250
   5  H       1.00   -0.638538457    0.770082293   -4.046546140
   6  H       1.00   -0.638538457    0.770082293    4.046546140
   7  H       1.00    2.308791790    0.597077866   -2.449803153
   8  H       1.00    2.308791790    0.597077866    2.449803153
   9  H       1.00    0.485243874   -2.153834248   -2.889315655
  10  H       1.00    0.485243874   -2.153834248    2.889315655

 Bond lengths in Bohr (Angstrom)

 1-2  2.055630578  2-3  2.820914777  2-4  2.820914777  3-5  2.071162595  3-7  2.077413742
     ( 1.087792856)     ( 1.492763814)     ( 1.492763814)     ( 1.096012045)     ( 1.099320010)

  3- 9  2.090202656   4- 6  2.071162595   4- 8  2.077413742   4-10  2.090202656
       ( 1.106087612)       ( 1.096012045)       ( 1.099320010)       ( 1.106087612)

 Bond angles

  1-2-3  118.44375943   1-2-4  118.44375943   2-3-5  111.94558337   2-3-7  111.52358867

  2- 3- 9  112.24140213   2- 4- 6  111.94558337   2- 4- 8  111.52358867   2- 4-10  112.24140213

  3-2-4  121.29758064   5-3-7  108.01204745   5-3-9  106.73207413   6-4-8  108.01204745

  6- 4-10  106.73207413   7- 3- 9  106.05262855   8- 4-10  106.05262855

 NUCLEAR CHARGE:                   25
 NUMBER OF PRIMITIVE AOS:         124
 NUMBER OF SYMMETRY AOS:          121
 NUMBER OF CONTRACTIONS:           77   (  77A   )
 NUMBER OF CORE ORBITALS:           3   (   3A   )
 NUMBER OF VALENCE ORBITALS:       19   (  19A   )


 NUCLEAR REPULSION ENERGY   75.20704826


 Eigenvalues of metric

         1 0.402E-02 0.537E-02 0.229E-01 0.265E-01 0.266E-01 0.379E-01 0.436E-01 0.492E-01


 Contracted 2-electron integrals neglected if value below      1.0D-11
 AO integral compression algorithm  1   Integral accuracy      1.0D-11

     19.923 MB (compressed) written to integral file ( 49.4%)


 NUMBER OF SORTED TWO-ELECTRON INTEGRALS:    4510506.     BUFFER LENGTH:  32768
 NUMBER OF SEGMENTS:   1  SEGMENT LENGTH:    4510506      RECORD LENGTH: 524288

 Memory used in sort:       5.07 MW

 SORT1 READ     5074366. AND WROTE     4244391. INTEGRALS IN     13 RECORDS. CPU TIME:     0.05 SEC, REAL TIME:     0.11 SEC
 SORT2 READ     4244391. AND WROTE     4510506. INTEGRALS IN     76 RECORDS. CPU TIME:     0.13 SEC, REAL TIME:     0.18 SEC

 FILE SIZES:   FILE 1:    50.3 MBYTE,  FILE 4:    54.6 MBYTE,   TOTAL:    104.8 MBYTE

 OPERATOR DM      FOR CENTER  0  COORDINATES:    0.000000    0.000000    0.000000


 **********************************************************************************************************************************
 DATASETS  * FILE   NREC   LENGTH (MB)   RECORD NAMES
              1      19       47.44       500      610      700      900      950      970     1000      129      960     1100   
                                          VAR    BASINP    GEOM    SYMINP    ZMAT    AOBASIS   BASIS     P2S    ABASIS      S 
                                         1400     1410     1200     1210     1080     1600     1650     1300     1700   
                                           T        V       H0       H01     AOSYM     SMH    MOLCAS    ERIS     OPER   

 PROGRAMS   *        TOTAL       INT
 CPU TIMES  *         1.17      1.04
 REAL TIME  *         1.63 SEC
 DISK USED  *       105.25 MB      
 **********************************************************************************************************************************

 Density functional group M05-2X=XC-M05-2X
 Functional: XC-M05-2X(via MFM 1.6)                                            Gradient terms: 1
 Use grid at  1800.2


 Exact exchange will be calculated, factor:  0.5600

 Functional: XC-M05-2X                 Factor:  1.0000

 Generated new metagrid on record  1800.2 with target accuracy 1.0D-06 and 32470 points in CPU time    0.7
 Computed new grid on record 1800.1 in CPU time    0.8
   65184 words reserved for DFT integration

 PROGRAM * UKS-SCF (Unrestricted Kohn-Sham)     Authors: W. Meyer, H.-J. Werner, P.J. Knowles, 1993

 NUMBER OF ELECTRONS:      13+   12-    SPACE SYMMETRY=1    SPIN SYMMETRY: Doublet 
 CONVERGENCE THRESHOLDS:    1.00E-05 (Density)    1.00E-06 (Energy)
 MAX. NUMBER OF ITERATIONS:       60
 INTERPOLATION TYPE:            DIIS
 INTERPOLATION STEPS:              2 (START)      1 (STEP)
 LEVEL SHIFTS:                 -0.20 (ALPHA)  -0.20 (BETA) 



 Use fine grid record 1800.2 for energy threshold  1.0D-06
 Orbital guess generated from atomic densities. Full valence occupancy:   13

 Molecular orbital dump at record        2200.2

 Initial alpha occupation  13
 Initial beta  occupation  12

 ITERATION    DDIFF          GRAD             ENERGY        2-EL.EN.            DIPOLE MOMENTS         DIIS
    1      0.000D+00      0.000D+00      -118.30733459    248.032999    0.22284   -0.27448    0.00000    0
    2      0.793D-02      0.447D-02      -118.37268594    241.964291    0.10303   -0.15115   -0.00000    1
    3      0.191D-02      0.127D-02      -118.37840847    242.917346    0.07554   -0.13702   -0.00000    2
    4      0.136D-02      0.464D-03      -118.38025946    242.853915    0.05115   -0.11650   -0.00000    3
    5      0.577D-03      0.165D-03      -118.38037770    242.833282    0.04308   -0.10869   -0.00000    4
    6      0.207D-03      0.567D-04      -118.38030645    242.833793    0.04183   -0.10661   -0.00000    5
    7      0.434D-04      0.179D-04      -118.38026689    242.832387    0.04133   -0.10586   -0.00000    6
    8      0.152D-04      0.501D-05      -118.38026070    242.833607    0.04140   -0.10585   -0.00000    7
    9      0.449D-05      0.110D-05      -118.38026143    242.833524    0.04147   -0.10590   -0.00000    7
   10      0.158D-05      0.376D-06      -118.38026293    242.833564    0.04148   -0.10590   -0.00000    6

 Final alpha occupancy:  13
 Final beta  occupancy:  12

 !UKS STATE 1.1 Energy               -118.380262934560
 Nuclear energy                        75.20704826
 One-electron energy                 -306.25511201
 Two-electron energy                  121.41678218
 Density functional                    -8.74898136     XC-M05-2X=-8.74898136
 Virial quotient                       -1.01367539
 !UKS STATE 1.1 Dipole moment           0.04148003    -0.10589834    -0.00000000
 Dipole moment /Debye                   0.10542481    -0.26914911    -0.00000000

 Orbital energies for positive spin:

         1.1          2.1          3.1          4.1          5.1          6.1          7.1          8.1          9.1         10.1
    -10.575599   -10.570586   -10.570564    -0.877009    -0.781055    -0.649172    -0.526153    -0.501035    -0.479029    -0.453697

        11.1         12.1         13.1         14.1         15.1
     -0.419982    -0.411804    -0.236430     0.118574     0.148993

 Orbital energies for negative spin:

         1.1          2.1          3.1          4.1          5.1          6.1          7.1          8.1          9.1         10.1
    -10.571168   -10.571158   -10.563226    -0.859069    -0.776355    -0.626494    -0.519738    -0.478738    -0.471547    -0.443608

        11.1         12.1         13.1         14.1         15.1
     -0.414645    -0.404525     0.007077     0.113538     0.148905

 HOMO     13.1    -0.236430 =      -6.4336eV
 LUMO    -13.1     0.007077 =       0.1926eV
 LUMO-HOMO         0.243508 =       6.6262eV

 EXPECTATION VALUE OF S**2:             0.75339059

 Occupation number threshold for canonical orbitals:  1.999000 (occupied),  0.001000 (virtual)

 Number of pseudo-canonical orbitals per symmetry:   12
 Number of active natural orbitals per symmetry:      1

 Natural orbitals saved to record    2200.2 (Orbital set 3)

 Orbital spaces for UNO-CAS (Min. occupation: 0.020  Max. occupation: 1.980):

 Closed:       12
 Active:        1


 **********************************************************************************************************************************
 DATASETS  * FILE   NREC   LENGTH (MB)   RECORD NAMES
              1      20       48.47       500      610      700      900      950      970     1000      129      960     1100   
                                          VAR    BASINP    GEOM    SYMINP    ZMAT    AOBASIS   BASIS     P2S    ABASIS      S 
                                         1400     1410     1200     1210     1080     1600     1650     1300     1700     1800   
                                           T        V       H0       H01     AOSYM     SMH    MOLCAS    ERIS     OPER     GRID   

              2       5        3.16       700     1000      520     1800     2200   
                                         GEOM     BASIS   MCVARS    GRID      UKS  

 PROGRAMS   *        TOTAL       UKS       INT
 CPU TIMES  *        17.96     16.79      1.04
 REAL TIME  *        19.15 SEC
 DISK USED  *       105.25 MB      
 **********************************************************************************************************************************


 PROGRAM * Intrinsic Basis Bonding Analysis (IBBA)          Author: G. Knizia

 Molecular orbitals read from record     2200.2  Type=UKS/ALPHA (state 1.1)
 Fock matrix read from record            2200.2  Type=UKS/TOTAL (state 1.1)
 Orbital energies read from record       2200.2  Type=UKS/ALPHA (state 1.1)
 Density matrix read from record         2200.2  Type=UKS/CHARGE (state 1.1)

 Number of core orbitals:           3 (   3 )
 Number of closed-shell orbitals:   9 (   9 )
 Number of active  orbitals:        1 (   1 )

 Basis set MINAO-AUTO-PP generated.      Number of basis functions:   22 

 Polarized AO type:                A = (O Ot + (1-O)(1-Ot)) P12
 Orthogonalization method:         Symmetric (Loewdin)
 Localization functional:          L = sum[A,i] <i|n_A|i>^4 -> max

 Localization group 1:  12 orbitals, occupancy  2.000
 Iterative localization: IB/PM,    8 iter; Final gradient 0.39E-09

 Bond order analysis:       [THRPRINT= 0.020]

   CEN ATOM   CEN ATOM     WIBERG.BO      RENORM.BO
     1   H  -   2   C       0.948645       0.971189

     2   C  -   3   C       1.176838       1.483093
     2   C  -   4   C       1.176838       1.483093
     2   C  -   1   H       0.948645       0.971189
     2   C  -   9   H       0.068153       0.272173
     2   C  -  10   H       0.068153       0.272173
     2   C  -   7   H       0.022074       0.080889
     2   C  -   8   H       0.022074       0.080889

     3   C  -   2   C       1.176838       1.483093
     3   C  -   5   H       0.950376       0.989679
     3   C  -   7   H       0.931828       0.988956
     3   C  -   9   H       0.864069       0.996532

     4   C  -   2   C       1.176838       1.483093
     4   C  -   6   H       0.950376       0.989679
     4   C  -   8   H       0.931828       0.988956
     4   C  -  10   H       0.864069       0.996532

     5   H  -   3   C       0.950376       0.989679

     6   H  -   4   C       0.950376       0.989679

     7   H  -   3   C       0.931828       0.988956
     7   H  -   2   C       0.022074       0.080889

     8   H  -   4   C       0.931828       0.988956
     8   H  -   2   C       0.022074       0.080889

     9   H  -   3   C       0.864069       0.996532
     9   H  -   2   C       0.068153       0.272173

    10   H  -   4   C       0.864069       0.996532
    10   H  -   2   C       0.068153       0.272173


 Valency analysis:

   CEN ATOM   TOT.VALENCE
     1   H       0.975297
     2   C       3.500991
     3   C       3.947699
     4   C       3.947699
     5   H       0.977563
     6   H       0.977563
     7   H       0.974925
     8   H       0.974925
     9   H       0.957408
    10   H       0.957408
 Localization group 2:   1 orbitals, occupancy  1.000
 Iterative localization: IB/PM,    1 iter; Final gradient 0.00E+00

 Bond order analysis:       [THRPRINT= 0.020]

   CEN ATOM   CEN ATOM     WIBERG.BO      RENORM.BO

     2   C  -   9   H       0.099737       0.500000
     2   C  -  10   H       0.099737       0.500000
     2   C  -   7   H       0.031558       0.500000
     2   C  -   8   H       0.031558       0.500000
     2   C  -   3   C       0.020569       0.500000
     2   C  -   4   C       0.020569       0.500000

     3   C  -   2   C       0.020569       0.500000

     4   C  -   2   C       0.020569       0.500000



     7   H  -   2   C       0.031558       0.500000

     8   H  -   2   C       0.031558       0.500000

     9   H  -   2   C       0.099737       0.500000

    10   H  -   2   C       0.099737       0.500000


 Valency analysis:

   CEN ATOM   TOT.VALENCE
     1   H       0.001665
     2   C       0.326333
     3   C       0.025548
     4   C       0.025548
     5   H       0.013301
     6   H       0.013301
     7   H       0.038923
     8   H       0.038923
     9   H       0.117631
    10   H       0.117631

 Total charge composition:

   CEN ATOM         s          p       ELECTRONS ->P.CHARGE
     1   H       0.84366                 0.84366    0.15634
     2   C       3.03366    3.27052      6.30418   -0.30418
     3   C       2.99818    3.35311      6.35129   -0.35129
     4   C       2.99818    3.35311      6.35129   -0.35129
     5   H       0.85690                 0.85690    0.14310
     6   H       0.85690                 0.85690    0.14310
     7   H       0.86151                 0.86151    0.13849
     8   H       0.86151                 0.86151    0.13849
     9   H       0.85638                 0.85638    0.14362
    10   H       0.85638                 0.85638    0.14362

 Total charge composition, AO contributions:

   CEN ATOM SHL      SPHERICAL COMPONENTS
     1   H  1s       0.84366

     2   C  1s       1.99206
     2   C  2s       1.04160
     2   C  2p       1.13472    1.10371    1.03209

     3   C  1s       1.99054
     3   C  2s       1.00764
     3   C  2p       1.14049    1.12818    1.08445

     4   C  1s       1.99054
     4   C  2s       1.00764
     4   C  2p       1.14049    1.12818    1.08445

     5   H  1s       0.85690

     6   H  1s       0.85690

     7   H  1s       0.86151

     8   H  1s       0.86151

     9   H  1s       0.85638

    10   H  1s       0.85638

 Active orbital charges:

   CEN ATOM         s          p       ELECTRONS ->SPIN.DEN
     1   H       0.00083                 0.00083    0.00083
     2   C       0.00571    0.78897      0.79468    0.79468
     3   C       0.00012    0.01282      0.01294    0.01294
     4   C       0.00012    0.01282      0.01294    0.01294
     5   H       0.00670                 0.00670    0.00670
     6   H       0.00670                 0.00670    0.00670
     7   H       0.01986                 0.01986    0.01986
     8   H       0.01986                 0.01986    0.01986
     9   H       0.06275                 0.06275    0.06275
    10   H       0.06275                 0.06275    0.06275

 Active orbital charges, AO contributions:

   CEN ATOM SHL      SPHERICAL COMPONENTS
     1   H  1s       0.00083

     2   C  1s       0.00001
     2   C  2s       0.00570
     2   C  2p       0.03259    0.75637    0.00000

     3   C  1s       0.00000
     3   C  2s       0.00012
     3   C  2p       0.00012    0.01259    0.00012

     4   C  1s       0.00000
     4   C  2s       0.00012
     4   C  2p       0.00012    0.01259    0.00012

     5   H  1s       0.00670

     6   H  1s       0.00670

     7   H  1s       0.01986

     8   H  1s       0.01986

     9   H  1s       0.06275

    10   H  1s       0.06275

 Summary of localized orbital composition:   [THRPRINT= 0.020]

   ORB  GRP  ORB.ENERGY      CENTERS/CHARGES
     1   1   -10.463566      C  2   2.000
     2   1   -10.452226      C  4   2.000
     3   1   -10.452226      C  3   2.000
     4   1    -0.680133      C  2   1.013   C  3   0.980
     5   1    -0.680133      C  2   1.013   C  4   0.980
     6   1    -0.594112      C  2   1.156   H  1   0.833
     7   1    -0.573955      C  4   1.097   H 10   0.787   C  2   0.110
     8   1    -0.573955      C  3   1.097   H  9   0.787   C  2   0.110
     9   1    -0.570213      C  4   1.121   H  8   0.836   C  2   0.036
    10   1    -0.570213      C  3   1.121   H  7   0.836   C  2   0.036
    11   1    -0.570194      C  3   1.133   H  5   0.844   (other: 0.023)
    12   1    -0.570194      C  4   1.133   H  6   0.844   (other: 0.023)
    13   2    -0.111275      C  2   0.795   H  9   0.063   H 10   0.063   (other: 0.080)

 Localized orbitals saved to record      2200.2  (orbital set 4)


 **********************************************************************************************************************************
 DATASETS  * FILE   NREC   LENGTH (MB)   RECORD NAMES
              1      20       48.47       500      610      700      900      950      970     1000      129      960     1100   
                                          VAR    BASINP    GEOM    SYMINP    ZMAT    AOBASIS   BASIS     P2S    ABASIS      S 
                                         1400     1410     1200     1210     1080     1600     1650     1300     1700     1800   
                                           T        V       H0       H01     AOSYM     SMH    MOLCAS    ERIS     OPER     GRID   

              2       5        3.21       700     1000      520     1800     2200   
                                         GEOM     BASIS   MCVARS    GRID      UKS  

 PROGRAMS   *        TOTAL      IBBA       UKS       INT
 CPU TIMES  *        17.99      0.03     16.79      1.04
 REAL TIME  *        19.28 SEC
 DISK USED  *       105.25 MB      
 **********************************************************************************************************************************
 Molecular orbitals read from record     2200.2  Type=UKS/LOCAL(IBO)  
 Occupation numbers read from record     2200.2  Type=UKS/LOCAL(IBO)  
 Orbital energies read from record       2200.2  Type=UKS/LOCAL(IBO)  
 Redundancy group numbers read from rec  2200.2  Type=UKS/BETA (state 1.1)

 IBBA/SVP energy=      0.000000000000

        UKS-SCF 
   -118.38026293
 **********************************************************************************************************************************
 Molpro calculation terminated
