
 Primary working directories    : /tmp/sb13343
 Secondary working directories  : /tmp/sb13343
 Wavefunction directory         : /panfs/panasas01/chem/sb13343/wfu/
 Main file repository           : /tmp/sb13343/

 SHA1      : b4a5b34a9e711420743f49e6833241d17c61fb3c
 NAME      : 2099.9.b4a5b34
 ARCHNAME  : linux/x86_64_openmp
 FC        : /cm/shared/languages/GCC-6.1/bin/gfortran
 BLASLIB   : -lblas
 id        : simonbennie

 Nodes     nprocs
 node32-002    1

 Using customized tuning parameters: mindgm=1; mindgv=20; mindgc=4; mindgr=1; noblas=0; minvec=7
 default implementation of scratch files=df  

 memory,500,m
 geomtyp=xyz
 nosym
 noorient
 geometry={
 H         -1.57413        0.33845        0.00000
 C         -0.49500        0.20144        0.00000
 C          0.18857       -0.05954       -1.30114
 C          0.18857       -0.05954        1.30114
 H         -0.33790        0.40751       -2.14134
 H         -0.33790        0.40751        2.14134
 H          1.22176        0.31596       -1.29638
 H          1.22176        0.31596        1.29638
 H          0.25678       -1.13976       -1.52896
 H          0.25678       -1.13976        1.52896
 }
 basis={ default,sto-3g }
 {ks,CS,direct;wf,25,1,1}
 {ibba,bonds=1}

 Variables initialized (895), CPU time= 0.00 sec
 Commands  initialized (725), CPU time= 0.01 sec, 591 directives.
 Default parameters read. Elapsed time= 0.10 sec

 Checking input...
 Passed
1


                                         ***  PROGRAM SYSTEM MOLPRO  ***
                                       Copyright, TTI GmbH Stuttgart, 2015
                                    Version 2099.9 linked May 26 2017 16:03:21


 **********************************************************************************************************************************
 LABEL *                                                                                 
  64 bit serial version                                                                  DATE: 08-Jun-17          TIME: 15:05:21  
 **********************************************************************************************************************************

 SHA1:             b4a5b34a9e711420743f49e6833241d17c61fb3c
 **********************************************************************************************************************************
 SETTING GEOMTYP        =    XYZ

 Variable memory set to  500000000 words,  buffer space 

 ZSYMEL=NOSYM

 SETTING BASIS          =    STO-3G


 Recomputing integrals since basis changed


 Using spherical harmonics

 Library entry H      S STO-3G               selected for orbital group  1
 Library entry C      S STO-3G               selected for orbital group  2
 Library entry C      P STO-3G               selected for orbital group  2


 PROGRAM * SEWARD (Integral evaluation for generally contracted gaussian basis sets)     Author: Roland Lindh, 1990

 Geometry written to block  1 of record 700


 Point group  C1  



 ATOMIC COORDINATES

 NR  ATOM    CHARGE       X              Y              Z

   1  H       1.00   -2.974674584    0.639577807    0.000000000
   2  C       6.00   -0.935414432    0.380666431    0.000000000
   3  C       6.00    0.356345655   -0.112514293   -2.458798250
   4  C       6.00    0.356345655   -0.112514293    2.458798250
   5  H       1.00   -0.638538457    0.770082293   -4.046546140
   6  H       1.00   -0.638538457    0.770082293    4.046546140
   7  H       1.00    2.308791790    0.597077866   -2.449803153
   8  H       1.00    2.308791790    0.597077866    2.449803153
   9  H       1.00    0.485243874   -2.153834248   -2.889315655
  10  H       1.00    0.485243874   -2.153834248    2.889315655

 Bond lengths in Bohr (Angstrom)

 1-2  2.055630578  2-3  2.820914777  2-4  2.820914777  3-5  2.071162595  3-7  2.077413742
     ( 1.087792856)     ( 1.492763814)     ( 1.492763814)     ( 1.096012045)     ( 1.099320010)

  3- 9  2.090202656   4- 6  2.071162595   4- 8  2.077413742   4-10  2.090202656
       ( 1.106087612)       ( 1.096012045)       ( 1.099320010)       ( 1.106087612)

 Bond angles

  1-2-3  118.44375943   1-2-4  118.44375943   2-3-5  111.94558337   2-3-7  111.52358867

  2- 3- 9  112.24140213   2- 4- 6  111.94558337   2- 4- 8  111.52358867   2- 4-10  112.24140213

  3-2-4  121.29758064   5-3-7  108.01204745   5-3-9  106.73207413   6-4-8  108.01204745

  6- 4-10  106.73207413   7- 3- 9  106.05262855   8- 4-10  106.05262855

 NUCLEAR CHARGE:                   25
 NUMBER OF PRIMITIVE AOS:          66
 NUMBER OF SYMMETRY AOS:           66
 NUMBER OF CONTRACTIONS:           22   (  22A   )
 NUMBER OF CORE ORBITALS:           3   (   3A   )
 NUMBER OF VALENCE ORBITALS:       19   (  19A   )


 NUCLEAR REPULSION ENERGY   75.20704826


 Eigenvalues of metric

         1 0.213E+00 0.225E+00 0.288E+00 0.342E+00 0.359E+00 0.374E+00 0.380E+00 0.402E+00


 Contracted 2-electron integrals neglected if value below      1.0D-11
 AO integral compression algorithm  1   Integral accuracy      1.0D-11

     0.524 MB (compressed) written to integral file ( 89.6%)


 NUMBER OF SORTED TWO-ELECTRON INTEGRALS:      32131.     BUFFER LENGTH:  32768
 NUMBER OF SEGMENTS:   1  SEGMENT LENGTH:      32131      RECORD LENGTH: 524288

 Memory used in sort:       0.59 MW

 SORT1 READ       38209. AND WROTE       30689. INTEGRALS IN      1 RECORDS. CPU TIME:     0.01 SEC, REAL TIME:     0.01 SEC
 SORT2 READ       30689. AND WROTE       32131. INTEGRALS IN      2 RECORDS. CPU TIME:     0.00 SEC, REAL TIME:     0.02 SEC

 FILE SIZES:   FILE 1:    30.6 MBYTE,  FILE 4:     4.2 MBYTE,   TOTAL:     34.9 MBYTE

 OPERATOR DM      FOR CENTER  0  COORDINATES:    0.000000    0.000000    0.000000


 **********************************************************************************************************************************
 DATASETS  * FILE   NREC   LENGTH (MB)   RECORD NAMES
              1      19       30.27       500      610      700      900      950      970     1000      129      960     1100   
                                          VAR    BASINP    GEOM    SYMINP    ZMAT    AOBASIS   BASIS     P2S    ABASIS      S 
                                         1400     1410     1200     1210     1080     1600     1650     1300     1700   
                                           T        V       H0       H01     AOSYM     SMH    MOLCAS    ERIS     OPER   

 PROGRAMS   *        TOTAL       INT
 CPU TIMES  *         0.59      0.43
 REAL TIME  *         1.39 SEC
 DISK USED  *        35.29 MB      
 **********************************************************************************************************************************

 Density functional group CS=CS1
 Functional: CS1(Colle-Salvetti (Gradient form))                               Gradient terms: 1
 Use grid at  1800.2

 Functional: CS1                       Factor:  1.0000

 Generated new metagrid on record  1800.2 with target accuracy 1.0D-06 and 32470 points in CPU time    0.8
 Computed new grid on record 1800.1 in CPU time    0.8
   21722 words reserved for DFT integration

 PROGRAM * RKS-SCF (Restricted open shell Kohn-Sham)     Authors: W. Meyer, H.-J. Werner, P.J. Knowles, 1993

 NUMBER OF ELECTRONS:      13+   12-    SPACE SYMMETRY=1    SPIN SYMMETRY: Doublet 
 CONVERGENCE THRESHOLDS:    1.00E-05 (Density)    1.00E-06 (Energy)
 MAX. NUMBER OF ITERATIONS:       60
 INTERPOLATION TYPE:            DIIS
 INTERPOLATION STEPS:              2 (START)      1 (STEP)
 LEVEL SHIFTS:                 -0.60 (CLOSED) -0.30 (OPEN) 



 Use fine grid record 1800.2 for energy threshold  1.0D-06
 Orbital guess generated from atomic densities. Full valence occupancy:   13

 Molecular orbital dump at record        2100.2

 Initial alpha occupancy:  13
 Initial beta  occupancy:  12
 Wave function symmetry:    1

 ITERATION    DDIFF          GRAD             ENERGY        2-EL.EN.            DIPOLE MOMENTS         DIIS   ORB.
    1      0.000D+00      0.000D+00       -98.96862425    263.885299    0.16759   -0.22247    0.00000    0    start
    2      0.000D+00      0.162D-01       -99.00615398    259.717516    0.02401   -0.00304    0.00000    1    diag,B
    3      0.329D-01      0.528D-02       -99.01044142    260.721421    0.06389   -0.06896    0.00000    2    diag,B
    4      0.817D-02      0.266D-03       -99.01045838    260.712438    0.06345   -0.06934    0.00000    3    diag,B
    5      0.448D-03      0.635D-04       -99.01045955    260.711594    0.06332   -0.06941    0.00000    4    diag,B
    6      0.150D-03      0.970D-05       -99.01045959    260.711366    0.06335   -0.06942    0.00000    5    diag,B
    7      0.275D-04      0.216D-05       -99.01045959    260.711417    0.06334   -0.06940    0.00000    6    fixocc
    8      0.435D-05      0.648D-06       -99.01045959    260.711404    0.06334   -0.06941    0.00000    0    orth

 Final alpha occupancy:  13
 Final beta  occupancy:  12

 !RKS STATE 1.1 Energy                -99.010459589459
 Nuclear energy                        75.20704826
 One-electron energy                 -303.81202070
 Two-electron energy                  130.35570189
 Density functional                    -0.76118904     CS1=-0.76118904
 Virial quotient                       -0.87764046
 !RKS STATE 1.1 Dipole moment           0.06334187    -0.06940760     0.00000000
 Dipole moment /Debye                   0.16098842    -0.17640497     0.00000000

 Orbital energies:

         1.1          2.1          3.1          4.1          5.1          6.1          7.1          8.1          9.1         10.1
     -7.685358    -7.685150    -7.599073    -0.156517    -0.087465     0.029594     0.099962     0.116590     0.148356     0.164017

        11.1         12.1         13.1         14.1         15.1
      0.222083     0.226088     0.456220     0.815425     0.872869

 HOMO     13.1     0.456220 =      12.4144eV
 LUMO     14.1     0.815425 =      22.1888eV
 LUMO-HOMO         0.359205 =       9.7745eV


 **********************************************************************************************************************************
 DATASETS  * FILE   NREC   LENGTH (MB)   RECORD NAMES
              1      20       31.31       500      610      700      900      950      970     1000      129      960     1100   
                                          VAR    BASINP    GEOM    SYMINP    ZMAT    AOBASIS   BASIS     P2S    ABASIS      S 
                                         1400     1410     1200     1210     1080     1600     1650     1300     1700     1800   
                                           T        V       H0       H01     AOSYM     SMH    MOLCAS    ERIS     OPER     GRID   

              2       5        2.92       700     1000      520     1800     2100   
                                         GEOM     BASIS   MCVARS    GRID      RKS  

 PROGRAMS   *        TOTAL        KS       INT
 CPU TIMES  *         3.16      2.56      0.43
 REAL TIME  *         6.09 SEC
 DISK USED  *        35.29 MB      
 **********************************************************************************************************************************


 PROGRAM * Intrinsic Basis Bonding Analysis (IBBA)          Author: G. Knizia

 Molecular orbitals read from record     2100.2  Type=RKS/CANONICAL (state 1.1)
 Fock matrix read from record            2100.2  Type=RKS/TOTAL (state 1.1)
 Orbital energies read from record       2100.2  Type=RKS/CANONICAL (state 1.1)
 Density matrix read from record         2100.2  Type=RKS/CHARGE (state 1.1)

 Number of core orbitals:           3 (   3 )
 Number of closed-shell orbitals:   9 (   9 )
 Number of active  orbitals:        1 (   1 )

 Basis set MINAO-AUTO-PP generated.      Number of basis functions:   22 

 Polarized AO type:                A = (O Ot + (1-O)(1-Ot)) P12
 Orthogonalization method:         Symmetric (Loewdin)
 Localization functional:          L = sum[A,i] <i|n_A|i>^4 -> max

 Localization group 1:  12 orbitals, occupancy  2.000
 Iterative localization: IB/PM,    7 iter; Final gradient 0.99E-08

 Bond order analysis:       [THRPRINT= 0.020]

   CEN ATOM   CEN ATOM     WIBERG.BO      RENORM.BO
     1   H  -   2   C       0.966943       0.970123

     2   C  -   4   C       1.132379       1.496168
     2   C  -   3   C       1.132379       1.496168
     2   C  -   1   H       0.966943       0.970123
     2   C  -   9   H       0.060447       0.271979
     2   C  -  10   H       0.060447       0.271979
     2   C  -   7   H       0.021913       0.086237
     2   C  -   8   H       0.021913       0.086237

     3   C  -   2   C       1.132379       1.496168
     3   C  -   5   H       0.957076       0.987540
     3   C  -   7   H       0.943008       0.988209
     3   C  -   9   H       0.893106       0.997468

     4   C  -   2   C       1.132379       1.496168
     4   C  -   6   H       0.957076       0.987540
     4   C  -   8   H       0.943008       0.988209
     4   C  -  10   H       0.893106       0.997468

     5   H  -   3   C       0.957076       0.987540

     6   H  -   4   C       0.957076       0.987540

     7   H  -   3   C       0.943008       0.988209
     7   H  -   2   C       0.021913       0.086237

     8   H  -   4   C       0.943008       0.988209
     8   H  -   2   C       0.021913       0.086237

     9   H  -   3   C       0.893106       0.997468
     9   H  -   2   C       0.060447       0.271979

    10   H  -   4   C       0.893106       0.997468
    10   H  -   2   C       0.060447       0.271979


 Valency analysis:

   CEN ATOM   TOT.VALENCE
     1   H       0.998226
     2   C       3.419317
     3   C       3.948048
     4   C       3.948048
     5   H       0.993373
     6   H       0.993373
     7   H       0.991834
     8   H       0.991834
     9   H       0.981947
    10   H       0.981947
 Localization group 2:   1 orbitals, occupancy  1.000
 Iterative localization: IB/PM,    1 iter; Final gradient 0.00E+00

 Bond order analysis:       [THRPRINT= 0.020]

   CEN ATOM   CEN ATOM     WIBERG.BO      RENORM.BO

     2   C  -  10   H       0.104350       0.500000
     2   C  -   9   H       0.104350       0.500000
     2   C  -   7   H       0.035476       0.500000
     2   C  -   8   H       0.035476       0.500000





     7   H  -   2   C       0.035476       0.500000

     8   H  -   2   C       0.035476       0.500000

     9   H  -   2   C       0.104350       0.500000

    10   H  -   2   C       0.104350       0.500000


 Valency analysis:

   CEN ATOM   TOT.VALENCE
     1   H       0.000418
     2   C       0.325302
     3   C       0.010416
     4   C       0.010416
     5   H       0.017848
     6   H       0.017848
     7   H       0.043599
     8   H       0.043599
     9   H       0.122565
    10   H       0.122565

 Total charge composition:

   CEN ATOM         s          p       ELECTRONS ->P.CHARGE
     1   H       0.95809                 0.95809    0.04191
     2   C       2.91555    3.11089      6.02645   -0.02645
     3   C       2.87882    3.33815      6.21697   -0.21697
     4   C       2.87882    3.33815      6.21697   -0.21697
     5   H       0.92760                 0.92760    0.07240
     6   H       0.92760                 0.92760    0.07240
     7   H       0.93193                 0.93193    0.06807
     8   H       0.93193                 0.93193    0.06807
     9   H       0.93122                 0.93122    0.06878
    10   H       0.93122                 0.93122    0.06878

 Total charge composition, AO contributions:

   CEN ATOM SHL      SPHERICAL COMPONENTS
     1   H  1s       0.95809

     2   C  1s       1.99839
     2   C  2s       0.91716
     2   C  2p       1.06424    1.03829    1.00836

     3   C  1s       1.99804
     3   C  2s       0.88078
     3   C  2p       1.12003    1.10936    1.10876

     4   C  1s       1.99804
     4   C  2s       0.88078
     4   C  2p       1.12003    1.10936    1.10876

     5   H  1s       0.92760

     6   H  1s       0.92760

     7   H  1s       0.93193

     8   H  1s       0.93193

     9   H  1s       0.93122

    10   H  1s       0.93122

 Active orbital charges:

   CEN ATOM         s          p       ELECTRONS ->SPIN.DEN
     1   H       0.00021                 0.00021    0.00021
     2   C       0.00630    0.78925      0.79555    0.79555
     3   C       0.00006    0.00517      0.00524    0.00524
     4   C       0.00006    0.00517      0.00524    0.00524
     5   H       0.00901                 0.00901    0.00901
     6   H       0.00901                 0.00901    0.00901
     7   H       0.02230                 0.02230    0.02230
     8   H       0.02230                 0.02230    0.02230
     9   H       0.06558                 0.06558    0.06558
    10   H       0.06558                 0.06558    0.06558

 Active orbital charges, AO contributions:

   CEN ATOM SHL      SPHERICAL COMPONENTS
     1   H  1s       0.00021

     2   C  1s       0.00000
     2   C  2s       0.00629
     2   C  2p       0.03186    0.75739    0.00000

     3   C  1s       0.00000
     3   C  2s       0.00006
     3   C  2p       0.00003    0.00510    0.00005

     4   C  1s       0.00000
     4   C  2s       0.00006
     4   C  2p       0.00003    0.00510    0.00005

     5   H  1s       0.00901

     6   H  1s       0.00901

     7   H  1s       0.02230

     8   H  1s       0.02230

     9   H  1s       0.06558

    10   H  1s       0.06558

 Summary of localized orbital composition:   [THRPRINT= 0.020]

   ORB  GRP  ORB.ENERGY      CENTERS/CHARGES
     1   1    -7.600794      C  3   2.000
     2   1    -7.600794      C  4   2.000
     3   1    -7.520716      C  2   2.000
     4   1     0.029090      C  4   1.026   C  2   0.963
     5   1     0.029090      C  3   1.026   C  2   0.963
     6   1     0.057765      C  3   1.051   H  9   0.857   C  2   0.086
     7   1     0.057765      C  4   1.051   H 10   0.857   C  2   0.086
     8   1     0.065963      C  3   1.061   H  7   0.901   C  2   0.031
     9   1     0.065963      C  4   1.061   H  8   0.901   C  2   0.031
    10   1     0.068141      C  4   1.067   H  6   0.910   (other: 0.023)
    11   1     0.068141      C  3   1.067   H  5   0.910   (other: 0.023)
    12   1     0.073509      C  2   1.039   H  1   0.948
    13   2     0.442683      C  2   0.796   H 10   0.066   H  9   0.066   H  7   0.022   H  8   0.022   (other: 0.029)

 Localized orbitals saved to record      2100.2  (orbital set 2)


 **********************************************************************************************************************************
 DATASETS  * FILE   NREC   LENGTH (MB)   RECORD NAMES
              1      20       31.31       500      610      700      900      950      970     1000      129      960     1100   
                                          VAR    BASINP    GEOM    SYMINP    ZMAT    AOBASIS   BASIS     P2S    ABASIS      S 
                                         1400     1410     1200     1210     1080     1600     1650     1300     1700     1800   
                                           T        V       H0       H01     AOSYM     SMH    MOLCAS    ERIS     OPER     GRID   

              2       5        2.92       700     1000      520     1800     2100   
                                         GEOM     BASIS   MCVARS    GRID      RKS  

 PROGRAMS   *        TOTAL      IBBA        KS       INT
 CPU TIMES  *         3.18      0.02      2.56      0.43
 REAL TIME  *         6.21 SEC
 DISK USED  *        35.29 MB      
 **********************************************************************************************************************************
 Molecular orbitals read from record     2100.2  Type=RKS/LOCAL(IBO)  
 Occupation numbers read from record     2100.2  Type=RKS/LOCAL(IBO)  
 Orbital energies read from record       2100.2  Type=RKS/LOCAL(IBO)  
 Redundancy group numbers read from rec  2100.2  Type=RKS/LOCAL(IBO)  

 IBBA/STO-3G energy=      0.000000000000

        KS-SCF  
    -99.01045959
 **********************************************************************************************************************************
 Molpro calculation terminated
