
 Primary working directories    : /tmp/sb13343
 Secondary working directories  : /tmp/sb13343
 Wavefunction directory         : /panfs/panasas01/chem/sb13343/wfu/
 Main file repository           : /tmp/sb13343/

 SHA1      : b4a5b34a9e711420743f49e6833241d17c61fb3c
 NAME      : 2099.9.b4a5b34
 ARCHNAME  : linux/x86_64_openmp
 FC        : /cm/shared/languages/GCC-6.1/bin/gfortran
 BLASLIB   : -lblas
 id        : simonbennie

 Nodes     nprocs
 node32-018    1

 Using customized tuning parameters: mindgm=1; mindgv=20; mindgc=4; mindgr=1; noblas=0; minvec=7
 default implementation of scratch files=df  

 memory,500,m
 geomtyp=xyz
 nosym
 noorient
 geometry={
 H         -1.57413        0.33845        0.00000
 C         -0.49500        0.20144        0.00000
 C          0.18857       -0.05954       -1.30114
 C          0.18857       -0.05954        1.30114
 H         -0.33790        0.40751       -2.14134
 H         -0.33790        0.40751        2.14134
 H          1.22176        0.31596       -1.29638
 H          1.22176        0.31596        1.29638
 H          0.25678       -1.13976       -1.52896
 H          0.25678       -1.13976        1.52896
 }
 basis={ default,svp }
 {ks,B-LYP,direct;wf,25,1,1}
 {ibba,bonds=1}

 Variables initialized (895), CPU time= 0.00 sec
 Commands  initialized (725), CPU time= 0.02 sec, 591 directives.
 Default parameters read. Elapsed time= 0.08 sec

 Checking input...
 Passed
1


                                         ***  PROGRAM SYSTEM MOLPRO  ***
                                       Copyright, TTI GmbH Stuttgart, 2015
                                    Version 2099.9 linked May 26 2017 16:03:21


 **********************************************************************************************************************************
 LABEL *                                                                                 
  64 bit serial version                                                                  DATE: 08-Jun-17          TIME: 15:19:13  
 **********************************************************************************************************************************

 SHA1:             b4a5b34a9e711420743f49e6833241d17c61fb3c
 **********************************************************************************************************************************
 SETTING GEOMTYP        =    XYZ

 Variable memory set to  500000000 words,  buffer space 

 ZSYMEL=NOSYM

 SETTING BASIS          =    SVP


 Recomputing integrals since basis changed


 Using spherical harmonics

 Library entry H      S def2-SVP             selected for orbital group  1
 Library entry H      P def2-SVP             selected for orbital group  1
 Library entry C      S def2-SVP             selected for orbital group  2
 Library entry C      P def2-SVP             selected for orbital group  2
 Library entry C      D def2-SVP             selected for orbital group  2


 PROGRAM * SEWARD (Integral evaluation for generally contracted gaussian basis sets)     Author: Roland Lindh, 1990

 Geometry written to block  1 of record 700


 Point group  C1  



 ATOMIC COORDINATES

 NR  ATOM    CHARGE       X              Y              Z

   1  H       1.00   -2.974674584    0.639577807    0.000000000
   2  C       6.00   -0.935414432    0.380666431    0.000000000
   3  C       6.00    0.356345655   -0.112514293   -2.458798250
   4  C       6.00    0.356345655   -0.112514293    2.458798250
   5  H       1.00   -0.638538457    0.770082293   -4.046546140
   6  H       1.00   -0.638538457    0.770082293    4.046546140
   7  H       1.00    2.308791790    0.597077866   -2.449803153
   8  H       1.00    2.308791790    0.597077866    2.449803153
   9  H       1.00    0.485243874   -2.153834248   -2.889315655
  10  H       1.00    0.485243874   -2.153834248    2.889315655

 Bond lengths in Bohr (Angstrom)

 1-2  2.055630578  2-3  2.820914777  2-4  2.820914777  3-5  2.071162595  3-7  2.077413742
     ( 1.087792856)     ( 1.492763814)     ( 1.492763814)     ( 1.096012045)     ( 1.099320010)

  3- 9  2.090202656   4- 6  2.071162595   4- 8  2.077413742   4-10  2.090202656
       ( 1.106087612)       ( 1.096012045)       ( 1.099320010)       ( 1.106087612)

 Bond angles

  1-2-3  118.44375943   1-2-4  118.44375943   2-3-5  111.94558337   2-3-7  111.52358867

  2- 3- 9  112.24140213   2- 4- 6  111.94558337   2- 4- 8  111.52358867   2- 4-10  112.24140213

  3-2-4  121.29758064   5-3-7  108.01204745   5-3-9  106.73207413   6-4-8  108.01204745

  6- 4-10  106.73207413   7- 3- 9  106.05262855   8- 4-10  106.05262855

 NUCLEAR CHARGE:                   25
 NUMBER OF PRIMITIVE AOS:         124
 NUMBER OF SYMMETRY AOS:          121
 NUMBER OF CONTRACTIONS:           77   (  77A   )
 NUMBER OF CORE ORBITALS:           3   (   3A   )
 NUMBER OF VALENCE ORBITALS:       19   (  19A   )


 NUCLEAR REPULSION ENERGY   75.20704826


 Eigenvalues of metric

         1 0.402E-02 0.537E-02 0.229E-01 0.265E-01 0.266E-01 0.379E-01 0.436E-01 0.492E-01


 Contracted 2-electron integrals neglected if value below      1.0D-11
 AO integral compression algorithm  1   Integral accuracy      1.0D-11

     19.923 MB (compressed) written to integral file ( 49.4%)


 NUMBER OF SORTED TWO-ELECTRON INTEGRALS:    4510506.     BUFFER LENGTH:  32768
 NUMBER OF SEGMENTS:   1  SEGMENT LENGTH:    4510506      RECORD LENGTH: 524288

 Memory used in sort:       5.07 MW

 SORT1 READ     5074366. AND WROTE     4244391. INTEGRALS IN     13 RECORDS. CPU TIME:     0.06 SEC, REAL TIME:     0.12 SEC
 SORT2 READ     4244391. AND WROTE     4510506. INTEGRALS IN     76 RECORDS. CPU TIME:     0.15 SEC, REAL TIME:     0.18 SEC

 FILE SIZES:   FILE 1:    50.3 MBYTE,  FILE 4:    54.6 MBYTE,   TOTAL:    104.8 MBYTE

 OPERATOR DM      FOR CENTER  0  COORDINATES:    0.000000    0.000000    0.000000


 **********************************************************************************************************************************
 DATASETS  * FILE   NREC   LENGTH (MB)   RECORD NAMES
              1      19       47.44       500      610      700      900      950      970     1000      129      960     1100   
                                          VAR    BASINP    GEOM    SYMINP    ZMAT    AOBASIS   BASIS     P2S    ABASIS      S 
                                         1400     1410     1200     1210     1080     1600     1650     1300     1700   
                                           T        V       H0       H01     AOSYM     SMH    MOLCAS    ERIS     OPER   

 PROGRAMS   *        TOTAL       INT
 CPU TIMES  *         1.06      0.92
 REAL TIME  *         1.49 SEC
 DISK USED  *       105.25 MB      
 **********************************************************************************************************************************

 Density functional group B-LYP=B88+LYP
 Functional: B88(Automatically generated (new) B88)                            Gradient terms: 1
 Functional: LYP(Automatically generated (new) LYP)                            Gradient terms: 1
 Use grid at  1800.2

 Functional: B88                       Factor:  1.0000
 Functional: LYP                       Factor:  1.0000

 Generated new metagrid on record  1800.2 with target accuracy 1.0D-06 and 32470 points in CPU time    0.7
 Computed new grid on record 1800.1 in CPU time    0.8
   65184 words reserved for DFT integration

 PROGRAM * RKS-SCF (Restricted open shell Kohn-Sham)     Authors: W. Meyer, H.-J. Werner, P.J. Knowles, 1993

 NUMBER OF ELECTRONS:      13+   12-    SPACE SYMMETRY=1    SPIN SYMMETRY: Doublet 
 CONVERGENCE THRESHOLDS:    1.00E-05 (Density)    1.00E-06 (Energy)
 MAX. NUMBER OF ITERATIONS:       60
 INTERPOLATION TYPE:            DIIS
 INTERPOLATION STEPS:              2 (START)      1 (STEP)
 LEVEL SHIFTS:                 -0.60 (CLOSED) -0.30 (OPEN) 



 Use fine grid record 1800.2 for energy threshold  1.0D-06
 Orbital guess generated from atomic densities. Full valence occupancy:   13

 Molecular orbital dump at record        2100.2

 Initial alpha occupancy:  13
 Initial beta  occupancy:  12
 Wave function symmetry:    1

 ITERATION    DDIFF          GRAD             ENERGY        2-EL.EN.            DIPOLE MOMENTS         DIIS   ORB.
    1      0.000D+00      0.000D+00      -118.09170409    273.819671    0.17443   -0.24839    0.00000    0    start
    2      0.000D+00      0.144D-01      -118.27528129    260.193304    0.02556   -0.06935   -0.00000    1    diag,B
    3      0.167D-01      0.558D-02      -118.30072323    263.278279    0.04255   -0.10718   -0.00000    2    diag,B
    4      0.494D-02      0.666D-03      -118.30160274    263.070181    0.03548   -0.09500   -0.00000    3    diag,B
    5      0.169D-02      0.243D-03      -118.30174301    263.049232    0.03576   -0.09512   -0.00000    4    diag,B
    6      0.780D-03      0.960D-04      -118.30176459    263.022407    0.03349   -0.09263   -0.00000    5    diag,B
    7      0.336D-03      0.295D-04      -118.30176743    263.020780    0.03392   -0.09297   -0.00000    6    fixocc
    8      0.138D-03      0.102D-04      -118.30176785    263.020643    0.03388   -0.09305   -0.00000    7    diag,B
    9      0.593D-04      0.279D-05      -118.30176787    263.020686    0.03386   -0.09312   -0.00000    8    diag,B
   10      0.135D-04      0.904D-06      -118.30176788    263.020651    0.03382   -0.09312   -0.00000    9    orth
   11      0.462D-05      0.190D-06      -118.30176788    263.020645    0.03382   -0.09312   -0.00000    0    orth

 Final alpha occupancy:  13
 Final beta  occupancy:  12

 !RKS STATE 1.1 Energy               -118.301767878009
 Nuclear energy                        75.20704826
 One-electron energy                 -306.27279735
 Two-electron energy                  131.51032256
 Density functional                   -18.74634135     B88=-17.97062030 LYP= -0.77572106
 Virial quotient                       -1.01246538
 !RKS STATE 1.1 Dipole moment           0.03381693    -0.09311716    -0.00000000
 Dipole moment /Debye                   0.08594844    -0.23666472    -0.00000000

 Orbital energies:

         1.1          2.1          3.1          4.1          5.1          6.1          7.1          8.1          9.1         10.1
     -9.916746    -9.916738    -9.914586    -0.681529    -0.606007    -0.487626    -0.391986    -0.364820    -0.352472    -0.330962

        11.1         12.1         13.1         14.1         15.1
     -0.303868    -0.295391    -0.138083     0.045703     0.072998

 HOMO     13.1    -0.138083 =      -3.7574eV
 LUMO     14.1     0.045703 =       1.2436eV
 LUMO-HOMO         0.183786 =       5.0011eV


 **********************************************************************************************************************************
 DATASETS  * FILE   NREC   LENGTH (MB)   RECORD NAMES
              1      20       48.47       500      610      700      900      950      970     1000      129      960     1100   
                                          VAR    BASINP    GEOM    SYMINP    ZMAT    AOBASIS   BASIS     P2S    ABASIS      S 
                                         1400     1410     1200     1210     1080     1600     1650     1300     1700     1800   
                                           T        V       H0       H01     AOSYM     SMH    MOLCAS    ERIS     OPER     GRID   

              2       5        3.08       700     1000      520     1800     2100   
                                         GEOM     BASIS   MCVARS    GRID      RKS  

 PROGRAMS   *        TOTAL        KS       INT
 CPU TIMES  *         7.58      6.52      0.92
 REAL TIME  *         8.50 SEC
 DISK USED  *       105.25 MB      
 **********************************************************************************************************************************


 PROGRAM * Intrinsic Basis Bonding Analysis (IBBA)          Author: G. Knizia

 Molecular orbitals read from record     2100.2  Type=RKS/CANONICAL (state 1.1)
 Fock matrix read from record            2100.2  Type=RKS/TOTAL (state 1.1)
 Orbital energies read from record       2100.2  Type=RKS/CANONICAL (state 1.1)
 Density matrix read from record         2100.2  Type=RKS/CHARGE (state 1.1)

 Number of core orbitals:           3 (   3 )
 Number of closed-shell orbitals:   9 (   9 )
 Number of active  orbitals:        1 (   1 )

 Basis set MINAO-AUTO-PP generated.      Number of basis functions:   22 

 Polarized AO type:                A = (O Ot + (1-O)(1-Ot)) P12
 Orthogonalization method:         Symmetric (Loewdin)
 Localization functional:          L = sum[A,i] <i|n_A|i>^4 -> max

 Localization group 1:  12 orbitals, occupancy  2.000
 Iterative localization: IB/PM,    7 iter; Final gradient 0.44E-08

 Bond order analysis:       [THRPRINT= 0.020]

   CEN ATOM   CEN ATOM     WIBERG.BO      RENORM.BO
     1   H  -   2   C       0.955342       0.967910

     2   C  -   4   C       1.109952       1.494772
     2   C  -   3   C       1.109952       1.494772
     2   C  -   1   H       0.955342       0.967910
     2   C  -   9   H       0.044451       0.302109
     2   C  -  10   H       0.044451       0.302109

     3   C  -   2   C       1.109952       1.494772
     3   C  -   5   H       0.956696       0.988428
     3   C  -   7   H       0.946802       0.987063
     3   C  -   9   H       0.912456       0.997945

     4   C  -   2   C       1.109952       1.494772
     4   C  -   6   H       0.956696       0.988428
     4   C  -   8   H       0.946802       0.987063
     4   C  -  10   H       0.912456       0.997945

     5   H  -   3   C       0.956696       0.988428

     6   H  -   4   C       0.956696       0.988428

     7   H  -   3   C       0.946802       0.987063

     8   H  -   4   C       0.946802       0.987063

     9   H  -   3   C       0.912456       0.997945
     9   H  -   2   C       0.044451       0.302109

    10   H  -   4   C       0.912456       0.997945
    10   H  -   2   C       0.044451       0.302109


 Valency analysis:

   CEN ATOM   TOT.VALENCE
     1   H       0.985492
     2   C       3.305520
     3   C       3.945335
     4   C       3.945335
     5   H       0.980390
     6   H       0.980390
     7   H       0.979213
     8   H       0.979213
     9   H       0.968259
    10   H       0.968259
 Localization group 2:   1 orbitals, occupancy  1.000
 Iterative localization: IB/PM,    1 iter; Final gradient 0.00E+00

 Bond order analysis:       [THRPRINT= 0.020]

   CEN ATOM   CEN ATOM     WIBERG.BO      RENORM.BO

     2   C  -   9   H       0.087254       0.500000
     2   C  -  10   H       0.087254       0.500000
     2   C  -   7   H       0.026885       0.500000
     2   C  -   8   H       0.026885       0.500000





     7   H  -   2   C       0.026885       0.500000

     8   H  -   2   C       0.026885       0.500000

     9   H  -   2   C       0.087254       0.500000

    10   H  -   2   C       0.087254       0.500000


 Valency analysis:

   CEN ATOM   TOT.VALENCE
     1   H       0.000859
     2   C       0.254786
     3   C       0.004661
     4   C       0.004661
     5   H       0.010434
     6   H       0.010434
     7   H       0.031124
     8   H       0.031124
     9   H       0.097366
    10   H       0.097366

 Total charge composition:

   CEN ATOM         s          p       ELECTRONS ->P.CHARGE
     1   H       0.87998                 0.87998    0.12002
     2   C       3.00457    3.12304      6.12761   -0.12761
     3   C       3.01086    3.37535      6.38621   -0.38621
     4   C       3.01086    3.37535      6.38621   -0.38621
     5   H       0.86521                 0.86521    0.13479
     6   H       0.86521                 0.86521    0.13479
     7   H       0.87164                 0.87164    0.12836
     8   H       0.87164                 0.87164    0.12836
     9   H       0.87316                 0.87316    0.12684
    10   H       0.87316                 0.87316    0.12684

 Total charge composition, AO contributions:

   CEN ATOM SHL      SPHERICAL COMPONENTS
     1   H  1s       0.87998

     2   C  1s       1.99262
     2   C  2s       1.01195
     2   C  2p       1.09722    1.02375    1.00207

     3   C  1s       1.99104
     3   C  2s       1.01982
     3   C  2p       1.13746    1.14146    1.09643

     4   C  1s       1.99104
     4   C  2s       1.01982
     4   C  2p       1.13746    1.14146    1.09643

     5   H  1s       0.86521

     6   H  1s       0.86521

     7   H  1s       0.87164

     8   H  1s       0.87164

     9   H  1s       0.87316

    10   H  1s       0.87316

 Active orbital charges:

   CEN ATOM         s          p       ELECTRONS ->SPIN.DEN
     1   H       0.00043                 0.00043    0.00043
     2   C       0.00827    0.84188      0.85015    0.85015
     3   C       0.00012    0.00222      0.00234    0.00234
     4   C       0.00012    0.00222      0.00234    0.00234
     5   H       0.00524                 0.00524    0.00524
     6   H       0.00524                 0.00524    0.00524
     7   H       0.01581                 0.01581    0.01581
     8   H       0.01581                 0.01581    0.01581
     9   H       0.05132                 0.05132    0.05132
    10   H       0.05132                 0.05132    0.05132

 Active orbital charges, AO contributions:

   CEN ATOM SHL      SPHERICAL COMPONENTS
     1   H  1s       0.00043

     2   C  1s       0.00001
     2   C  2s       0.00827
     2   C  2p       0.03368    0.80820    0.00000

     3   C  1s       0.00000
     3   C  2s       0.00012
     3   C  2p       0.00001    0.00214    0.00007

     4   C  1s       0.00000
     4   C  2s       0.00012
     4   C  2p       0.00001    0.00214    0.00007

     5   H  1s       0.00524

     6   H  1s       0.00524

     7   H  1s       0.01581

     8   H  1s       0.01581

     9   H  1s       0.05132

    10   H  1s       0.05132

 Summary of localized orbital composition:   [THRPRINT= 0.020]

   ORB  GRP  ORB.ENERGY      CENTERS/CHARGES
     1   1    -9.817700      C  2   2.000
     2   1    -9.804305      C  4   2.000
     3   1    -9.804305      C  3   2.000
     4   1    -0.530235      C  3   1.010   C  2   0.983
     5   1    -0.530235      C  4   1.010   C  2   0.983
     6   1    -0.453077      C  2   1.117   H  1   0.870
     7   1    -0.439713      C  3   1.117   H  9   0.818   C  2   0.062
     8   1    -0.439713      C  4   1.117   H 10   0.818   C  2   0.062
     9   1    -0.436152      C  4   1.122   H  8   0.850   C  2   0.022
    10   1    -0.436152      C  3   1.122   H  7   0.850   C  2   0.022
    11   1    -0.435574      C  4   1.128   H  6   0.854
    12   1    -0.435574      C  3   1.128   H  5   0.854
    13   2    -0.101964      C  2   0.850   H  9   0.051   H 10   0.051   (other: 0.047)

 Localized orbitals saved to record      2100.2  (orbital set 2)


 **********************************************************************************************************************************
 DATASETS  * FILE   NREC   LENGTH (MB)   RECORD NAMES
              1      20       48.47       500      610      700      900      950      970     1000      129      960     1100   
                                          VAR    BASINP    GEOM    SYMINP    ZMAT    AOBASIS   BASIS     P2S    ABASIS      S 
                                         1400     1410     1200     1210     1080     1600     1650     1300     1700     1800   
                                           T        V       H0       H01     AOSYM     SMH    MOLCAS    ERIS     OPER     GRID   

              2       5        3.13       700     1000      520     1800     2100   
                                         GEOM     BASIS   MCVARS    GRID      RKS  

 PROGRAMS   *        TOTAL      IBBA        KS       INT
 CPU TIMES  *         7.61      0.03      6.52      0.92
 REAL TIME  *         8.59 SEC
 DISK USED  *       105.25 MB      
 **********************************************************************************************************************************
 Molecular orbitals read from record     2100.2  Type=RKS/LOCAL(IBO)  
 Occupation numbers read from record     2100.2  Type=RKS/LOCAL(IBO)  
 Orbital energies read from record       2100.2  Type=RKS/LOCAL(IBO)  
 Redundancy group numbers read from rec  2100.2  Type=RKS/LOCAL(IBO)  

 IBBA/SVP energy=      0.000000000000

        KS-SCF  
   -118.30176788
 **********************************************************************************************************************************
 Molpro calculation terminated
