
 Primary working directories    : /tmp/sb13343
 Secondary working directories  : /tmp/sb13343
 Wavefunction directory         : /panfs/panasas01/chem/sb13343/wfu/
 Main file repository           : /tmp/sb13343/

 SHA1      : b4a5b34a9e711420743f49e6833241d17c61fb3c
 NAME      : 2099.9.b4a5b34
 ARCHNAME  : linux/x86_64_openmp
 FC        : /cm/shared/languages/GCC-6.1/bin/gfortran
 BLASLIB   : -lblas
 id        : simonbennie

 Nodes     nprocs
 node32-017    1

 Using customized tuning parameters: mindgm=1; mindgv=20; mindgc=4; mindgr=1; noblas=0; minvec=7
 default implementation of scratch files=df  

 memory,500,m
 geomtyp=xyz
 nosym
 noorient
 geometry={
 H         -1.57413        0.33845        0.00000
 C         -0.49500        0.20144        0.00000
 C          0.18857       -0.05954       -1.30114
 C          0.18857       -0.05954        1.30114
 H         -0.33790        0.40751       -2.14134
 H         -0.33790        0.40751        2.14134
 H          1.22176        0.31596       -1.29638
 H          1.22176        0.31596        1.29638
 H          0.25678       -1.13976       -1.52896
 H          0.25678       -1.13976        1.52896
 }
 basis={ default,svp }
 {uks,MM06-L,direct;wf,25,1,1}
 {ibba,bonds=1}

 Variables initialized (895), CPU time= 0.01 sec
 Commands  initialized (725), CPU time= 0.01 sec, 591 directives.
 Default parameters read. Elapsed time= 0.08 sec

 Checking input...
 Passed
1


                                         ***  PROGRAM SYSTEM MOLPRO  ***
                                       Copyright, TTI GmbH Stuttgart, 2015
                                    Version 2099.9 linked May 26 2017 16:03:21


 **********************************************************************************************************************************
 LABEL *                                                                                 
  64 bit serial version                                                                  DATE: 08-Jun-17          TIME: 15:26:41  
 **********************************************************************************************************************************

 SHA1:             b4a5b34a9e711420743f49e6833241d17c61fb3c
 **********************************************************************************************************************************
 SETTING GEOMTYP        =    XYZ

 Variable memory set to  500000000 words,  buffer space 

 ZSYMEL=NOSYM

 SETTING BASIS          =    SVP


 Recomputing integrals since basis changed


 Using spherical harmonics

 Library entry H      S def2-SVP             selected for orbital group  1
 Library entry H      P def2-SVP             selected for orbital group  1
 Library entry C      S def2-SVP             selected for orbital group  2
 Library entry C      P def2-SVP             selected for orbital group  2
 Library entry C      D def2-SVP             selected for orbital group  2


 PROGRAM * SEWARD (Integral evaluation for generally contracted gaussian basis sets)     Author: Roland Lindh, 1990

 Geometry written to block  1 of record 700


 Point group  C1  



 ATOMIC COORDINATES

 NR  ATOM    CHARGE       X              Y              Z

   1  H       1.00   -2.974674584    0.639577807    0.000000000
   2  C       6.00   -0.935414432    0.380666431    0.000000000
   3  C       6.00    0.356345655   -0.112514293   -2.458798250
   4  C       6.00    0.356345655   -0.112514293    2.458798250
   5  H       1.00   -0.638538457    0.770082293   -4.046546140
   6  H       1.00   -0.638538457    0.770082293    4.046546140
   7  H       1.00    2.308791790    0.597077866   -2.449803153
   8  H       1.00    2.308791790    0.597077866    2.449803153
   9  H       1.00    0.485243874   -2.153834248   -2.889315655
  10  H       1.00    0.485243874   -2.153834248    2.889315655

 Bond lengths in Bohr (Angstrom)

 1-2  2.055630578  2-3  2.820914777  2-4  2.820914777  3-5  2.071162595  3-7  2.077413742
     ( 1.087792856)     ( 1.492763814)     ( 1.492763814)     ( 1.096012045)     ( 1.099320010)

  3- 9  2.090202656   4- 6  2.071162595   4- 8  2.077413742   4-10  2.090202656
       ( 1.106087612)       ( 1.096012045)       ( 1.099320010)       ( 1.106087612)

 Bond angles

  1-2-3  118.44375943   1-2-4  118.44375943   2-3-5  111.94558337   2-3-7  111.52358867

  2- 3- 9  112.24140213   2- 4- 6  111.94558337   2- 4- 8  111.52358867   2- 4-10  112.24140213

  3-2-4  121.29758064   5-3-7  108.01204745   5-3-9  106.73207413   6-4-8  108.01204745

  6- 4-10  106.73207413   7- 3- 9  106.05262855   8- 4-10  106.05262855

 NUCLEAR CHARGE:                   25
 NUMBER OF PRIMITIVE AOS:         124
 NUMBER OF SYMMETRY AOS:          121
 NUMBER OF CONTRACTIONS:           77   (  77A   )
 NUMBER OF CORE ORBITALS:           3   (   3A   )
 NUMBER OF VALENCE ORBITALS:       19   (  19A   )


 NUCLEAR REPULSION ENERGY   75.20704826


 Eigenvalues of metric

         1 0.402E-02 0.537E-02 0.229E-01 0.265E-01 0.266E-01 0.379E-01 0.436E-01 0.492E-01


 Contracted 2-electron integrals neglected if value below      1.0D-11
 AO integral compression algorithm  1   Integral accuracy      1.0D-11

     19.923 MB (compressed) written to integral file ( 49.4%)


 NUMBER OF SORTED TWO-ELECTRON INTEGRALS:    4510506.     BUFFER LENGTH:  32768
 NUMBER OF SEGMENTS:   1  SEGMENT LENGTH:    4510506      RECORD LENGTH: 524288

 Memory used in sort:       5.07 MW

 SORT1 READ     5074366. AND WROTE     4244391. INTEGRALS IN     13 RECORDS. CPU TIME:     0.05 SEC, REAL TIME:     0.12 SEC
 SORT2 READ     4244391. AND WROTE     4510506. INTEGRALS IN     76 RECORDS. CPU TIME:     0.15 SEC, REAL TIME:     0.18 SEC

 FILE SIZES:   FILE 1:    50.3 MBYTE,  FILE 4:    54.6 MBYTE,   TOTAL:    104.8 MBYTE

 OPERATOR DM      FOR CENTER  0  COORDINATES:    0.000000    0.000000    0.000000


 **********************************************************************************************************************************
 DATASETS  * FILE   NREC   LENGTH (MB)   RECORD NAMES
              1      19       47.44       500      610      700      900      950      970     1000      129      960     1100   
                                          VAR    BASINP    GEOM    SYMINP    ZMAT    AOBASIS   BASIS     P2S    ABASIS      S 
                                         1400     1410     1200     1210     1080     1600     1650     1300     1700   
                                           T        V       H0       H01     AOSYM     SMH    MOLCAS    ERIS     OPER   

 PROGRAMS   *        TOTAL       INT
 CPU TIMES  *         1.20      1.05
 REAL TIME  *         1.65 SEC
 DISK USED  *       105.25 MB      
 **********************************************************************************************************************************

 Density functional group MM06-L=M06LX+M06LC
 Functional: M06LX(Automatically generated (new) M06LX)                        Gradient terms: 2
 Functional: M06LC(Automatically generated (new) M06LC)                        Gradient terms: 2
 Use grid at  1800.2

 Functional: M06LX                     Factor:  1.0000
 Functional: M06LC                     Factor:  1.0000

 Generated new metagrid on record  1800.2 with target accuracy 1.0D-06 and 32470 points in CPU time    0.7
 Computed new grid on record 1800.1 in CPU time    0.8
  123858 words reserved for DFT integration

 PROGRAM * UKS-SCF (Unrestricted Kohn-Sham)     Authors: W. Meyer, H.-J. Werner, P.J. Knowles, 1993

 NUMBER OF ELECTRONS:      13+   12-    SPACE SYMMETRY=1    SPIN SYMMETRY: Doublet 
 CONVERGENCE THRESHOLDS:    1.00E-05 (Density)    1.00E-06 (Energy)
 MAX. NUMBER OF ITERATIONS:       60
 INTERPOLATION TYPE:            DIIS
 INTERPOLATION STEPS:              2 (START)      1 (STEP)
 LEVEL SHIFTS:                 -0.20 (ALPHA)  -0.20 (BETA) 



 Use fine grid record 1800.2 for energy threshold  1.0D-06
 Orbital guess generated from atomic densities. Full valence occupancy:   13

 Molecular orbital dump at record        2200.2

 Initial alpha occupation  13
 Initial beta  occupation  12

 ITERATION    DDIFF          GRAD             ENERGY        2-EL.EN.            DIPOLE MOMENTS         DIIS
    1      0.000D+00      0.000D+00      -118.22247821    271.862029    0.16928   -0.24112    0.00000    0
    2      0.137D-01      0.658D-02      -118.35143591    260.537830    0.06267   -0.11153   -0.00000    1
    3      0.393D-02      0.264D-02      -118.37064077    263.210909    0.05730   -0.12078   -0.00000    2
    4      0.917D-03      0.347D-03      -118.37136498    263.084555    0.05464   -0.11179   -0.00000    3
    5      0.437D-03      0.145D-03      -118.37154324    263.062818    0.04715   -0.10394   -0.00000    4
    6      0.184D-03      0.635D-04      -118.37158344    263.054618    0.04422   -0.09900   -0.00000    5
    7      0.496D-04      0.185D-04      -118.37158600    263.059738    0.04382   -0.09853   -0.00000    6
    8      0.195D-04      0.943D-05      -118.37158641    263.057495    0.04321   -0.09784   -0.00000    7
    9      0.658D-05      0.192D-05      -118.37158643    263.057467    0.04349   -0.09791   -0.00000    7
   10      0.239D-05      0.648D-06      -118.37158643    263.057544    0.04344   -0.09788   -0.00000    7

 Final alpha occupancy:  13
 Final beta  occupancy:  12

 !UKS STATE 1.1 Energy               -118.371586433271
 Nuclear energy                        75.20704826
 One-electron energy                 -306.26488457
 Two-electron energy                  131.52877198
 Density functional                   -18.84252211     M06LX=-18.01585464 M06LC= -0.82666747
 Virial quotient                       -1.01219261
 !UKS STATE 1.1 Dipole moment           0.04343897    -0.09788470    -0.00000000
 Dipole moment /Debye                   0.11040363    -0.24878180    -0.00000000

 Orbital energies for positive spin:

         1.1          2.1          3.1          4.1          5.1          6.1          7.1          8.1          9.1         10.1
    -10.059584   -10.053952   -10.053950    -0.736071    -0.644016    -0.528087    -0.413004    -0.390373    -0.372729    -0.348668

        11.1         12.1         13.1         14.1         15.1
     -0.320257    -0.311974    -0.155947     0.085774     0.100101

 Orbital energies for negative spin:

         1.1          2.1          3.1          4.1          5.1          6.1          7.1          8.1          9.1         10.1
    -10.054790   -10.054789   -10.045725    -0.715205    -0.642686    -0.501241    -0.406076    -0.372574    -0.368017    -0.343611

        11.1         12.1         13.1         14.1         15.1
     -0.318154    -0.304949    -0.046613     0.082093     0.097289

 HOMO     13.1    -0.155947 =      -4.2435eV
 LUMO    -13.1    -0.046613 =      -1.2684eV
 LUMO-HOMO         0.109334 =       2.9751eV

 EXPECTATION VALUE OF S**2:             0.75632708

 Occupation number threshold for canonical orbitals:  1.999000 (occupied),  0.001000 (virtual)

 Number of pseudo-canonical orbitals per symmetry:   11
 Number of active natural orbitals per symmetry:      3

 Natural orbitals saved to record    2200.2 (Orbital set 3)

 Orbital spaces for UNO-CAS (Min. occupation: 0.020  Max. occupation: 1.980):

 Closed:       12
 Active:        1


 **********************************************************************************************************************************
 DATASETS  * FILE   NREC   LENGTH (MB)   RECORD NAMES
              1      20       48.47       500      610      700      900      950      970     1000      129      960     1100   
                                          VAR    BASINP    GEOM    SYMINP    ZMAT    AOBASIS   BASIS     P2S    ABASIS      S 
                                         1400     1410     1200     1210     1080     1600     1650     1300     1700     1800   
                                           T        V       H0       H01     AOSYM     SMH    MOLCAS    ERIS     OPER     GRID   

              2       5        3.16       700     1000      520     1800     2200   
                                         GEOM     BASIS   MCVARS    GRID      UKS  

 PROGRAMS   *        TOTAL       UKS       INT
 CPU TIMES  *        27.42     26.22      1.05
 REAL TIME  *        28.01 SEC
 DISK USED  *       105.25 MB      
 **********************************************************************************************************************************


 PROGRAM * Intrinsic Basis Bonding Analysis (IBBA)          Author: G. Knizia

 Molecular orbitals read from record     2200.2  Type=UKS/ALPHA (state 1.1)
 Fock matrix read from record            2200.2  Type=UKS/TOTAL (state 1.1)
 Orbital energies read from record       2200.2  Type=UKS/ALPHA (state 1.1)
 Density matrix read from record         2200.2  Type=UKS/CHARGE (state 1.1)

 Number of core orbitals:           3 (   3 )
 Number of closed-shell orbitals:   9 (   9 )
 Number of active  orbitals:        1 (   1 )

 Basis set MINAO-AUTO-PP generated.      Number of basis functions:   22 

 Polarized AO type:                A = (O Ot + (1-O)(1-Ot)) P12
 Orthogonalization method:         Symmetric (Loewdin)
 Localization functional:          L = sum[A,i] <i|n_A|i>^4 -> max

 Localization group 1:  12 orbitals, occupancy  2.000
 Iterative localization: IB/PM,    8 iter; Final gradient 0.33E-09

 Bond order analysis:       [THRPRINT= 0.020]

   CEN ATOM   CEN ATOM     WIBERG.BO      RENORM.BO
     1   H  -   2   C       0.942006       0.965729

     2   C  -   3   C       1.183881       1.485015
     2   C  -   4   C       1.183881       1.485015
     2   C  -   1   H       0.942006       0.965729
     2   C  -   9   H       0.068903       0.271013
     2   C  -  10   H       0.068903       0.271013
     2   C  -   7   H       0.022177       0.080124
     2   C  -   8   H       0.022177       0.080124

     3   C  -   2   C       1.183881       1.485015
     3   C  -   5   H       0.949533       0.987421
     3   C  -   7   H       0.931075       0.987110
     3   C  -   9   H       0.861642       0.996163

     4   C  -   2   C       1.183881       1.485015
     4   C  -   6   H       0.949533       0.987421
     4   C  -   8   H       0.931075       0.987110
     4   C  -  10   H       0.861642       0.996163

     5   H  -   3   C       0.949533       0.987421

     6   H  -   4   C       0.949533       0.987421

     7   H  -   3   C       0.931075       0.987110
     7   H  -   2   C       0.022177       0.080124

     8   H  -   4   C       0.931075       0.987110
     8   H  -   2   C       0.022177       0.080124

     9   H  -   3   C       0.861642       0.996163
     9   H  -   2   C       0.068903       0.271013

    10   H  -   4   C       0.861642       0.996163
    10   H  -   2   C       0.068903       0.271013


 Valency analysis:

   CEN ATOM   TOT.VALENCE
     1   H       0.972677
     2   C       3.510149
     3   C       3.952595
     4   C       3.952595
     5   H       0.978105
     6   H       0.978105
     7   H       0.975126
     8   H       0.975126
     9   H       0.955118
    10   H       0.955118
 Localization group 2:   1 orbitals, occupancy  1.000
 Iterative localization: IB/PM,    1 iter; Final gradient 0.00E+00

 Bond order analysis:       [THRPRINT= 0.020]

   CEN ATOM   CEN ATOM     WIBERG.BO      RENORM.BO

     2   C  -   9   H       0.106604       0.500000
     2   C  -  10   H       0.106604       0.500000
     2   C  -   7   H       0.033809       0.500000
     2   C  -   8   H       0.033809       0.500000





     7   H  -   2   C       0.033809       0.500000

     8   H  -   2   C       0.033809       0.500000

     9   H  -   2   C       0.106604       0.500000

    10   H  -   2   C       0.106604       0.500000


 Valency analysis:

   CEN ATOM   TOT.VALENCE
     1   H       0.001688
     2   C       0.341527
     3   C       0.022567
     4   C       0.022567
     5   H       0.015049
     6   H       0.015049
     7   H       0.042327
     8   H       0.042327
     9   H       0.127108
    10   H       0.127108

 Total charge composition:

   CEN ATOM         s          p       ELECTRONS ->P.CHARGE
     1   H       0.83555                 0.83555    0.16445
     2   C       3.06796    3.24487      6.31282   -0.31282
     3   C       3.01957    3.32636      6.34593   -0.34593
     4   C       3.01957    3.32636      6.34593   -0.34593
     5   H       0.85961                 0.85961    0.14039
     6   H       0.85961                 0.85961    0.14039
     7   H       0.86392                 0.86392    0.13608
     8   H       0.86392                 0.86392    0.13608
     9   H       0.85635                 0.85635    0.14365
    10   H       0.85635                 0.85635    0.14365

 Total charge composition, AO contributions:

   CEN ATOM SHL      SPHERICAL COMPONENTS
     1   H  1s       0.83555

     2   C  1s       1.99209
     2   C  2s       1.07587
     2   C  2p       1.12635    1.09818    1.02033

     3   C  1s       1.99059
     3   C  2s       1.02898
     3   C  2p       1.12937    1.12171    1.07528

     4   C  1s       1.99059
     4   C  2s       1.02898
     4   C  2p       1.12937    1.12171    1.07528

     5   H  1s       0.85961

     6   H  1s       0.85961

     7   H  1s       0.86392

     8   H  1s       0.86392

     9   H  1s       0.85635

    10   H  1s       0.85635

 Active orbital charges:

   CEN ATOM         s          p       ELECTRONS ->SPIN.DEN
     1   H       0.00084                 0.00084    0.00084
     2   C       0.00539    0.77610      0.78149    0.78149
     3   C       0.00012    0.01129      0.01141    0.01141
     4   C       0.00012    0.01129      0.01141    0.01141
     5   H       0.00758                 0.00758    0.00758
     6   H       0.00758                 0.00758    0.00758
     7   H       0.02163                 0.02163    0.02163
     8   H       0.02163                 0.02163    0.02163
     9   H       0.06821                 0.06821    0.06821
    10   H       0.06821                 0.06821    0.06821

 Active orbital charges, AO contributions:

   CEN ATOM SHL      SPHERICAL COMPONENTS
     1   H  1s       0.00084

     2   C  1s       0.00001
     2   C  2s       0.00538
     2   C  2p       0.03199    0.74411    0.00000

     3   C  1s       0.00000
     3   C  2s       0.00012
     3   C  2p       0.00007    0.01108    0.00014

     4   C  1s       0.00000
     4   C  2s       0.00012
     4   C  2p       0.00007    0.01108    0.00014

     5   H  1s       0.00758

     6   H  1s       0.00758

     7   H  1s       0.02163

     8   H  1s       0.02163

     9   H  1s       0.06821

    10   H  1s       0.06821

 Summary of localized orbital composition:   [THRPRINT= 0.020]

   ORB  GRP  ORB.ENERGY      CENTERS/CHARGES
     1   1    -9.948518      C  2   2.000
     2   1    -9.938768      C  4   2.000
     3   1    -9.938768      C  3   2.000
     4   1    -0.560627      C  2   1.016   C  4   0.978
     5   1    -0.560627      C  2   1.016   C  3   0.978
     6   1    -0.479119      C  2   1.163   H  1   0.824
     7   1    -0.461081      C  3   1.100   H  9   0.781   C  2   0.113
     8   1    -0.461081      C  4   1.100   H 10   0.781   C  2   0.113
     9   1    -0.456598      C  4   1.119   H  8   0.836   C  2   0.037
    10   1    -0.456598      C  3   1.119   H  7   0.836   C  2   0.037
    11   1    -0.455784      C  3   1.129   H  5   0.846   (other: 0.025)
    12   1    -0.455784      C  4   1.129   H  6   0.846   (other: 0.025)
    13   2    -0.099278      C  2   0.781   H  9   0.068   H 10   0.068   H  7   0.022   H  8   0.022   (other: 0.039)

 Localized orbitals saved to record      2200.2  (orbital set 4)


 **********************************************************************************************************************************
 DATASETS  * FILE   NREC   LENGTH (MB)   RECORD NAMES
              1      20       48.47       500      610      700      900      950      970     1000      129      960     1100   
                                          VAR    BASINP    GEOM    SYMINP    ZMAT    AOBASIS   BASIS     P2S    ABASIS      S 
                                         1400     1410     1200     1210     1080     1600     1650     1300     1700     1800   
                                           T        V       H0       H01     AOSYM     SMH    MOLCAS    ERIS     OPER     GRID   

              2       5        3.21       700     1000      520     1800     2200   
                                         GEOM     BASIS   MCVARS    GRID      UKS  

 PROGRAMS   *        TOTAL      IBBA       UKS       INT
 CPU TIMES  *        27.45      0.02     26.22      1.05
 REAL TIME  *        28.11 SEC
 DISK USED  *       105.25 MB      
 **********************************************************************************************************************************
 Molecular orbitals read from record     2200.2  Type=UKS/LOCAL(IBO)  
 Occupation numbers read from record     2200.2  Type=UKS/LOCAL(IBO)  
 Orbital energies read from record       2200.2  Type=UKS/LOCAL(IBO)  
 Redundancy group numbers read from rec  2200.2  Type=UKS/BETA (state 1.1)

 IBBA/SVP energy=      0.000000000000

        UKS-SCF 
   -118.37158643
 **********************************************************************************************************************************
 Molpro calculation terminated
