
 Primary working directories    : /tmp/sb13343
 Secondary working directories  : /tmp/sb13343
 Wavefunction directory         : /panfs/panasas01/chem/sb13343/wfu/
 Main file repository           : /tmp/sb13343/

 SHA1      : b4a5b34a9e711420743f49e6833241d17c61fb3c
 NAME      : 2099.9.b4a5b34
 ARCHNAME  : linux/x86_64_openmp
 FC        : /cm/shared/languages/GCC-6.1/bin/gfortran
 BLASLIB   : -lblas
 id        : simonbennie

 Nodes     nprocs
 node32-043    1

 Using customized tuning parameters: mindgm=1; mindgv=20; mindgc=4; mindgr=1; noblas=0; minvec=7
 default implementation of scratch files=df  

 memory,500,m
 geomtyp=xyz
 nosym
 noorient
 geometry={
 H         -1.57413        0.33845        0.00000
 C         -0.49500        0.20144        0.00000
 C          0.18857       -0.05954       -1.30114
 C          0.18857       -0.05954        1.30114
 H         -0.33790        0.40751       -2.14134
 H         -0.33790        0.40751        2.14134
 H          1.22176        0.31596       -1.29638
 H          1.22176        0.31596        1.29638
 H          0.25678       -1.13976       -1.52896
 H          0.25678       -1.13976        1.52896
 }
 basis={ default,svp }
 {uks,SOGGA,direct;wf,25,1,1}
 {ibba,bonds=1}

 Variables initialized (895), CPU time= 0.00 sec
 Commands  initialized (725), CPU time= 0.02 sec, 591 directives.
 Default parameters read. Elapsed time= 0.08 sec

 Checking input...
 Passed
1


                                         ***  PROGRAM SYSTEM MOLPRO  ***
                                       Copyright, TTI GmbH Stuttgart, 2015
                                    Version 2099.9 linked May 26 2017 16:03:21


 **********************************************************************************************************************************
 LABEL *                                                                                 
  64 bit serial version                                                                  DATE: 08-Jun-17          TIME: 15:34:41  
 **********************************************************************************************************************************

 SHA1:             b4a5b34a9e711420743f49e6833241d17c61fb3c
 **********************************************************************************************************************************
 SETTING GEOMTYP        =    XYZ

 Variable memory set to  500000000 words,  buffer space 

 ZSYMEL=NOSYM

 SETTING BASIS          =    SVP


 Recomputing integrals since basis changed


 Using spherical harmonics

 Library entry H      S def2-SVP             selected for orbital group  1
 Library entry H      P def2-SVP             selected for orbital group  1
 Library entry C      S def2-SVP             selected for orbital group  2
 Library entry C      P def2-SVP             selected for orbital group  2
 Library entry C      D def2-SVP             selected for orbital group  2


 PROGRAM * SEWARD (Integral evaluation for generally contracted gaussian basis sets)     Author: Roland Lindh, 1990

 Geometry written to block  1 of record 700


 Point group  C1  



 ATOMIC COORDINATES

 NR  ATOM    CHARGE       X              Y              Z

   1  H       1.00   -2.974674584    0.639577807    0.000000000
   2  C       6.00   -0.935414432    0.380666431    0.000000000
   3  C       6.00    0.356345655   -0.112514293   -2.458798250
   4  C       6.00    0.356345655   -0.112514293    2.458798250
   5  H       1.00   -0.638538457    0.770082293   -4.046546140
   6  H       1.00   -0.638538457    0.770082293    4.046546140
   7  H       1.00    2.308791790    0.597077866   -2.449803153
   8  H       1.00    2.308791790    0.597077866    2.449803153
   9  H       1.00    0.485243874   -2.153834248   -2.889315655
  10  H       1.00    0.485243874   -2.153834248    2.889315655

 Bond lengths in Bohr (Angstrom)

 1-2  2.055630578  2-3  2.820914777  2-4  2.820914777  3-5  2.071162595  3-7  2.077413742
     ( 1.087792856)     ( 1.492763814)     ( 1.492763814)     ( 1.096012045)     ( 1.099320010)

  3- 9  2.090202656   4- 6  2.071162595   4- 8  2.077413742   4-10  2.090202656
       ( 1.106087612)       ( 1.096012045)       ( 1.099320010)       ( 1.106087612)

 Bond angles

  1-2-3  118.44375943   1-2-4  118.44375943   2-3-5  111.94558337   2-3-7  111.52358867

  2- 3- 9  112.24140213   2- 4- 6  111.94558337   2- 4- 8  111.52358867   2- 4-10  112.24140213

  3-2-4  121.29758064   5-3-7  108.01204745   5-3-9  106.73207413   6-4-8  108.01204745

  6- 4-10  106.73207413   7- 3- 9  106.05262855   8- 4-10  106.05262855

 NUCLEAR CHARGE:                   25
 NUMBER OF PRIMITIVE AOS:         124
 NUMBER OF SYMMETRY AOS:          121
 NUMBER OF CONTRACTIONS:           77   (  77A   )
 NUMBER OF CORE ORBITALS:           3   (   3A   )
 NUMBER OF VALENCE ORBITALS:       19   (  19A   )


 NUCLEAR REPULSION ENERGY   75.20704826


 Eigenvalues of metric

         1 0.402E-02 0.537E-02 0.229E-01 0.265E-01 0.266E-01 0.379E-01 0.436E-01 0.492E-01


 Contracted 2-electron integrals neglected if value below      1.0D-11
 AO integral compression algorithm  1   Integral accuracy      1.0D-11

     19.923 MB (compressed) written to integral file ( 49.4%)


 NUMBER OF SORTED TWO-ELECTRON INTEGRALS:    4510506.     BUFFER LENGTH:  32768
 NUMBER OF SEGMENTS:   1  SEGMENT LENGTH:    4510506      RECORD LENGTH: 524288

 Memory used in sort:       5.07 MW

 SORT1 READ     5074366. AND WROTE     4244391. INTEGRALS IN     13 RECORDS. CPU TIME:     0.06 SEC, REAL TIME:     0.12 SEC
 SORT2 READ     4244391. AND WROTE     4510506. INTEGRALS IN     76 RECORDS. CPU TIME:     0.15 SEC, REAL TIME:     0.19 SEC

 FILE SIZES:   FILE 1:    50.3 MBYTE,  FILE 4:    54.6 MBYTE,   TOTAL:    104.8 MBYTE

 OPERATOR DM      FOR CENTER  0  COORDINATES:    0.000000    0.000000    0.000000


 **********************************************************************************************************************************
 DATASETS  * FILE   NREC   LENGTH (MB)   RECORD NAMES
              1      19       47.44       500      610      700      900      950      970     1000      129      960     1100   
                                          VAR    BASINP    GEOM    SYMINP    ZMAT    AOBASIS   BASIS     P2S    ABASIS      S 
                                         1400     1410     1200     1210     1080     1600     1650     1300     1700   
                                           T        V       H0       H01     AOSYM     SMH    MOLCAS    ERIS     OPER   

 PROGRAMS   *        TOTAL       INT
 CPU TIMES  *         1.12      0.98
 REAL TIME  *         1.55 SEC
 DISK USED  *       105.25 MB      
 **********************************************************************************************************************************

 Density functional group SOGGA=XC-SOGGA
 Functional: XC-SOGGA(via MFM 1.6)                                             Gradient terms: 1
 Use grid at  1800.2

 Functional: XC-SOGGA                  Factor:  1.0000

 Generated new metagrid on record  1800.2 with target accuracy 1.0D-06 and 32470 points in CPU time    0.7
 Computed new grid on record 1800.1 in CPU time    0.8
   65184 words reserved for DFT integration

 PROGRAM * UKS-SCF (Unrestricted Kohn-Sham)     Authors: W. Meyer, H.-J. Werner, P.J. Knowles, 1993

 NUMBER OF ELECTRONS:      13+   12-    SPACE SYMMETRY=1    SPIN SYMMETRY: Doublet 
 CONVERGENCE THRESHOLDS:    1.00E-05 (Density)    1.00E-06 (Energy)
 MAX. NUMBER OF ITERATIONS:       60
 INTERPOLATION TYPE:            DIIS
 INTERPOLATION STEPS:              2 (START)      1 (STEP)
 LEVEL SHIFTS:                 -0.20 (ALPHA)  -0.20 (BETA) 



 Use fine grid record 1800.2 for energy threshold  1.0D-06
 Orbital guess generated from atomic densities. Full valence occupancy:   13

 Molecular orbital dump at record        2200.2

 Initial alpha occupation  13
 Initial beta  occupation  12

 ITERATION    DDIFF          GRAD             ENERGY        2-EL.EN.            DIPOLE MOMENTS         DIIS
    1      0.000D+00      0.000D+00      -117.35729780    273.068029    0.19922   -0.26821    0.00000    0
    2      0.159D-01      0.747D-02      -117.51283519    259.526371    0.07409   -0.11566   -0.00000    1
    3      0.512D-02      0.343D-02      -117.54508201    263.039477    0.06571   -0.13172   -0.00000    2
    4      0.138D-02      0.306D-03      -117.54577702    262.914842    0.06125   -0.12337   -0.00000    3
    5      0.683D-03      0.117D-03      -117.54591174    262.882624    0.05136   -0.11484   -0.00000    4
    6      0.301D-03      0.420D-04      -117.54593578    262.876577    0.04904   -0.11122   -0.00000    5
    7      0.690D-04      0.139D-04      -117.54593738    262.872906    0.04712   -0.10946   -0.00000    6
    8      0.233D-04      0.786D-05      -117.54593760    262.874564    0.04721   -0.10939   -0.00000    7
    9      0.829D-05      0.148D-05      -117.54593762    262.873847    0.04728   -0.10931   -0.00000    6
   10      0.277D-05      0.382D-06      -117.54593762    262.874181    0.04725   -0.10928   -0.00000    7

 Final alpha occupancy:  13
 Final beta  occupancy:  12

 !UKS STATE 1.1 Energy               -117.545937620788
 Nuclear energy                        75.20704826
 One-electron energy                 -306.23920434
 Two-electron energy                  131.43709052
 Density functional                   -17.95087206     XC-SOGGA=-17.95087206
 Virial quotient                       -1.00878542
 !UKS STATE 1.1 Dipole moment           0.04724906    -0.10927709    -0.00000000
 Dipole moment /Debye                   0.12008728    -0.27773646    -0.00000000

 Orbital energies for positive spin:

         1.1          2.1          3.1          4.1          5.1          6.1          7.1          8.1          9.1         10.1
     -9.833332    -9.821641    -9.821627    -0.692729    -0.608797    -0.495515    -0.395966    -0.372346    -0.356282    -0.331234

        11.1         12.1         13.1         14.1         15.1
     -0.304433    -0.294553    -0.138525     0.052726     0.078767

 Orbital energies for negative spin:

         1.1          2.1          3.1          4.1          5.1          6.1          7.1          8.1          9.1         10.1
     -9.822431    -9.822420    -9.819782    -0.678034    -0.605787    -0.478587    -0.390275    -0.358931    -0.350040    -0.326552

        11.1         12.1         13.1         14.1         15.1
     -0.300373    -0.288603    -0.065763     0.056255     0.083180

 HOMO     13.1    -0.138525 =      -3.7695eV
 LUMO    -13.1    -0.065763 =      -1.7895eV
 LUMO-HOMO         0.072762 =       1.9800eV

 EXPECTATION VALUE OF S**2:             0.75307893

 Occupation number threshold for canonical orbitals:  1.999000 (occupied),  0.001000 (virtual)

 Number of pseudo-canonical orbitals per symmetry:   12
 Number of active natural orbitals per symmetry:      1

 Natural orbitals saved to record    2200.2 (Orbital set 3)

 Orbital spaces for UNO-CAS (Min. occupation: 0.020  Max. occupation: 1.980):

 Closed:       12
 Active:        1


 **********************************************************************************************************************************
 DATASETS  * FILE   NREC   LENGTH (MB)   RECORD NAMES
              1      20       48.47       500      610      700      900      950      970     1000      129      960     1100   
                                          VAR    BASINP    GEOM    SYMINP    ZMAT    AOBASIS   BASIS     P2S    ABASIS      S 
                                         1400     1410     1200     1210     1080     1600     1650     1300     1700     1800   
                                           T        V       H0       H01     AOSYM     SMH    MOLCAS    ERIS     OPER     GRID   

              2       5        3.16       700     1000      520     1800     2200   
                                         GEOM     BASIS   MCVARS    GRID      UKS  

 PROGRAMS   *        TOTAL       UKS       INT
 CPU TIMES  *         8.25      7.13      0.98
 REAL TIME  *         9.07 SEC
 DISK USED  *       105.25 MB      
 **********************************************************************************************************************************


 PROGRAM * Intrinsic Basis Bonding Analysis (IBBA)          Author: G. Knizia

 Molecular orbitals read from record     2200.2  Type=UKS/ALPHA (state 1.1)
 Fock matrix read from record            2200.2  Type=UKS/TOTAL (state 1.1)
 Orbital energies read from record       2200.2  Type=UKS/ALPHA (state 1.1)
 Density matrix read from record         2200.2  Type=UKS/CHARGE (state 1.1)

 Number of core orbitals:           3 (   3 )
 Number of closed-shell orbitals:   9 (   9 )
 Number of active  orbitals:        1 (   1 )

 Basis set MINAO-AUTO-PP generated.      Number of basis functions:   22 

 Polarized AO type:                A = (O Ot + (1-O)(1-Ot)) P12
 Orthogonalization method:         Symmetric (Loewdin)
 Localization functional:          L = sum[A,i] <i|n_A|i>^4 -> max

 Localization group 1:  12 orbitals, occupancy  2.000
 Iterative localization: IB/PM,    8 iter; Final gradient 0.57E-09

 Bond order analysis:       [THRPRINT= 0.020]

   CEN ATOM   CEN ATOM     WIBERG.BO      RENORM.BO
     1   H  -   2   C       0.942695       0.965932

     2   C  -   3   C       1.177776       1.483158
     2   C  -   4   C       1.177776       1.483158
     2   C  -   1   H       0.942695       0.965932
     2   C  -   9   H       0.065952       0.271340
     2   C  -  10   H       0.065952       0.271340
     2   C  -   7   H       0.021905       0.082657
     2   C  -   8   H       0.021905       0.082657

     3   C  -   2   C       1.177776       1.483158
     3   C  -   5   H       0.945309       0.987447
     3   C  -   7   H       0.927261       0.986297
     3   C  -   9   H       0.863852       0.996496

     4   C  -   2   C       1.177776       1.483158
     4   C  -   6   H       0.945309       0.987447
     4   C  -   8   H       0.927261       0.986297
     4   C  -  10   H       0.863852       0.996496

     5   H  -   3   C       0.945309       0.987447

     6   H  -   4   C       0.945309       0.987447

     7   H  -   3   C       0.927261       0.986297
     7   H  -   2   C       0.021905       0.082657

     8   H  -   4   C       0.927261       0.986297
     8   H  -   2   C       0.021905       0.082657

     9   H  -   3   C       0.863852       0.996496
     9   H  -   2   C       0.065952       0.271340

    10   H  -   4   C       0.863852       0.996496
    10   H  -   2   C       0.065952       0.271340


 Valency analysis:

   CEN ATOM   TOT.VALENCE
     1   H       0.974145
     2   C       3.492175
     3   C       3.941747
     4   C       3.941747
     5   H       0.975046
     6   H       0.975046
     7   H       0.972321
     8   H       0.972321
     9   H       0.953973
    10   H       0.953973
 Localization group 2:   1 orbitals, occupancy  1.000
 Iterative localization: IB/PM,    1 iter; Final gradient 0.00E+00

 Bond order analysis:       [THRPRINT= 0.020]

   CEN ATOM   CEN ATOM     WIBERG.BO      RENORM.BO

     2   C  -   9   H       0.105828       0.500000
     2   C  -  10   H       0.105828       0.500000
     2   C  -   7   H       0.033704       0.500000
     2   C  -   8   H       0.033704       0.500000





     7   H  -   2   C       0.033704       0.500000

     8   H  -   2   C       0.033704       0.500000

     9   H  -   2   C       0.105828       0.500000

    10   H  -   2   C       0.105828       0.500000


 Valency analysis:

   CEN ATOM   TOT.VALENCE
     1   H       0.001455
     2   C       0.335386
     3   C       0.020657
     4   C       0.020657
     5   H       0.014084
     6   H       0.014084
     7   H       0.041914
     8   H       0.041914
     9   H       0.125445
    10   H       0.125445

 Total charge composition:

   CEN ATOM         s          p       ELECTRONS ->P.CHARGE
     1   H       0.83993                 0.83993    0.16007
     2   C       3.03866    3.24251      6.28117   -0.28117
     3   C       3.00665    3.37593      6.38257   -0.38257
     4   C       3.00665    3.37593      6.38257   -0.38257
     5   H       0.84912                 0.84912    0.15088
     6   H       0.84912                 0.84912    0.15088
     7   H       0.85505                 0.85505    0.14495
     8   H       0.85505                 0.85505    0.14495
     9   H       0.85270                 0.85270    0.14730
    10   H       0.85270                 0.85270    0.14730

 Total charge composition, AO contributions:

   CEN ATOM SHL      SPHERICAL COMPONENTS
     1   H  1s       0.83993

     2   C  1s       1.99280
     2   C  2s       1.04585
     2   C  2p       1.12969    1.09013    1.02269

     3   C  1s       1.99139
     3   C  2s       1.01526
     3   C  2p       1.14632    1.13783    1.09178

     4   C  1s       1.99139
     4   C  2s       1.01526
     4   C  2p       1.14632    1.13783    1.09178

     5   H  1s       0.84912

     6   H  1s       0.84912

     7   H  1s       0.85505

     8   H  1s       0.85505

     9   H  1s       0.85270

    10   H  1s       0.85270

 Active orbital charges:

   CEN ATOM         s          p       ELECTRONS ->SPIN.DEN
     1   H       0.00073                 0.00073    0.00073
     2   C       0.00584    0.78105      0.78689    0.78689
     3   C       0.00015    0.01029      0.01044    0.01044
     4   C       0.00015    0.01029      0.01044    0.01044
     5   H       0.00709                 0.00709    0.00709
     6   H       0.00709                 0.00709    0.00709
     7   H       0.02142                 0.02142    0.02142
     8   H       0.02142                 0.02142    0.02142
     9   H       0.06724                 0.06724    0.06724
    10   H       0.06724                 0.06724    0.06724

 Active orbital charges, AO contributions:

   CEN ATOM SHL      SPHERICAL COMPONENTS
     1   H  1s       0.00073

     2   C  1s       0.00001
     2   C  2s       0.00584
     2   C  2p       0.03230    0.74875    0.00000

     3   C  1s       0.00000
     3   C  2s       0.00015
     3   C  2p       0.00007    0.01015    0.00007

     4   C  1s       0.00000
     4   C  2s       0.00015
     4   C  2p       0.00007    0.01015    0.00007

     5   H  1s       0.00709

     6   H  1s       0.00709

     7   H  1s       0.02142

     8   H  1s       0.02142

     9   H  1s       0.06724

    10   H  1s       0.06724

 Summary of localized orbital composition:   [THRPRINT= 0.020]

   ORB  GRP  ORB.ENERGY      CENTERS/CHARGES
     1   1    -9.727737      C  2   2.000
     2   1    -9.711168      C  4   2.000
     3   1    -9.711168      C  3   2.000
     4   1    -0.534273      C  2   1.006   C  4   0.986
     5   1    -0.534273      C  2   1.006   C  3   0.986
     6   1    -0.452246      C  2   1.158   H  1   0.828
     7   1    -0.438936      C  4   1.108   H 10   0.778   C  2   0.107
     8   1    -0.438936      C  3   1.108   H  9   0.778   C  2   0.107
     9   1    -0.433768      C  3   1.129   H  7   0.827   C  2   0.036
    10   1    -0.433768      C  4   1.129   H  8   0.827   C  2   0.036
    11   1    -0.433009      C  4   1.140   H  6   0.835   (other: 0.025)
    12   1    -0.433009      C  3   1.140   H  5   0.835   (other: 0.025)
    13   2    -0.102081      C  2   0.787   H  9   0.067   H 10   0.067   H  7   0.021   H  8   0.021   (other: 0.036)

 Localized orbitals saved to record      2200.2  (orbital set 4)


 **********************************************************************************************************************************
 DATASETS  * FILE   NREC   LENGTH (MB)   RECORD NAMES
              1      20       48.47       500      610      700      900      950      970     1000      129      960     1100   
                                          VAR    BASINP    GEOM    SYMINP    ZMAT    AOBASIS   BASIS     P2S    ABASIS      S 
                                         1400     1410     1200     1210     1080     1600     1650     1300     1700     1800   
                                           T        V       H0       H01     AOSYM     SMH    MOLCAS    ERIS     OPER     GRID   

              2       5        3.21       700     1000      520     1800     2200   
                                         GEOM     BASIS   MCVARS    GRID      UKS  

 PROGRAMS   *        TOTAL      IBBA       UKS       INT
 CPU TIMES  *         8.28      0.02      7.13      0.98
 REAL TIME  *         9.16 SEC
 DISK USED  *       105.25 MB      
 **********************************************************************************************************************************
 Molecular orbitals read from record     2200.2  Type=UKS/LOCAL(IBO)  
 Occupation numbers read from record     2200.2  Type=UKS/LOCAL(IBO)  
 Orbital energies read from record       2200.2  Type=UKS/LOCAL(IBO)  
 Redundancy group numbers read from rec  2200.2  Type=UKS/BETA (state 1.1)

 IBBA/SVP energy=      0.000000000000

        UKS-SCF 
   -117.54593762
 **********************************************************************************************************************************
 Molpro calculation terminated
