
 Primary working directories    : /tmp/sb13343
 Secondary working directories  : /tmp/sb13343
 Wavefunction directory         : /panfs/panasas01/chem/sb13343/wfu/
 Main file repository           : /tmp/sb13343/

 SHA1      : b4a5b34a9e711420743f49e6833241d17c61fb3c
 NAME      : 2099.9.b4a5b34
 ARCHNAME  : linux/x86_64_openmp
 FC        : /cm/shared/languages/GCC-6.1/bin/gfortran
 BLASLIB   : -lblas
 id        : simonbennie

 Nodes     nprocs
 node32-018    1

 Using customized tuning parameters: mindgm=1; mindgv=20; mindgc=4; mindgr=1; noblas=0; minvec=7
 default implementation of scratch files=df  

 memory,500,m
 geomtyp=xyz
 nosym
 noorient
 geometry={
 H         -1.57413        0.33845        0.00000
 C         -0.49500        0.20144        0.00000
 C          0.18857       -0.05954       -1.30114
 C          0.18857       -0.05954        1.30114
 H         -0.33790        0.40751       -2.14134
 H         -0.33790        0.40751        2.14134
 H          1.22176        0.31596       -1.29638
 H          1.22176        0.31596        1.29638
 H          0.25678       -1.13976       -1.52896
 H          0.25678       -1.13976        1.52896
 }
 basis={ default,svp }
 {ks,PBE0MOL,direct;wf,25,1,1}
 {ibba,bonds=1}

 Variables initialized (895), CPU time= 0.00 sec
 Commands  initialized (725), CPU time= 0.01 sec, 591 directives.
 Default parameters read. Elapsed time= 0.08 sec

 Checking input...
 Passed
1


                                         ***  PROGRAM SYSTEM MOLPRO  ***
                                       Copyright, TTI GmbH Stuttgart, 2015
                                    Version 2099.9 linked May 26 2017 16:03:21


 **********************************************************************************************************************************
 LABEL *                                                                                 
  64 bit serial version                                                                  DATE: 08-Jun-17          TIME: 15:27:45  
 **********************************************************************************************************************************

 SHA1:             b4a5b34a9e711420743f49e6833241d17c61fb3c
 **********************************************************************************************************************************
 SETTING GEOMTYP        =    XYZ

 Variable memory set to  500000000 words,  buffer space 

 ZSYMEL=NOSYM

 SETTING BASIS          =    SVP


 Recomputing integrals since basis changed


 Using spherical harmonics

 Library entry H      S def2-SVP             selected for orbital group  1
 Library entry H      P def2-SVP             selected for orbital group  1
 Library entry C      S def2-SVP             selected for orbital group  2
 Library entry C      P def2-SVP             selected for orbital group  2
 Library entry C      D def2-SVP             selected for orbital group  2


 PROGRAM * SEWARD (Integral evaluation for generally contracted gaussian basis sets)     Author: Roland Lindh, 1990

 Geometry written to block  1 of record 700


 Point group  C1  



 ATOMIC COORDINATES

 NR  ATOM    CHARGE       X              Y              Z

   1  H       1.00   -2.974674584    0.639577807    0.000000000
   2  C       6.00   -0.935414432    0.380666431    0.000000000
   3  C       6.00    0.356345655   -0.112514293   -2.458798250
   4  C       6.00    0.356345655   -0.112514293    2.458798250
   5  H       1.00   -0.638538457    0.770082293   -4.046546140
   6  H       1.00   -0.638538457    0.770082293    4.046546140
   7  H       1.00    2.308791790    0.597077866   -2.449803153
   8  H       1.00    2.308791790    0.597077866    2.449803153
   9  H       1.00    0.485243874   -2.153834248   -2.889315655
  10  H       1.00    0.485243874   -2.153834248    2.889315655

 Bond lengths in Bohr (Angstrom)

 1-2  2.055630578  2-3  2.820914777  2-4  2.820914777  3-5  2.071162595  3-7  2.077413742
     ( 1.087792856)     ( 1.492763814)     ( 1.492763814)     ( 1.096012045)     ( 1.099320010)

  3- 9  2.090202656   4- 6  2.071162595   4- 8  2.077413742   4-10  2.090202656
       ( 1.106087612)       ( 1.096012045)       ( 1.099320010)       ( 1.106087612)

 Bond angles

  1-2-3  118.44375943   1-2-4  118.44375943   2-3-5  111.94558337   2-3-7  111.52358867

  2- 3- 9  112.24140213   2- 4- 6  111.94558337   2- 4- 8  111.52358867   2- 4-10  112.24140213

  3-2-4  121.29758064   5-3-7  108.01204745   5-3-9  106.73207413   6-4-8  108.01204745

  6- 4-10  106.73207413   7- 3- 9  106.05262855   8- 4-10  106.05262855

 NUCLEAR CHARGE:                   25
 NUMBER OF PRIMITIVE AOS:         124
 NUMBER OF SYMMETRY AOS:          121
 NUMBER OF CONTRACTIONS:           77   (  77A   )
 NUMBER OF CORE ORBITALS:           3   (   3A   )
 NUMBER OF VALENCE ORBITALS:       19   (  19A   )


 NUCLEAR REPULSION ENERGY   75.20704826


 Eigenvalues of metric

         1 0.402E-02 0.537E-02 0.229E-01 0.265E-01 0.266E-01 0.379E-01 0.436E-01 0.492E-01


 Contracted 2-electron integrals neglected if value below      1.0D-11
 AO integral compression algorithm  1   Integral accuracy      1.0D-11

     19.923 MB (compressed) written to integral file ( 49.4%)


 NUMBER OF SORTED TWO-ELECTRON INTEGRALS:    4510506.     BUFFER LENGTH:  32768
 NUMBER OF SEGMENTS:   1  SEGMENT LENGTH:    4510506      RECORD LENGTH: 524288

 Memory used in sort:       5.07 MW

 SORT1 READ     5074366. AND WROTE     4244391. INTEGRALS IN     13 RECORDS. CPU TIME:     0.06 SEC, REAL TIME:     0.12 SEC
 SORT2 READ     4244391. AND WROTE     4510506. INTEGRALS IN     76 RECORDS. CPU TIME:     0.14 SEC, REAL TIME:     0.17 SEC

 FILE SIZES:   FILE 1:    50.3 MBYTE,  FILE 4:    54.6 MBYTE,   TOTAL:    104.8 MBYTE

 OPERATOR DM      FOR CENTER  0  COORDINATES:    0.000000    0.000000    0.000000


 **********************************************************************************************************************************
 DATASETS  * FILE   NREC   LENGTH (MB)   RECORD NAMES
              1      19       47.44       500      610      700      900      950      970     1000      129      960     1100   
                                          VAR    BASINP    GEOM    SYMINP    ZMAT    AOBASIS   BASIS     P2S    ABASIS      S 
                                         1400     1410     1200     1210     1080     1600     1650     1300     1700   
                                           T        V       H0       H01     AOSYM     SMH    MOLCAS    ERIS     OPER   

 PROGRAMS   *        TOTAL       INT
 CPU TIMES  *         1.01      0.87
 REAL TIME  *         1.44 SEC
 DISK USED  *       105.25 MB      
 **********************************************************************************************************************************

 Density functional group PBE0MOL=PBEX+PW91C
 Functional: PBEX(Automatically generated (new) PBEX)                          Gradient terms: 1
 Functional: PW91C(Automatically generated (new) PW91C)                        Gradient terms: 1
 Use grid at  1800.2


 Exact exchange will be calculated, factor:  0.2500

 Functional: PBEX                      Factor:  0.7500
 Functional: PW91C                     Factor:  1.0000

 Generated new metagrid on record  1800.2 with target accuracy 1.0D-06 and 32470 points in CPU time    0.7
 Computed new grid on record 1800.1 in CPU time    0.8
   65184 words reserved for DFT integration

 PROGRAM * RKS-SCF (Restricted open shell Kohn-Sham)     Authors: W. Meyer, H.-J. Werner, P.J. Knowles, 1993

 NUMBER OF ELECTRONS:      13+   12-    SPACE SYMMETRY=1    SPIN SYMMETRY: Doublet 
 CONVERGENCE THRESHOLDS:    1.00E-05 (Density)    1.00E-06 (Energy)
 MAX. NUMBER OF ITERATIONS:       60
 INTERPOLATION TYPE:            DIIS
 INTERPOLATION STEPS:              2 (START)      1 (STEP)
 LEVEL SHIFTS:                 -0.60 (CLOSED) -0.30 (OPEN) 



 Use fine grid record 1800.2 for energy threshold  1.0D-06
 Orbital guess generated from atomic densities. Full valence occupancy:   13

 Molecular orbital dump at record        2100.2

 Initial alpha occupancy:  13
 Initial beta  occupancy:  12
 Wave function symmetry:    1

 ITERATION    DDIFF          GRAD             ENERGY        2-EL.EN.            DIPOLE MOMENTS         DIIS   ORB.
    1      0.000D+00      0.000D+00      -118.18033836    261.343136    0.19683   -0.25711    0.00000    0    start
    2      0.000D+00      0.102D-01      -118.27996147    252.867908    0.05767   -0.10845   -0.00000    1    diag,B
    3      0.103D-01      0.287D-02      -118.28666104    254.192349    0.05057   -0.11726   -0.00000    2    diag,B
    4      0.263D-02      0.564D-03      -118.28752755    254.065966    0.03740   -0.10443   -0.00000    3    diag,B
    5      0.133D-02      0.209D-03      -118.28767807    254.038615    0.03360   -0.10036   -0.00000    4    diag,B
    6      0.690D-03      0.559D-04      -118.28768851    254.026927    0.03229   -0.09863   -0.00000    5    diag,B
    7      0.190D-03      0.161D-04      -118.28768938    254.027389    0.03260   -0.09870   -0.00000    6    fixocc
    8      0.581D-04      0.547D-05      -118.28768951    254.027610    0.03272   -0.09875   -0.00000    7    diag,B
    9      0.254D-04      0.148D-05      -118.28768952    254.027605    0.03274   -0.09878   -0.00000    8    diag,B
   10      0.670D-05      0.439D-06      -118.28768952    254.027592    0.03273   -0.09878   -0.00000    0    orth

 Final alpha occupancy:  13
 Final beta  occupancy:  12

 !RKS STATE 1.1 Energy               -118.287689522021
 Nuclear energy                        75.20704826
 One-electron energy                 -306.27374319
 Two-electron energy                  127.01379579
 Density functional                   -14.23479039     PBEX=-17.85890377 PW91C= -0.84061256
 Virial quotient                       -1.01268859
 !RKS STATE 1.1 Dipole moment           0.03273072    -0.09878388    -0.00000000
 Dipole moment /Debye                   0.08318775    -0.25106713    -0.00000000

 Orbital energies:

         1.1          2.1          3.1          4.1          5.1          6.1          7.1          8.1          9.1         10.1
    -10.232545   -10.230876   -10.230861    -0.785550    -0.701082    -0.569118    -0.461075    -0.428486    -0.417482    -0.392285

        11.1         12.1         13.1         14.1         15.1
     -0.364136    -0.354320    -0.199617     0.077341     0.105685

 HOMO     13.1    -0.199617 =      -5.4318eV
 LUMO     14.1     0.077341 =       2.1046eV
 LUMO-HOMO         0.276958 =       7.5364eV


 **********************************************************************************************************************************
 DATASETS  * FILE   NREC   LENGTH (MB)   RECORD NAMES
              1      20       48.47       500      610      700      900      950      970     1000      129      960     1100   
                                          VAR    BASINP    GEOM    SYMINP    ZMAT    AOBASIS   BASIS     P2S    ABASIS      S 
                                         1400     1410     1200     1210     1080     1600     1650     1300     1700     1800   
                                           T        V       H0       H01     AOSYM     SMH    MOLCAS    ERIS     OPER     GRID   

              2       5        3.08       700     1000      520     1800     2100   
                                         GEOM     BASIS   MCVARS    GRID      RKS  

 PROGRAMS   *        TOTAL        KS       INT
 CPU TIMES  *         7.64      6.63      0.87
 REAL TIME  *         8.65 SEC
 DISK USED  *       105.25 MB      
 **********************************************************************************************************************************


 PROGRAM * Intrinsic Basis Bonding Analysis (IBBA)          Author: G. Knizia

 Molecular orbitals read from record     2100.2  Type=RKS/CANONICAL (state 1.1)
 Fock matrix read from record            2100.2  Type=RKS/TOTAL (state 1.1)
 Orbital energies read from record       2100.2  Type=RKS/CANONICAL (state 1.1)
 Density matrix read from record         2100.2  Type=RKS/CHARGE (state 1.1)

 Number of core orbitals:           3 (   3 )
 Number of closed-shell orbitals:   9 (   9 )
 Number of active  orbitals:        1 (   1 )

 Basis set MINAO-AUTO-PP generated.      Number of basis functions:   22 

 Polarized AO type:                A = (O Ot + (1-O)(1-Ot)) P12
 Orthogonalization method:         Symmetric (Loewdin)
 Localization functional:          L = sum[A,i] <i|n_A|i>^4 -> max

 Localization group 1:  12 orbitals, occupancy  2.000
 Iterative localization: IB/PM,    7 iter; Final gradient 0.35E-08

 Bond order analysis:       [THRPRINT= 0.020]

   CEN ATOM   CEN ATOM     WIBERG.BO      RENORM.BO
     1   H  -   2   C       0.954293       0.968807

     2   C  -   4   C       1.094738       1.495456
     2   C  -   3   C       1.094738       1.495456
     2   C  -   1   H       0.954293       0.968807
     2   C  -   9   H       0.038369       0.308293
     2   C  -  10   H       0.038369       0.308293

     3   C  -   2   C       1.094738       1.495456
     3   C  -   5   H       0.956403       0.989123
     3   C  -   7   H       0.948582       0.988164
     3   C  -   9   H       0.920531       0.998351

     4   C  -   2   C       1.094738       1.495456
     4   C  -   6   H       0.956403       0.989123
     4   C  -   8   H       0.948582       0.988164
     4   C  -  10   H       0.920531       0.998351

     5   H  -   3   C       0.956403       0.989123

     6   H  -   4   C       0.956403       0.989123

     7   H  -   3   C       0.948582       0.988164

     8   H  -   4   C       0.948582       0.988164

     9   H  -   3   C       0.920531       0.998351
     9   H  -   2   C       0.038369       0.308293

    10   H  -   4   C       0.920531       0.998351
    10   H  -   2   C       0.038369       0.308293


 Valency analysis:

   CEN ATOM   TOT.VALENCE
     1   H       0.983271
     2   C       3.256480
     3   C       3.938150
     4   C       3.938150
     5   H       0.978379
     6   H       0.978379
     7   H       0.977624
     8   H       0.977624
     9   H       0.968121
    10   H       0.968121
 Localization group 2:   1 orbitals, occupancy  1.000
 Iterative localization: IB/PM,    1 iter; Final gradient 0.00E+00

 Bond order analysis:       [THRPRINT= 0.020]

   CEN ATOM   CEN ATOM     WIBERG.BO      RENORM.BO

     2   C  -   9   H       0.076924       0.500000
     2   C  -  10   H       0.076924       0.500000
     2   C  -   7   H       0.023806       0.500000
     2   C  -   8   H       0.023806       0.500000





     7   H  -   2   C       0.023806       0.500000

     8   H  -   2   C       0.023806       0.500000

     9   H  -   2   C       0.076924       0.500000

    10   H  -   2   C       0.076924       0.500000


 Valency analysis:

   CEN ATOM   TOT.VALENCE
     1   H       0.000785
     2   C       0.224433
     3   C       0.003718
     4   C       0.003718
     5   H       0.009025
     6   H       0.009025
     7   H       0.026953
     8   H       0.026953
     9   H       0.084399
    10   H       0.084399

 Total charge composition:

   CEN ATOM         s          p       ELECTRONS ->P.CHARGE
     1   H       0.87105                 0.87105    0.12895
     2   C       3.00643    3.12827      6.13470   -0.13470
     3   C       3.01432    3.39563      6.40995   -0.40995
     4   C       3.01432    3.39563      6.40995   -0.40995
     5   H       0.85749                 0.85749    0.14251
     6   H       0.85749                 0.85749    0.14251
     7   H       0.86408                 0.86408    0.13592
     8   H       0.86408                 0.86408    0.13592
     9   H       0.86560                 0.86560    0.13440
    10   H       0.86560                 0.86560    0.13440

 Total charge composition, AO contributions:

   CEN ATOM SHL      SPHERICAL COMPONENTS
     1   H  1s       0.87105

     2   C  1s       1.99234
     2   C  2s       1.01409
     2   C  2p       1.10513    1.01748    1.00566

     3   C  1s       1.99072
     3   C  2s       1.02361
     3   C  2p       1.14444    1.15226    1.09893

     4   C  1s       1.99072
     4   C  2s       1.02361
     4   C  2p       1.14444    1.15226    1.09893

     5   H  1s       0.85749

     6   H  1s       0.85749

     7   H  1s       0.86408

     8   H  1s       0.86408

     9   H  1s       0.86560

    10   H  1s       0.86560

 Active orbital charges:

   CEN ATOM         s          p       ELECTRONS ->SPIN.DEN
     1   H       0.00039                 0.00039    0.00039
     2   C       0.00874    0.86245      0.87119    0.87119
     3   C       0.00010    0.00176      0.00186    0.00186
     4   C       0.00010    0.00176      0.00186    0.00186
     5   H       0.00453                 0.00453    0.00453
     6   H       0.00453                 0.00453    0.00453
     7   H       0.01366                 0.01366    0.01366
     8   H       0.01366                 0.01366    0.01366
     9   H       0.04415                 0.04415    0.04415
    10   H       0.04415                 0.04415    0.04415

 Active orbital charges, AO contributions:

   CEN ATOM SHL      SPHERICAL COMPONENTS
     1   H  1s       0.00039

     2   C  1s       0.00001
     2   C  2s       0.00874
     2   C  2p       0.03471    0.82774    0.00000

     3   C  1s       0.00000
     3   C  2s       0.00010
     3   C  2p       0.00001    0.00167    0.00008

     4   C  1s       0.00000
     4   C  2s       0.00010
     4   C  2p       0.00001    0.00167    0.00008

     5   H  1s       0.00453

     6   H  1s       0.00453

     7   H  1s       0.01366

     8   H  1s       0.01366

     9   H  1s       0.04415

    10   H  1s       0.04415

 Summary of localized orbital composition:   [THRPRINT= 0.020]

   ORB  GRP  ORB.ENERGY      CENTERS/CHARGES
     1   1   -10.132270      C  2   2.000
     2   1   -10.114237      C  4   2.000
     3   1   -10.114237      C  3   2.000
     4   1    -0.614297      C  3   1.007   C  2   0.985
     5   1    -0.614297      C  4   1.007   C  2   0.985
     6   1    -0.527856      C  2   1.127   H  1   0.861
     7   1    -0.510461      C  4   1.127   H 10   0.818   C  2   0.052
     8   1    -0.510461      C  3   1.127   H  9   0.818   C  2   0.052
     9   1    -0.507582      C  4   1.130   H  8   0.845   (other: 0.024)
    10   1    -0.507582      C  3   1.130   H  7   0.845   (other: 0.024)
    11   1    -0.507270      C  4   1.137   H  6   0.847
    12   1    -0.507270      C  3   1.137   H  5   0.847
    13   2    -0.108857      C  2   0.871   H  9   0.044   H 10   0.044   (other: 0.041)

 Localized orbitals saved to record      2100.2  (orbital set 2)


 **********************************************************************************************************************************
 DATASETS  * FILE   NREC   LENGTH (MB)   RECORD NAMES
              1      20       48.47       500      610      700      900      950      970     1000      129      960     1100   
                                          VAR    BASINP    GEOM    SYMINP    ZMAT    AOBASIS   BASIS     P2S    ABASIS      S 
                                         1400     1410     1200     1210     1080     1600     1650     1300     1700     1800   
                                           T        V       H0       H01     AOSYM     SMH    MOLCAS    ERIS     OPER     GRID   

              2       5        3.13       700     1000      520     1800     2100   
                                         GEOM     BASIS   MCVARS    GRID      RKS  

 PROGRAMS   *        TOTAL      IBBA        KS       INT
 CPU TIMES  *         7.67      0.03      6.63      0.87
 REAL TIME  *         8.74 SEC
 DISK USED  *       105.25 MB      
 **********************************************************************************************************************************
 Molecular orbitals read from record     2100.2  Type=RKS/LOCAL(IBO)  
 Occupation numbers read from record     2100.2  Type=RKS/LOCAL(IBO)  
 Orbital energies read from record       2100.2  Type=RKS/LOCAL(IBO)  
 Redundancy group numbers read from rec  2100.2  Type=RKS/LOCAL(IBO)  

 IBBA/SVP energy=      0.000000000000

        KS-SCF  
   -118.28768952
 **********************************************************************************************************************************
 Molpro calculation terminated
