
 Primary working directories    : /tmp/sb13343
 Secondary working directories  : /tmp/sb13343
 Wavefunction directory         : /panfs/panasas01/chem/sb13343/wfu/
 Main file repository           : /tmp/sb13343/

 SHA1      : b4a5b34a9e711420743f49e6833241d17c61fb3c
 NAME      : 2099.9.b4a5b34
 ARCHNAME  : linux/x86_64_openmp
 FC        : /cm/shared/languages/GCC-6.1/bin/gfortran
 BLASLIB   : -lblas
 id        : simonbennie

 Nodes     nprocs
 node32-018    1

 Using customized tuning parameters: mindgm=1; mindgv=20; mindgc=4; mindgr=1; noblas=0; minvec=7
 default implementation of scratch files=df  

 memory,500,m
 geomtyp=xyz
 nosym
 noorient
 geometry={
 H         -1.57413        0.33845        0.00000
 C         -0.49500        0.20144        0.00000
 C          0.18857       -0.05954       -1.30114
 C          0.18857       -0.05954        1.30114
 H         -0.33790        0.40751       -2.14134
 H         -0.33790        0.40751        2.14134
 H          1.22176        0.31596       -1.29638
 H          1.22176        0.31596        1.29638
 H          0.25678       -1.13976       -1.52896
 H          0.25678       -1.13976        1.52896
 }
 basis={ default,svp }
 {ks,MM05-2X,direct;wf,25,1,1}
 {ibba,bonds=1}

 Variables initialized (895), CPU time= 0.00 sec
 Commands  initialized (725), CPU time= 0.01 sec, 591 directives.
 Default parameters read. Elapsed time= 0.09 sec

 Checking input...
 Passed
1


                                         ***  PROGRAM SYSTEM MOLPRO  ***
                                       Copyright, TTI GmbH Stuttgart, 2015
                                    Version 2099.9 linked May 26 2017 16:03:21


 **********************************************************************************************************************************
 LABEL *                                                                                 
  64 bit serial version                                                                  DATE: 08-Jun-17          TIME: 15:25:37  
 **********************************************************************************************************************************

 SHA1:             b4a5b34a9e711420743f49e6833241d17c61fb3c
 **********************************************************************************************************************************
 SETTING GEOMTYP        =    XYZ

 Variable memory set to  500000000 words,  buffer space 

 ZSYMEL=NOSYM

 SETTING BASIS          =    SVP


 Recomputing integrals since basis changed


 Using spherical harmonics

 Library entry H      S def2-SVP             selected for orbital group  1
 Library entry H      P def2-SVP             selected for orbital group  1
 Library entry C      S def2-SVP             selected for orbital group  2
 Library entry C      P def2-SVP             selected for orbital group  2
 Library entry C      D def2-SVP             selected for orbital group  2


 PROGRAM * SEWARD (Integral evaluation for generally contracted gaussian basis sets)     Author: Roland Lindh, 1990

 Geometry written to block  1 of record 700


 Point group  C1  



 ATOMIC COORDINATES

 NR  ATOM    CHARGE       X              Y              Z

   1  H       1.00   -2.974674584    0.639577807    0.000000000
   2  C       6.00   -0.935414432    0.380666431    0.000000000
   3  C       6.00    0.356345655   -0.112514293   -2.458798250
   4  C       6.00    0.356345655   -0.112514293    2.458798250
   5  H       1.00   -0.638538457    0.770082293   -4.046546140
   6  H       1.00   -0.638538457    0.770082293    4.046546140
   7  H       1.00    2.308791790    0.597077866   -2.449803153
   8  H       1.00    2.308791790    0.597077866    2.449803153
   9  H       1.00    0.485243874   -2.153834248   -2.889315655
  10  H       1.00    0.485243874   -2.153834248    2.889315655

 Bond lengths in Bohr (Angstrom)

 1-2  2.055630578  2-3  2.820914777  2-4  2.820914777  3-5  2.071162595  3-7  2.077413742
     ( 1.087792856)     ( 1.492763814)     ( 1.492763814)     ( 1.096012045)     ( 1.099320010)

  3- 9  2.090202656   4- 6  2.071162595   4- 8  2.077413742   4-10  2.090202656
       ( 1.106087612)       ( 1.096012045)       ( 1.099320010)       ( 1.106087612)

 Bond angles

  1-2-3  118.44375943   1-2-4  118.44375943   2-3-5  111.94558337   2-3-7  111.52358867

  2- 3- 9  112.24140213   2- 4- 6  111.94558337   2- 4- 8  111.52358867   2- 4-10  112.24140213

  3-2-4  121.29758064   5-3-7  108.01204745   5-3-9  106.73207413   6-4-8  108.01204745

  6- 4-10  106.73207413   7- 3- 9  106.05262855   8- 4-10  106.05262855

 NUCLEAR CHARGE:                   25
 NUMBER OF PRIMITIVE AOS:         124
 NUMBER OF SYMMETRY AOS:          121
 NUMBER OF CONTRACTIONS:           77   (  77A   )
 NUMBER OF CORE ORBITALS:           3   (   3A   )
 NUMBER OF VALENCE ORBITALS:       19   (  19A   )


 NUCLEAR REPULSION ENERGY   75.20704826


 Eigenvalues of metric

         1 0.402E-02 0.537E-02 0.229E-01 0.265E-01 0.266E-01 0.379E-01 0.436E-01 0.492E-01


 Contracted 2-electron integrals neglected if value below      1.0D-11
 AO integral compression algorithm  1   Integral accuracy      1.0D-11

     19.923 MB (compressed) written to integral file ( 49.4%)


 NUMBER OF SORTED TWO-ELECTRON INTEGRALS:    4510506.     BUFFER LENGTH:  32768
 NUMBER OF SEGMENTS:   1  SEGMENT LENGTH:    4510506      RECORD LENGTH: 524288

 Memory used in sort:       5.07 MW

 SORT1 READ     5074366. AND WROTE     4244391. INTEGRALS IN     13 RECORDS. CPU TIME:     0.06 SEC, REAL TIME:     0.12 SEC
 SORT2 READ     4244391. AND WROTE     4510506. INTEGRALS IN     76 RECORDS. CPU TIME:     0.14 SEC, REAL TIME:     0.18 SEC

 FILE SIZES:   FILE 1:    50.3 MBYTE,  FILE 4:    54.6 MBYTE,   TOTAL:    104.8 MBYTE

 OPERATOR DM      FOR CENTER  0  COORDINATES:    0.000000    0.000000    0.000000


 **********************************************************************************************************************************
 DATASETS  * FILE   NREC   LENGTH (MB)   RECORD NAMES
              1      19       47.44       500      610      700      900      950      970     1000      129      960     1100   
                                          VAR    BASINP    GEOM    SYMINP    ZMAT    AOBASIS   BASIS     P2S    ABASIS      S 
                                         1400     1410     1200     1210     1080     1600     1650     1300     1700   
                                           T        V       H0       H01     AOSYM     SMH    MOLCAS    ERIS     OPER   

 PROGRAMS   *        TOTAL       INT
 CPU TIMES  *         1.05      0.90
 REAL TIME  *         1.51 SEC
 DISK USED  *       105.25 MB      
 **********************************************************************************************************************************

 Density functional group MM05-2X=M052XX+M052XC
 Functional: M052XX(Automatically generated (new) M052XX)                      Gradient terms: 2
 Functional: M052XC(Automatically generated (new) M052XC)                      Gradient terms: 2
 Use grid at  1800.2


 Exact exchange will be calculated, factor:  0.5600

 Functional: M052XX                    Factor:  0.4400
 Functional: M052XC                    Factor:  1.0000

 Generated new metagrid on record  1800.2 with target accuracy 1.0D-06 and 32470 points in CPU time    0.7
 Computed new grid on record 1800.1 in CPU time    0.8
  123858 words reserved for DFT integration

 PROGRAM * RKS-SCF (Restricted open shell Kohn-Sham)     Authors: W. Meyer, H.-J. Werner, P.J. Knowles, 1993

 NUMBER OF ELECTRONS:      13+   12-    SPACE SYMMETRY=1    SPIN SYMMETRY: Doublet 
 CONVERGENCE THRESHOLDS:    1.00E-05 (Density)    1.00E-06 (Energy)
 MAX. NUMBER OF ITERATIONS:       60
 INTERPOLATION TYPE:            DIIS
 INTERPOLATION STEPS:              2 (START)      1 (STEP)
 LEVEL SHIFTS:                 -0.60 (CLOSED) -0.30 (OPEN) 



 Use fine grid record 1800.2 for energy threshold  1.0D-06
 Orbital guess generated from atomic densities. Full valence occupancy:   13

 Molecular orbital dump at record        2100.2

 Initial alpha occupancy:  13
 Initial beta  occupancy:  12
 Wave function symmetry:    1

 ITERATION    DDIFF          GRAD             ENERGY        2-EL.EN.            DIPOLE MOMENTS         DIIS   ORB.
    1      0.000D+00      0.000D+00      -118.27768494    248.033020    0.22283   -0.27448    0.00000    0    start
    2      0.000D+00      0.817D-02      -118.34399663    242.263989    0.08315   -0.13390   -0.00000    1    diag,B
    3      0.755D-02      0.195D-02      -118.34823762    242.956758    0.06147   -0.12693   -0.00000    2    diag,B
    4      0.169D-02      0.691D-03      -118.34975267    242.879497    0.04005   -0.10949   -0.00000    3    diag,B
    5      0.137D-02      0.191D-03      -118.34989536    242.865571    0.03666   -0.10521   -0.00000    4    diag,B
    6      0.586D-03      0.497D-04      -118.34990406    242.858865    0.03635   -0.10401   -0.00000    5    diag,B
    7      0.178D-03      0.143D-04      -118.34990475    242.858240    0.03663   -0.10388   -0.00000    6    fixocc
    8      0.483D-04      0.417D-05      -118.34990482    242.857915    0.03674   -0.10382   -0.00000    7    diag,B
    9      0.127D-04      0.127D-05      -118.34990483    242.857929    0.03679   -0.10383   -0.00000    8    diag,B
   10      0.496D-05      0.402D-06      -118.34990483    242.857935    0.03679   -0.10383   -0.00000    0    orth

 Final alpha occupancy:  13
 Final beta  occupancy:  12

 !RKS STATE 1.1 Energy               -118.349904829507
 Nuclear energy                        75.20704826
 One-electron energy                 -306.26485026
 Two-electron energy                  121.42896769
 Density functional                    -8.72107053     M052XX=-17.92836028 M052XC= -0.83259200
 Virial quotient                       -1.01332338
 !RKS STATE 1.1 Dipole moment           0.03679087    -0.10383130    -0.00000000
 Dipole moment /Debye                   0.09350693    -0.26389556    -0.00000000

 Orbital energies:

         1.1          2.1          3.1          4.1          5.1          6.1          7.1          8.1          9.1         10.1
    -10.571525   -10.569213   -10.569182    -0.866299    -0.777934    -0.636826    -0.521966    -0.486359    -0.474272    -0.448075

        11.1         12.1         13.1         14.1         15.1
     -0.417065    -0.408409    -0.239828     0.119264     0.149827

 HOMO     13.1    -0.239828 =      -6.5261eV
 LUMO     14.1     0.119264 =       3.2453eV
 LUMO-HOMO         0.359093 =       9.7714eV


 **********************************************************************************************************************************
 DATASETS  * FILE   NREC   LENGTH (MB)   RECORD NAMES
              1      20       48.47       500      610      700      900      950      970     1000      129      960     1100   
                                          VAR    BASINP    GEOM    SYMINP    ZMAT    AOBASIS   BASIS     P2S    ABASIS      S 
                                         1400     1410     1200     1210     1080     1600     1650     1300     1700     1800   
                                           T        V       H0       H01     AOSYM     SMH    MOLCAS    ERIS     OPER     GRID   

              2       5        3.08       700     1000      520     1800     2100   
                                         GEOM     BASIS   MCVARS    GRID      RKS  

 PROGRAMS   *        TOTAL        KS       INT
 CPU TIMES  *        26.73     25.68      0.90
 REAL TIME  *        27.30 SEC
 DISK USED  *       105.25 MB      
 **********************************************************************************************************************************


 PROGRAM * Intrinsic Basis Bonding Analysis (IBBA)          Author: G. Knizia

 Molecular orbitals read from record     2100.2  Type=RKS/CANONICAL (state 1.1)
 Fock matrix read from record            2100.2  Type=RKS/TOTAL (state 1.1)
 Orbital energies read from record       2100.2  Type=RKS/CANONICAL (state 1.1)
 Density matrix read from record         2100.2  Type=RKS/CHARGE (state 1.1)

 Number of core orbitals:           3 (   3 )
 Number of closed-shell orbitals:   9 (   9 )
 Number of active  orbitals:        1 (   1 )

 Basis set MINAO-AUTO-PP generated.      Number of basis functions:   22 

 Polarized AO type:                A = (O Ot + (1-O)(1-Ot)) P12
 Orthogonalization method:         Symmetric (Loewdin)
 Localization functional:          L = sum[A,i] <i|n_A|i>^4 -> max

 Localization group 1:  12 orbitals, occupancy  2.000
 Iterative localization: IB/PM,    7 iter; Final gradient 0.16E-08

 Bond order analysis:       [THRPRINT= 0.020]

   CEN ATOM   CEN ATOM     WIBERG.BO      RENORM.BO
     1   H  -   2   C       0.956358       0.971531

     2   C  -   4   C       1.087605       1.495422
     2   C  -   3   C       1.087605       1.495422
     2   C  -   1   H       0.956358       0.971531
     2   C  -   9   H       0.036600       0.311209
     2   C  -  10   H       0.036600       0.311209

     3   C  -   2   C       1.087605       1.495422
     3   C  -   5   H       0.957649       0.990200
     3   C  -   7   H       0.950565       0.989424
     3   C  -   9   H       0.923734       0.998431

     4   C  -   2   C       1.087605       1.495422
     4   C  -   6   H       0.957649       0.990200
     4   C  -   8   H       0.950565       0.989424
     4   C  -  10   H       0.923734       0.998431

     5   H  -   3   C       0.957649       0.990200

     6   H  -   4   C       0.957649       0.990200

     7   H  -   3   C       0.950565       0.989424

     8   H  -   4   C       0.950565       0.989424

     9   H  -   3   C       0.923734       0.998431
     9   H  -   2   C       0.036600       0.311209

    10   H  -   4   C       0.923734       0.998431
    10   H  -   2   C       0.036600       0.311209


 Valency analysis:

   CEN ATOM   TOT.VALENCE
     1   H       0.983220
     2   C       3.239024
     3   C       3.936218
     4   C       3.936218
     5   H       0.978627
     6   H       0.978627
     7   H       0.978134
     8   H       0.978134
     9   H       0.969669
    10   H       0.969669
 Localization group 2:   1 orbitals, occupancy  1.000
 Iterative localization: IB/PM,    1 iter; Final gradient 0.00E+00

 Bond order analysis:       [THRPRINT= 0.020]

   CEN ATOM   CEN ATOM     WIBERG.BO      RENORM.BO

     2   C  -   9   H       0.072203       0.500000
     2   C  -  10   H       0.072203       0.500000
     2   C  -   7   H       0.022411       0.500000
     2   C  -   8   H       0.022411       0.500000





     7   H  -   2   C       0.022411       0.500000

     8   H  -   2   C       0.022411       0.500000

     9   H  -   2   C       0.072203       0.500000

    10   H  -   2   C       0.072203       0.500000


 Valency analysis:

   CEN ATOM   TOT.VALENCE
     1   H       0.000884
     2   C       0.211405
     3   C       0.003719
     4   C       0.003719
     5   H       0.008398
     6   H       0.008398
     7   H       0.025147
     8   H       0.025147
     9   H       0.078694
    10   H       0.078694

 Total charge composition:

   CEN ATOM         s          p       ELECTRONS ->P.CHARGE
     1   H       0.87090                 0.87090    0.12910
     2   C       2.99797    3.14035      6.13832   -0.13832
     3   C       3.00315    3.40248      6.40563   -0.40563
     4   C       3.00315    3.40248      6.40563   -0.40563
     5   H       0.85802                 0.85802    0.14198
     6   H       0.85802                 0.85802    0.14198
     7   H       0.86486                 0.86486    0.13514
     8   H       0.86486                 0.86486    0.13514
     9   H       0.86687                 0.86687    0.13313
    10   H       0.86687                 0.86687    0.13313

 Total charge composition, AO contributions:

   CEN ATOM SHL      SPHERICAL COMPONENTS
     1   H  1s       0.87090

     2   C  1s       1.99215
     2   C  2s       1.00582
     2   C  2p       1.11143    1.01685    1.01207

     3   C  1s       1.99051
     3   C  2s       1.01264
     3   C  2p       1.14741    1.15487    1.10020

     4   C  1s       1.99051
     4   C  2s       1.01264
     4   C  2p       1.14741    1.15487    1.10020

     5   H  1s       0.85802

     6   H  1s       0.85802

     7   H  1s       0.86486

     8   H  1s       0.86486

     9   H  1s       0.86687

    10   H  1s       0.86687

 Active orbital charges:

   CEN ATOM         s          p       ELECTRONS ->SPIN.DEN
     1   H       0.00044                 0.00044    0.00044
     2   C       0.00813    0.87173      0.87986    0.87986
     3   C       0.00010    0.00176      0.00186    0.00186
     4   C       0.00010    0.00176      0.00186    0.00186
     5   H       0.00422                 0.00422    0.00422
     6   H       0.00422                 0.00422    0.00422
     7   H       0.01274                 0.01274    0.01274
     8   H       0.01274                 0.01274    0.01274
     9   H       0.04103                 0.04103    0.04103
    10   H       0.04103                 0.04103    0.04103

 Active orbital charges, AO contributions:

   CEN ATOM SHL      SPHERICAL COMPONENTS
     1   H  1s       0.00044

     2   C  1s       0.00001
     2   C  2s       0.00813
     2   C  2p       0.03516    0.83657    0.00000

     3   C  1s       0.00000
     3   C  2s       0.00010
     3   C  2p       0.00001    0.00164    0.00011

     4   C  1s       0.00000
     4   C  2s       0.00010
     4   C  2p       0.00001    0.00164    0.00011

     5   H  1s       0.00422

     6   H  1s       0.00422

     7   H  1s       0.01274

     8   H  1s       0.01274

     9   H  1s       0.04103

    10   H  1s       0.04103

 Summary of localized orbital composition:   [THRPRINT= 0.020]

   ORB  GRP  ORB.ENERGY      CENTERS/CHARGES
     1   1   -10.468937      C  2   2.000
     2   1   -10.450104      C  4   2.000
     3   1   -10.450104      C  3   2.000
     4   1    -0.679752      C  4   1.005   C  2   0.988
     5   1    -0.679752      C  3   1.005   C  2   0.988
     6   1    -0.591981      C  2   1.128   H  1   0.861
     7   1    -0.572717      C  4   1.126   H 10   0.823   C  2   0.049
     8   1    -0.572717      C  3   1.126   H  9   0.823   C  2   0.049
     9   1    -0.570273      C  4   1.137   H  6   0.848
    10   1    -0.570273      C  3   1.137   H  5   0.848
    11   1    -0.570257      C  3   1.130   H  7   0.847   (other: 0.023)
    12   1    -0.570257      C  4   1.130   H  8   0.847   (other: 0.023)
    13   2    -0.108408      C  2   0.880   H  9   0.041   H 10   0.041   (other: 0.038)

 Localized orbitals saved to record      2100.2  (orbital set 2)


 **********************************************************************************************************************************
 DATASETS  * FILE   NREC   LENGTH (MB)   RECORD NAMES
              1      20       48.47       500      610      700      900      950      970     1000      129      960     1100   
                                          VAR    BASINP    GEOM    SYMINP    ZMAT    AOBASIS   BASIS     P2S    ABASIS      S 
                                         1400     1410     1200     1210     1080     1600     1650     1300     1700     1800   
                                           T        V       H0       H01     AOSYM     SMH    MOLCAS    ERIS     OPER     GRID   

              2       5        3.13       700     1000      520     1800     2100   
                                         GEOM     BASIS   MCVARS    GRID      RKS  

 PROGRAMS   *        TOTAL      IBBA        KS       INT
 CPU TIMES  *        26.76      0.03     25.68      0.90
 REAL TIME  *        27.39 SEC
 DISK USED  *       105.25 MB      
 **********************************************************************************************************************************
 Molecular orbitals read from record     2100.2  Type=RKS/LOCAL(IBO)  
 Occupation numbers read from record     2100.2  Type=RKS/LOCAL(IBO)  
 Orbital energies read from record       2100.2  Type=RKS/LOCAL(IBO)  
 Redundancy group numbers read from rec  2100.2  Type=RKS/LOCAL(IBO)  

 IBBA/SVP energy=      0.000000000000

        KS-SCF  
   -118.34990483
 **********************************************************************************************************************************
 Molpro calculation terminated
