
 Primary working directories    : /tmp/sb13343
 Secondary working directories  : /tmp/sb13343
 Wavefunction directory         : /panfs/panasas01/chem/sb13343/wfu/
 Main file repository           : /tmp/sb13343/

 SHA1      : b4a5b34a9e711420743f49e6833241d17c61fb3c
 NAME      : 2099.9.b4a5b34
 ARCHNAME  : linux/x86_64_openmp
 FC        : /cm/shared/languages/GCC-6.1/bin/gfortran
 BLASLIB   : -lblas
 id        : simonbennie

 Nodes     nprocs
 node32-018    1

 Using customized tuning parameters: mindgm=1; mindgv=20; mindgc=4; mindgr=1; noblas=0; minvec=7
 default implementation of scratch files=df  

 memory,500,m
 geomtyp=xyz
 nosym
 noorient
 geometry={
 H         -1.57413        0.33845        0.00000
 C         -0.49500        0.20144        0.00000
 C          0.18857       -0.05954       -1.30114
 C          0.18857       -0.05954        1.30114
 H         -0.33790        0.40751       -2.14134
 H         -0.33790        0.40751        2.14134
 H          1.22176        0.31596       -1.29638
 H          1.22176        0.31596        1.29638
 H          0.25678       -1.13976       -1.52896
 H          0.25678       -1.13976        1.52896
 }
 basis={ default,svp }
 {ks,VS99,direct;wf,25,1,1}
 {ibba,bonds=1}

 Variables initialized (895), CPU time= 0.01 sec
 Commands  initialized (725), CPU time= 0.01 sec, 591 directives.
 Default parameters read. Elapsed time= 0.09 sec

 Checking input...
 Passed
1


                                         ***  PROGRAM SYSTEM MOLPRO  ***
                                       Copyright, TTI GmbH Stuttgart, 2015
                                    Version 2099.9 linked May 26 2017 16:03:21


 **********************************************************************************************************************************
 LABEL *                                                                                 
  64 bit serial version                                                                  DATE: 08-Jun-17          TIME: 15:29:21  
 **********************************************************************************************************************************

 SHA1:             b4a5b34a9e711420743f49e6833241d17c61fb3c
 **********************************************************************************************************************************
 SETTING GEOMTYP        =    XYZ

 Variable memory set to  500000000 words,  buffer space 

 ZSYMEL=NOSYM

 SETTING BASIS          =    SVP


 Recomputing integrals since basis changed


 Using spherical harmonics

 Library entry H      S def2-SVP             selected for orbital group  1
 Library entry H      P def2-SVP             selected for orbital group  1
 Library entry C      S def2-SVP             selected for orbital group  2
 Library entry C      P def2-SVP             selected for orbital group  2
 Library entry C      D def2-SVP             selected for orbital group  2


 PROGRAM * SEWARD (Integral evaluation for generally contracted gaussian basis sets)     Author: Roland Lindh, 1990

 Geometry written to block  1 of record 700


 Point group  C1  



 ATOMIC COORDINATES

 NR  ATOM    CHARGE       X              Y              Z

   1  H       1.00   -2.974674584    0.639577807    0.000000000
   2  C       6.00   -0.935414432    0.380666431    0.000000000
   3  C       6.00    0.356345655   -0.112514293   -2.458798250
   4  C       6.00    0.356345655   -0.112514293    2.458798250
   5  H       1.00   -0.638538457    0.770082293   -4.046546140
   6  H       1.00   -0.638538457    0.770082293    4.046546140
   7  H       1.00    2.308791790    0.597077866   -2.449803153
   8  H       1.00    2.308791790    0.597077866    2.449803153
   9  H       1.00    0.485243874   -2.153834248   -2.889315655
  10  H       1.00    0.485243874   -2.153834248    2.889315655

 Bond lengths in Bohr (Angstrom)

 1-2  2.055630578  2-3  2.820914777  2-4  2.820914777  3-5  2.071162595  3-7  2.077413742
     ( 1.087792856)     ( 1.492763814)     ( 1.492763814)     ( 1.096012045)     ( 1.099320010)

  3- 9  2.090202656   4- 6  2.071162595   4- 8  2.077413742   4-10  2.090202656
       ( 1.106087612)       ( 1.096012045)       ( 1.099320010)       ( 1.106087612)

 Bond angles

  1-2-3  118.44375943   1-2-4  118.44375943   2-3-5  111.94558337   2-3-7  111.52358867

  2- 3- 9  112.24140213   2- 4- 6  111.94558337   2- 4- 8  111.52358867   2- 4-10  112.24140213

  3-2-4  121.29758064   5-3-7  108.01204745   5-3-9  106.73207413   6-4-8  108.01204745

  6- 4-10  106.73207413   7- 3- 9  106.05262855   8- 4-10  106.05262855

 NUCLEAR CHARGE:                   25
 NUMBER OF PRIMITIVE AOS:         124
 NUMBER OF SYMMETRY AOS:          121
 NUMBER OF CONTRACTIONS:           77   (  77A   )
 NUMBER OF CORE ORBITALS:           3   (   3A   )
 NUMBER OF VALENCE ORBITALS:       19   (  19A   )


 NUCLEAR REPULSION ENERGY   75.20704826


 Eigenvalues of metric

         1 0.402E-02 0.537E-02 0.229E-01 0.265E-01 0.266E-01 0.379E-01 0.436E-01 0.492E-01


 Contracted 2-electron integrals neglected if value below      1.0D-11
 AO integral compression algorithm  1   Integral accuracy      1.0D-11

     19.923 MB (compressed) written to integral file ( 49.4%)


 NUMBER OF SORTED TWO-ELECTRON INTEGRALS:    4510506.     BUFFER LENGTH:  32768
 NUMBER OF SEGMENTS:   1  SEGMENT LENGTH:    4510506      RECORD LENGTH: 524288

 Memory used in sort:       5.07 MW

 SORT1 READ     5074366. AND WROTE     4244391. INTEGRALS IN     13 RECORDS. CPU TIME:     0.05 SEC, REAL TIME:     0.12 SEC
 SORT2 READ     4244391. AND WROTE     4510506. INTEGRALS IN     76 RECORDS. CPU TIME:     0.14 SEC, REAL TIME:     0.17 SEC

 FILE SIZES:   FILE 1:    50.3 MBYTE,  FILE 4:    54.6 MBYTE,   TOTAL:    104.8 MBYTE

 OPERATOR DM      FOR CENTER  0  COORDINATES:    0.000000    0.000000    0.000000


 **********************************************************************************************************************************
 DATASETS  * FILE   NREC   LENGTH (MB)   RECORD NAMES
              1      19       47.44       500      610      700      900      950      970     1000      129      960     1100   
                                          VAR    BASINP    GEOM    SYMINP    ZMAT    AOBASIS   BASIS     P2S    ABASIS      S 
                                         1400     1410     1200     1210     1080     1600     1650     1300     1700   
                                           T        V       H0       H01     AOSYM     SMH    MOLCAS    ERIS     OPER   

 PROGRAMS   *        TOTAL       INT
 CPU TIMES  *         1.03      0.89
 REAL TIME  *         1.49 SEC
 DISK USED  *       105.25 MB      
 **********************************************************************************************************************************

 Density functional group VS99=VSXC
 Functional: VSXC(Automatically generated (new) VSXC)                          Gradient terms: 2
 Use grid at  1800.2

 Functional: VSXC                      Factor:  1.0000

 Generated new metagrid on record  1800.2 with target accuracy 1.0D-06 and 32470 points in CPU time    0.7
 Computed new grid on record 1800.1 in CPU time    0.8
  123858 words reserved for DFT integration

 PROGRAM * RKS-SCF (Restricted open shell Kohn-Sham)     Authors: W. Meyer, H.-J. Werner, P.J. Knowles, 1993

 NUMBER OF ELECTRONS:      13+   12-    SPACE SYMMETRY=1    SPIN SYMMETRY: Doublet 
 CONVERGENCE THRESHOLDS:    1.00E-05 (Density)    1.00E-06 (Energy)
 MAX. NUMBER OF ITERATIONS:       60
 INTERPOLATION TYPE:            DIIS
 INTERPOLATION STEPS:              2 (START)      1 (STEP)
 LEVEL SHIFTS:                 -0.60 (CLOSED) -0.30 (OPEN) 



 Use fine grid record 1800.2 for energy threshold  1.0D-06
 Orbital guess generated from atomic densities. Full valence occupancy:   13

 Molecular orbital dump at record        2100.2

 Initial alpha occupancy:  13
 Initial beta  occupancy:  12
 Wave function symmetry:    1

 ITERATION    DDIFF          GRAD             ENERGY        2-EL.EN.            DIPOLE MOMENTS         DIIS   ORB.
    1      0.000D+00      0.000D+00      -117.77337919    270.795643    0.16679   -0.23756    0.00000    0    start
    2      0.000D+00      0.106D-01      -117.88380978    261.232772    0.03815   -0.09254   -0.00000    1    diag,B
    3      0.115D-01      0.336D-02      -117.89292499    262.886826    0.04312   -0.11596   -0.00000    2    diag,B
    4      0.312D-02      0.592D-03      -117.89365229    262.717609    0.03349   -0.10470   -0.00000    3    diag,B
    5      0.154D-02      0.227D-03      -117.89378689    262.692209    0.03261   -0.10457   -0.00000    4    diag,B
    6      0.793D-03      0.756D-04      -117.89380208    262.673889    0.03040   -0.10254   -0.00000    5    diag,B
    7      0.282D-03      0.239D-04      -117.89380399    262.674128    0.03059   -0.10288   -0.00000    6    fixocc
    8      0.116D-03      0.717D-05      -117.89380419    262.674064    0.03052   -0.10294   -0.00000    7    diag,B
    9      0.368D-04      0.232D-05      -117.89380421    262.674008    0.03049   -0.10301   -0.00000    8    diag,B
   10      0.120D-04      0.585D-06      -117.89380421    262.673983    0.03046   -0.10301   -0.00000    9    orth
   11      0.284D-05      0.129D-06      -117.89380421    262.673978    0.03046   -0.10301   -0.00000    0    orth

 Final alpha occupancy:  13
 Final beta  occupancy:  12

 !RKS STATE 1.1 Energy               -117.893804208725
 Nuclear energy                        75.20704826
 One-electron energy                 -306.10889710
 Two-electron energy                  131.33698889
 Density functional                   -18.32894425     VSXC=-18.32894425
 Virial quotient                       -1.01000315
 !RKS STATE 1.1 Dipole moment           0.03045689    -0.10300540    -0.00000000
 Dipole moment /Debye                   0.07740862    -0.26179647    -0.00000000

 Orbital energies:

         1.1          2.1          3.1          4.1          5.1          6.1          7.1          8.1          9.1         10.1
     -9.956709    -9.953110    -9.953108    -0.713746    -0.631530    -0.502672    -0.397285    -0.368288    -0.356143    -0.332108

        11.1         12.1         13.1         14.1         15.1
     -0.303991    -0.293592    -0.130630     0.064213     0.093046

 HOMO     13.1    -0.130630 =      -3.5546eV
 LUMO     14.1     0.064213 =       1.7473eV
 LUMO-HOMO         0.194843 =       5.3020eV


 **********************************************************************************************************************************
 DATASETS  * FILE   NREC   LENGTH (MB)   RECORD NAMES
              1      20       48.47       500      610      700      900      950      970     1000      129      960     1100   
                                          VAR    BASINP    GEOM    SYMINP    ZMAT    AOBASIS   BASIS     P2S    ABASIS      S 
                                         1400     1410     1200     1210     1080     1600     1650     1300     1700     1800   
                                           T        V       H0       H01     AOSYM     SMH    MOLCAS    ERIS     OPER     GRID   

              2       5        3.08       700     1000      520     1800     2100   
                                         GEOM     BASIS   MCVARS    GRID      RKS  

 PROGRAMS   *        TOTAL        KS       INT
 CPU TIMES  *        28.41     27.38      0.89
 REAL TIME  *        29.01 SEC
 DISK USED  *       105.25 MB      
 **********************************************************************************************************************************


 PROGRAM * Intrinsic Basis Bonding Analysis (IBBA)          Author: G. Knizia

 Molecular orbitals read from record     2100.2  Type=RKS/CANONICAL (state 1.1)
 Fock matrix read from record            2100.2  Type=RKS/TOTAL (state 1.1)
 Orbital energies read from record       2100.2  Type=RKS/CANONICAL (state 1.1)
 Density matrix read from record         2100.2  Type=RKS/CHARGE (state 1.1)

 Number of core orbitals:           3 (   3 )
 Number of closed-shell orbitals:   9 (   9 )
 Number of active  orbitals:        1 (   1 )

 Basis set MINAO-AUTO-PP generated.      Number of basis functions:   22 

 Polarized AO type:                A = (O Ot + (1-O)(1-Ot)) P12
 Orthogonalization method:         Symmetric (Loewdin)
 Localization functional:          L = sum[A,i] <i|n_A|i>^4 -> max

 Localization group 1:  12 orbitals, occupancy  2.000
 Iterative localization: IB/PM,    7 iter; Final gradient 0.48E-08

 Bond order analysis:       [THRPRINT= 0.020]

   CEN ATOM   CEN ATOM     WIBERG.BO      RENORM.BO
     1   H  -   2   C       0.952266       0.965220

     2   C  -   3   C       1.114420       1.494966
     2   C  -   4   C       1.114420       1.494966
     2   C  -   1   H       0.952266       0.965220
     2   C  -   9   H       0.044883       0.302248
     2   C  -  10   H       0.044883       0.302248

     3   C  -   2   C       1.114420       1.494966
     3   C  -   5   H       0.954099       0.987593
     3   C  -   7   H       0.944412       0.986339
     3   C  -   9   H       0.908890       0.997877

     4   C  -   2   C       1.114420       1.494966
     4   C  -   6   H       0.954099       0.987593
     4   C  -   8   H       0.944412       0.986339
     4   C  -  10   H       0.908890       0.997877

     5   H  -   3   C       0.954099       0.987593

     6   H  -   4   C       0.954099       0.987593

     7   H  -   3   C       0.944412       0.986339

     8   H  -   4   C       0.944412       0.986339

     9   H  -   3   C       0.908890       0.997877
     9   H  -   2   C       0.044883       0.302248

    10   H  -   4   C       0.908890       0.997877
    10   H  -   2   C       0.044883       0.302248


 Valency analysis:

   CEN ATOM   TOT.VALENCE
     1   H       0.984192
     2   C       3.311935
     3   C       3.942213
     4   C       3.942213
     5   H       0.978145
     6   H       0.978145
     7   H       0.977154
     8   H       0.977154
     9   H       0.964774
    10   H       0.964774
 Localization group 2:   1 orbitals, occupancy  1.000
 Iterative localization: IB/PM,    1 iter; Final gradient 0.00E+00

 Bond order analysis:       [THRPRINT= 0.020]

   CEN ATOM   CEN ATOM     WIBERG.BO      RENORM.BO

     2   C  -   9   H       0.089866       0.500000
     2   C  -  10   H       0.089866       0.500000
     2   C  -   7   H       0.027764       0.500000
     2   C  -   8   H       0.027764       0.500000





     7   H  -   2   C       0.027764       0.500000

     8   H  -   2   C       0.027764       0.500000

     9   H  -   2   C       0.089866       0.500000

    10   H  -   2   C       0.089866       0.500000


 Valency analysis:

   CEN ATOM   TOT.VALENCE
     1   H       0.000916
     2   C       0.262211
     3   C       0.004631
     4   C       0.004631
     5   H       0.010791
     6   H       0.010791
     7   H       0.032324
     8   H       0.032324
     9   H       0.100717
    10   H       0.100717

 Total charge composition:

   CEN ATOM         s          p       ELECTRONS ->P.CHARGE
     1   H       0.87473                 0.87473    0.12527
     2   C       3.01657    3.11367      6.13025   -0.13025
     3   C       3.02828    3.38086      6.40914   -0.40914
     4   C       3.02828    3.38086      6.40914   -0.40914
     5   H       0.85759                 0.85759    0.14241
     6   H       0.85759                 0.85759    0.14241
     7   H       0.86528                 0.86528    0.13472
     8   H       0.86528                 0.86528    0.13472
     9   H       0.86550                 0.86550    0.13450
    10   H       0.86550                 0.86550    0.13450

 Total charge composition, AO contributions:

   CEN ATOM SHL      SPHERICAL COMPONENTS
     1   H  1s       0.87473

     2   C  1s       1.99244
     2   C  2s       1.02413
     2   C  2p       1.09397    1.02249    0.99721

     3   C  1s       1.99072
     3   C  2s       1.03756
     3   C  2p       1.13885    1.14540    1.09661

     4   C  1s       1.99072
     4   C  2s       1.03756
     4   C  2p       1.13885    1.14540    1.09661

     5   H  1s       0.85759

     6   H  1s       0.85759

     7   H  1s       0.86528

     8   H  1s       0.86528

     9   H  1s       0.86550

    10   H  1s       0.86550

 Active orbital charges:

   CEN ATOM         s          p       ELECTRONS ->SPIN.DEN
     1   H       0.00046                 0.00046    0.00046
     2   C       0.00821    0.83660      0.84481    0.84481
     3   C       0.00012    0.00220      0.00232    0.00232
     4   C       0.00012    0.00220      0.00232    0.00232
     5   H       0.00543                 0.00543    0.00543
     6   H       0.00543                 0.00543    0.00543
     7   H       0.01643                 0.01643    0.01643
     8   H       0.01643                 0.01643    0.01643
     9   H       0.05319                 0.05319    0.05319
    10   H       0.05319                 0.05319    0.05319

 Active orbital charges, AO contributions:

   CEN ATOM SHL      SPHERICAL COMPONENTS
     1   H  1s       0.00046

     2   C  1s       0.00001
     2   C  2s       0.00821
     2   C  2p       0.03366    0.80294    0.00000

     3   C  1s       0.00000
     3   C  2s       0.00012
     3   C  2p       0.00001    0.00211    0.00008

     4   C  1s       0.00000
     4   C  2s       0.00012
     4   C  2p       0.00001    0.00211    0.00008

     5   H  1s       0.00543

     6   H  1s       0.00543

     7   H  1s       0.01643

     8   H  1s       0.01643

     9   H  1s       0.05319

    10   H  1s       0.05319

 Summary of localized orbital composition:   [THRPRINT= 0.020]

   ORB  GRP  ORB.ENERGY      CENTERS/CHARGES
     1   1    -9.857705      C  2   2.000
     2   1    -9.837530      C  4   2.000
     3   1    -9.837530      C  3   2.000
     4   1    -0.547379      C  3   1.011   C  2   0.982
     5   1    -0.547379      C  4   1.011   C  2   0.982
     6   1    -0.462493      C  2   1.122   H  1   0.864
     7   1    -0.448233      C  3   1.125   H  9   0.809   C  2   0.064
     8   1    -0.448233      C  4   1.125   H 10   0.809   C  2   0.064
     9   1    -0.444401      C  4   1.128   H  8   0.843   C  2   0.023
    10   1    -0.444401      C  3   1.128   H  7   0.843   C  2   0.023
    11   1    -0.443501      C  4   1.135   H  6   0.846
    12   1    -0.443501      C  3   1.135   H  5   0.846
    13   2    -0.091054      C  2   0.845   H  9   0.053   H 10   0.053   (other: 0.049)

 Localized orbitals saved to record      2100.2  (orbital set 2)


 **********************************************************************************************************************************
 DATASETS  * FILE   NREC   LENGTH (MB)   RECORD NAMES
              1      20       48.47       500      610      700      900      950      970     1000      129      960     1100   
                                          VAR    BASINP    GEOM    SYMINP    ZMAT    AOBASIS   BASIS     P2S    ABASIS      S 
                                         1400     1410     1200     1210     1080     1600     1650     1300     1700     1800   
                                           T        V       H0       H01     AOSYM     SMH    MOLCAS    ERIS     OPER     GRID   

              2       5        3.13       700     1000      520     1800     2100   
                                         GEOM     BASIS   MCVARS    GRID      RKS  

 PROGRAMS   *        TOTAL      IBBA        KS       INT
 CPU TIMES  *        28.44      0.03     27.38      0.89
 REAL TIME  *        29.20 SEC
 DISK USED  *       105.25 MB      
 **********************************************************************************************************************************
 Molecular orbitals read from record     2100.2  Type=RKS/LOCAL(IBO)  
 Occupation numbers read from record     2100.2  Type=RKS/LOCAL(IBO)  
 Orbital energies read from record       2100.2  Type=RKS/LOCAL(IBO)  
 Redundancy group numbers read from rec  2100.2  Type=RKS/LOCAL(IBO)  

 IBBA/SVP energy=      0.000000000000

        KS-SCF  
   -117.89380421
 **********************************************************************************************************************************
 Molpro calculation terminated
