
 Primary working directories    : /tmp/sb13343
 Secondary working directories  : /tmp/sb13343
 Wavefunction directory         : /panfs/panasas01/chem/sb13343/wfu/
 Main file repository           : /tmp/sb13343/

 SHA1      : b4a5b34a9e711420743f49e6833241d17c61fb3c
 NAME      : 2099.9.b4a5b34
 ARCHNAME  : linux/x86_64_openmp
 FC        : /cm/shared/languages/GCC-6.1/bin/gfortran
 BLASLIB   : -lblas
 id        : simonbennie

 Nodes     nprocs
 node32-017    1

 Using customized tuning parameters: mindgm=1; mindgv=20; mindgc=4; mindgr=1; noblas=0; minvec=7
 default implementation of scratch files=df  

 memory,500,m
 geomtyp=xyz
 nosym
 noorient
 geometry={
 H         -1.57413        0.33845        0.00000
 C         -0.49500        0.20144        0.00000
 C          0.18857       -0.05954       -1.30114
 C          0.18857       -0.05954        1.30114
 H         -0.33790        0.40751       -2.14134
 H         -0.33790        0.40751        2.14134
 H          1.22176        0.31596       -1.29638
 H          1.22176        0.31596        1.29638
 H          0.25678       -1.13976       -1.52896
 H          0.25678       -1.13976        1.52896
 }
 basis={ default,svp }
 {uks,M06-HF,direct;wf,25,1,1}
 {ibba,bonds=1}

 Variables initialized (895), CPU time= 0.01 sec
 Commands  initialized (725), CPU time= 0.01 sec, 591 directives.
 Default parameters read. Elapsed time= 0.09 sec

 Checking input...
 Passed
1


                                         ***  PROGRAM SYSTEM MOLPRO  ***
                                       Copyright, TTI GmbH Stuttgart, 2015
                                    Version 2099.9 linked May 26 2017 16:03:21


 **********************************************************************************************************************************
 LABEL *                                                                                 
  64 bit serial version                                                                  DATE: 08-Jun-17          TIME: 15:34:09  
 **********************************************************************************************************************************

 SHA1:             b4a5b34a9e711420743f49e6833241d17c61fb3c
 **********************************************************************************************************************************
 SETTING GEOMTYP        =    XYZ

 Variable memory set to  500000000 words,  buffer space 

 ZSYMEL=NOSYM

 SETTING BASIS          =    SVP


 Recomputing integrals since basis changed


 Using spherical harmonics

 Library entry H      S def2-SVP             selected for orbital group  1
 Library entry H      P def2-SVP             selected for orbital group  1
 Library entry C      S def2-SVP             selected for orbital group  2
 Library entry C      P def2-SVP             selected for orbital group  2
 Library entry C      D def2-SVP             selected for orbital group  2


 PROGRAM * SEWARD (Integral evaluation for generally contracted gaussian basis sets)     Author: Roland Lindh, 1990

 Geometry written to block  1 of record 700


 Point group  C1  



 ATOMIC COORDINATES

 NR  ATOM    CHARGE       X              Y              Z

   1  H       1.00   -2.974674584    0.639577807    0.000000000
   2  C       6.00   -0.935414432    0.380666431    0.000000000
   3  C       6.00    0.356345655   -0.112514293   -2.458798250
   4  C       6.00    0.356345655   -0.112514293    2.458798250
   5  H       1.00   -0.638538457    0.770082293   -4.046546140
   6  H       1.00   -0.638538457    0.770082293    4.046546140
   7  H       1.00    2.308791790    0.597077866   -2.449803153
   8  H       1.00    2.308791790    0.597077866    2.449803153
   9  H       1.00    0.485243874   -2.153834248   -2.889315655
  10  H       1.00    0.485243874   -2.153834248    2.889315655

 Bond lengths in Bohr (Angstrom)

 1-2  2.055630578  2-3  2.820914777  2-4  2.820914777  3-5  2.071162595  3-7  2.077413742
     ( 1.087792856)     ( 1.492763814)     ( 1.492763814)     ( 1.096012045)     ( 1.099320010)

  3- 9  2.090202656   4- 6  2.071162595   4- 8  2.077413742   4-10  2.090202656
       ( 1.106087612)       ( 1.096012045)       ( 1.099320010)       ( 1.106087612)

 Bond angles

  1-2-3  118.44375943   1-2-4  118.44375943   2-3-5  111.94558337   2-3-7  111.52358867

  2- 3- 9  112.24140213   2- 4- 6  111.94558337   2- 4- 8  111.52358867   2- 4-10  112.24140213

  3-2-4  121.29758064   5-3-7  108.01204745   5-3-9  106.73207413   6-4-8  108.01204745

  6- 4-10  106.73207413   7- 3- 9  106.05262855   8- 4-10  106.05262855

 NUCLEAR CHARGE:                   25
 NUMBER OF PRIMITIVE AOS:         124
 NUMBER OF SYMMETRY AOS:          121
 NUMBER OF CONTRACTIONS:           77   (  77A   )
 NUMBER OF CORE ORBITALS:           3   (   3A   )
 NUMBER OF VALENCE ORBITALS:       19   (  19A   )


 NUCLEAR REPULSION ENERGY   75.20704826


 Eigenvalues of metric

         1 0.402E-02 0.537E-02 0.229E-01 0.265E-01 0.266E-01 0.379E-01 0.436E-01 0.492E-01


 Contracted 2-electron integrals neglected if value below      1.0D-11
 AO integral compression algorithm  1   Integral accuracy      1.0D-11

     19.923 MB (compressed) written to integral file ( 49.4%)


 NUMBER OF SORTED TWO-ELECTRON INTEGRALS:    4510506.     BUFFER LENGTH:  32768
 NUMBER OF SEGMENTS:   1  SEGMENT LENGTH:    4510506      RECORD LENGTH: 524288

 Memory used in sort:       5.07 MW

 SORT1 READ     5074366. AND WROTE     4244391. INTEGRALS IN     13 RECORDS. CPU TIME:     0.06 SEC, REAL TIME:     0.12 SEC
 SORT2 READ     4244391. AND WROTE     4510506. INTEGRALS IN     76 RECORDS. CPU TIME:     0.14 SEC, REAL TIME:     0.18 SEC

 FILE SIZES:   FILE 1:    50.3 MBYTE,  FILE 4:    54.6 MBYTE,   TOTAL:    104.8 MBYTE

 OPERATOR DM      FOR CENTER  0  COORDINATES:    0.000000    0.000000    0.000000


 **********************************************************************************************************************************
 DATASETS  * FILE   NREC   LENGTH (MB)   RECORD NAMES
              1      19       47.44       500      610      700      900      950      970     1000      129      960     1100   
                                          VAR    BASINP    GEOM    SYMINP    ZMAT    AOBASIS   BASIS     P2S    ABASIS      S 
                                         1400     1410     1200     1210     1080     1600     1650     1300     1700   
                                           T        V       H0       H01     AOSYM     SMH    MOLCAS    ERIS     OPER   

 PROGRAMS   *        TOTAL       INT
 CPU TIMES  *         1.18      1.03
 REAL TIME  *         1.66 SEC
 DISK USED  *       105.25 MB      
 **********************************************************************************************************************************

 Density functional group M06-HF=XC-M06-HF
 Functional: XC-M06-HF(via MFM 1.6)                                            Gradient terms: 1
 Use grid at  1800.2


 Exact exchange will be calculated, factor:  1.0000

 Functional: XC-M06-HF                 Factor:  1.0000

 Generated new metagrid on record  1800.2 with target accuracy 1.0D-06 and 32470 points in CPU time    0.7
 Computed new grid on record 1800.1 in CPU time    0.8
   65184 words reserved for DFT integration

 PROGRAM * UKS-SCF (Unrestricted Kohn-Sham)     Authors: W. Meyer, H.-J. Werner, P.J. Knowles, 1993

 NUMBER OF ELECTRONS:      13+   12-    SPACE SYMMETRY=1    SPIN SYMMETRY: Doublet 
 CONVERGENCE THRESHOLDS:    1.00E-05 (Density)    1.00E-06 (Energy)
 MAX. NUMBER OF ITERATIONS:       60
 INTERPOLATION TYPE:            DIIS
 INTERPOLATION STEPS:              2 (START)      1 (STEP)
 LEVEL SHIFTS:                 -0.20 (ALPHA)  -0.20 (BETA) 



 Use fine grid record 1800.2 for energy threshold  1.0D-06
 Orbital guess generated from atomic densities. Full valence occupancy:   13

 Molecular orbital dump at record        2200.2

 Initial alpha occupation  13
 Initial beta  occupation  12

 ITERATION    DDIFF          GRAD             ENERGY        2-EL.EN.            DIPOLE MOMENTS         DIIS
    1      0.000D+00      0.000D+00      -118.26955871    229.440944    0.23684   -0.27616    0.00000    0
    2      0.466D-02      0.315D-02      -118.30872955    226.672173    0.12119   -0.16438    0.00000    1
    3      0.151D-02      0.120D-02      -118.31603354    226.925889    0.07595   -0.13130   -0.00000    2
    4      0.167D-02      0.693D-03      -118.31982921    226.859834    0.04013   -0.09925   -0.00000    3
    5      0.839D-03      0.273D-03      -118.32043170    226.824110    0.03370   -0.08829   -0.00000    4
    6      0.311D-03      0.103D-03      -118.32053207    226.822218    0.03210   -0.08345   -0.00000    5
    7      0.901D-04      0.320D-04      -118.32054033    226.817423    0.03160   -0.08189   -0.00000    6
    8      0.389D-04      0.109D-04      -118.32054138    226.817894    0.03173   -0.08172   -0.00000    7
    9      0.183D-04      0.424D-05      -118.32054160    226.818196    0.03181   -0.08178   -0.00000    7
   10      0.865D-05      0.141D-05      -118.32054163    226.818089    0.03182   -0.08178   -0.00000    7
   11      0.336D-05      0.480D-06      -118.32054163    226.818185    0.03183   -0.08178   -0.00000    7

 Final alpha occupancy:  13
 Final beta  occupancy:  12

 !UKS STATE 1.1 Energy               -118.320541631973
 Nuclear energy                        75.20704826
 One-electron energy                 -306.15905420
 Two-electron energy                  113.40909274
 Density functional                    -0.77762843     XC-M06-HF=-0.77762843
 Virial quotient                       -1.01316000
 !UKS STATE 1.1 Dipole moment           0.03182823    -0.08178095    -0.00000000
 Dipole moment /Debye                   0.08089401    -0.20785283    -0.00000000

 Orbital energies for positive spin:

         1.1          2.1          3.1          4.1          5.1          6.1          7.1          8.1          9.1         10.1
    -10.976218   -10.971902   -10.971859    -0.978197    -0.881235    -0.738137    -0.613169    -0.584865    -0.560942    -0.534639

        11.1         12.1         13.1         14.1         15.1
     -0.495971    -0.489691    -0.301104     0.133389     0.172251

 Orbital energies for negative spin:

         1.1          2.1          3.1          4.1          5.1          6.1          7.1          8.1          9.1         10.1
    -10.975764   -10.972399   -10.972347    -0.959972    -0.874302    -0.718513    -0.602458    -0.557907    -0.549694    -0.523896

        11.1         12.1         13.1         14.1         15.1
     -0.486958    -0.484529     0.074700     0.125835     0.167761

 HOMO     13.1    -0.301104 =      -8.1934eV
 LUMO    -13.1     0.074700 =       2.0327eV
 LUMO-HOMO         0.375804 =      10.2261eV

 EXPECTATION VALUE OF S**2:             0.75558273

 Occupation number threshold for canonical orbitals:  1.999000 (occupied),  0.001000 (virtual)

 Number of pseudo-canonical orbitals per symmetry:   12
 Number of active natural orbitals per symmetry:      1

 Natural orbitals saved to record    2200.2 (Orbital set 3)

 Orbital spaces for UNO-CAS (Min. occupation: 0.020  Max. occupation: 1.980):

 Closed:       12
 Active:        1


 **********************************************************************************************************************************
 DATASETS  * FILE   NREC   LENGTH (MB)   RECORD NAMES
              1      20       48.47       500      610      700      900      950      970     1000      129      960     1100   
                                          VAR    BASINP    GEOM    SYMINP    ZMAT    AOBASIS   BASIS     P2S    ABASIS      S 
                                         1400     1410     1200     1210     1080     1600     1650     1300     1700     1800   
                                           T        V       H0       H01     AOSYM     SMH    MOLCAS    ERIS     OPER     GRID   

              2       5        3.16       700     1000      520     1800     2200   
                                         GEOM     BASIS   MCVARS    GRID      UKS  

 PROGRAMS   *        TOTAL       UKS       INT
 CPU TIMES  *        20.45     19.27      1.03
 REAL TIME  *        21.04 SEC
 DISK USED  *       105.25 MB      
 **********************************************************************************************************************************


 PROGRAM * Intrinsic Basis Bonding Analysis (IBBA)          Author: G. Knizia

 Molecular orbitals read from record     2200.2  Type=UKS/ALPHA (state 1.1)
 Fock matrix read from record            2200.2  Type=UKS/TOTAL (state 1.1)
 Orbital energies read from record       2200.2  Type=UKS/ALPHA (state 1.1)
 Density matrix read from record         2200.2  Type=UKS/CHARGE (state 1.1)

 Number of core orbitals:           3 (   3 )
 Number of closed-shell orbitals:   9 (   9 )
 Number of active  orbitals:        1 (   1 )

 Basis set MINAO-AUTO-PP generated.      Number of basis functions:   22 

 Polarized AO type:                A = (O Ot + (1-O)(1-Ot)) P12
 Orthogonalization method:         Symmetric (Loewdin)
 Localization functional:          L = sum[A,i] <i|n_A|i>^4 -> max

 Localization group 1:  12 orbitals, occupancy  2.000
 Iterative localization: IB/PM,    7 iter; Final gradient 0.43E-08

 Bond order analysis:       [THRPRINT= 0.020]

   CEN ATOM   CEN ATOM     WIBERG.BO      RENORM.BO
     1   H  -   2   C       0.947908       0.974386

     2   C  -   4   C       1.170624       1.482821
     2   C  -   3   C       1.170624       1.482821
     2   C  -   1   H       0.947908       0.974386
     2   C  -  10   H       0.068931       0.276138
     2   C  -   9   H       0.068931       0.276138
     2   C  -   7   H       0.021414       0.078281
     2   C  -   8   H       0.021414       0.078281

     3   C  -   2   C       1.170624       1.482821
     3   C  -   5   H       0.952607       0.990464
     3   C  -   7   H       0.934549       0.989914
     3   C  -   9   H       0.865434       0.996691

     4   C  -   2   C       1.170624       1.482821
     4   C  -   6   H       0.952607       0.990464
     4   C  -   8   H       0.934549       0.989914
     4   C  -  10   H       0.865434       0.996691

     5   H  -   3   C       0.952607       0.990464

     6   H  -   4   C       0.952607       0.990464

     7   H  -   3   C       0.934549       0.989914
     7   H  -   2   C       0.021414       0.078281

     8   H  -   4   C       0.934549       0.989914
     8   H  -   2   C       0.021414       0.078281

     9   H  -   3   C       0.865434       0.996691
     9   H  -   2   C       0.068931       0.276138

    10   H  -   4   C       0.865434       0.996691
    10   H  -   2   C       0.068931       0.276138


 Valency analysis:

   CEN ATOM   TOT.VALENCE
     1   H       0.973731
     2   C       3.487469
     3   C       3.947735
     4   C       3.947735
     5   H       0.979328
     6   H       0.979328
     7   H       0.976872
     8   H       0.976872
     9   H       0.960870
    10   H       0.960870
 Localization group 2:   1 orbitals, occupancy  1.000
 Iterative localization: IB/PM,    1 iter; Final gradient 0.00E+00

 Bond order analysis:       [THRPRINT= 0.020]

   CEN ATOM   CEN ATOM     WIBERG.BO      RENORM.BO

     2   C  -  10   H       0.097486       0.500000
     2   C  -   9   H       0.097486       0.500000
     2   C  -   7   H       0.029793       0.500000
     2   C  -   8   H       0.029793       0.500000
     2   C  -   4   C       0.022039       0.500000
     2   C  -   3   C       0.022039       0.500000

     3   C  -   2   C       0.022039       0.500000

     4   C  -   2   C       0.022039       0.500000



     7   H  -   2   C       0.029793       0.500000

     8   H  -   2   C       0.029793       0.500000

     9   H  -   2   C       0.097486       0.500000

    10   H  -   2   C       0.097486       0.500000


 Valency analysis:

   CEN ATOM   TOT.VALENCE
     1   H       0.002266
     2   C       0.320374
     3   C       0.027180
     4   C       0.027180
     5   H       0.012380
     6   H       0.012380
     7   H       0.036562
     8   H       0.036562
     9   H       0.114474
    10   H       0.114474

 Total charge composition:

   CEN ATOM         s          p       ELECTRONS ->P.CHARGE
     1   H       0.83906                 0.83906    0.16094
     2   C       3.01582    3.32239      6.33820   -0.33820
     3   C       2.97718    3.34205      6.31923   -0.31923
     4   C       2.97718    3.34205      6.31923   -0.31923
     5   H       0.86245                 0.86245    0.13755
     6   H       0.86245                 0.86245    0.13755
     7   H       0.86655                 0.86655    0.13345
     8   H       0.86655                 0.86655    0.13345
     9   H       0.86314                 0.86314    0.13686
    10   H       0.86314                 0.86314    0.13686

 Total charge composition, AO contributions:

   CEN ATOM SHL      SPHERICAL COMPONENTS
     1   H  1s       0.83906

     2   C  1s       1.99178
     2   C  2s       1.02404
     2   C  2p       1.15767    1.10488    1.05984

     3   C  1s       1.99023
     3   C  2s       0.98695
     3   C  2p       1.13966    1.12643    1.07597

     4   C  1s       1.99023
     4   C  2s       0.98695
     4   C  2p       1.13966    1.12643    1.07597

     5   H  1s       0.86245

     6   H  1s       0.86245

     7   H  1s       0.86655

     8   H  1s       0.86655

     9   H  1s       0.86314

    10   H  1s       0.86314

 Active orbital charges:

   CEN ATOM         s          p       ELECTRONS ->SPIN.DEN
     1   H       0.00113                 0.00113    0.00113
     2   C       0.00577    0.79392      0.79969    0.79969
     3   C       0.00015    0.01363      0.01378    0.01378
     4   C       0.00015    0.01363      0.01378    0.01378
     5   H       0.00623                 0.00623    0.00623
     6   H       0.00623                 0.00623    0.00623
     7   H       0.01863                 0.01863    0.01863
     8   H       0.01863                 0.01863    0.01863
     9   H       0.06095                 0.06095    0.06095
    10   H       0.06095                 0.06095    0.06095

 Active orbital charges, AO contributions:

   CEN ATOM SHL      SPHERICAL COMPONENTS
     1   H  1s       0.00113

     2   C  1s       0.00002
     2   C  2s       0.00575
     2   C  2p       0.03264    0.76128    0.00000

     3   C  1s       0.00000
     3   C  2s       0.00015
     3   C  2p       0.00008    0.01329    0.00025

     4   C  1s       0.00000
     4   C  2s       0.00015
     4   C  2p       0.00008    0.01329    0.00025

     5   H  1s       0.00623

     6   H  1s       0.00623

     7   H  1s       0.01863

     8   H  1s       0.01863

     9   H  1s       0.06095

    10   H  1s       0.06095

 Summary of localized orbital composition:   [THRPRINT= 0.020]

   ORB  GRP  ORB.ENERGY      CENTERS/CHARGES
     1   1   -10.868186      C  2   2.000
     2   1   -10.851639      C  4   2.000
     3   1   -10.851639      C  3   2.000
     4   1    -0.764061      C  2   1.027   C  3   0.964
     5   1    -0.764061      C  2   1.027   C  4   0.964
     6   1    -0.679505      C  2   1.162   H  1   0.827
     7   1    -0.658480      C  3   1.088   H  9   0.795   C  2   0.110
     8   1    -0.658480      C  4   1.088   H 10   0.795   C  2   0.110
     9   1    -0.657371      C  3   1.129   H  5   0.850   (other: 0.021)
    10   1    -0.657371      C  4   1.129   H  6   0.850   (other: 0.021)
    11   1    -0.656922      C  4   1.117   H  8   0.842   C  2   0.035
    12   1    -0.656922      C  3   1.117   H  7   0.842   C  2   0.035
    13   2    -0.111133      C  2   0.800   H 10   0.061   H  9   0.061   (other: 0.078)

 Localized orbitals saved to record      2200.2  (orbital set 4)


 **********************************************************************************************************************************
 DATASETS  * FILE   NREC   LENGTH (MB)   RECORD NAMES
              1      20       48.47       500      610      700      900      950      970     1000      129      960     1100   
                                          VAR    BASINP    GEOM    SYMINP    ZMAT    AOBASIS   BASIS     P2S    ABASIS      S 
                                         1400     1410     1200     1210     1080     1600     1650     1300     1700     1800   
                                           T        V       H0       H01     AOSYM     SMH    MOLCAS    ERIS     OPER     GRID   

              2       5        3.21       700     1000      520     1800     2200   
                                         GEOM     BASIS   MCVARS    GRID      UKS  

 PROGRAMS   *        TOTAL      IBBA       UKS       INT
 CPU TIMES  *        20.47      0.02     19.27      1.03
 REAL TIME  *        21.13 SEC
 DISK USED  *       105.25 MB      
 **********************************************************************************************************************************
 Molecular orbitals read from record     2200.2  Type=UKS/LOCAL(IBO)  
 Occupation numbers read from record     2200.2  Type=UKS/LOCAL(IBO)  
 Orbital energies read from record       2200.2  Type=UKS/LOCAL(IBO)  
 Redundancy group numbers read from rec  2200.2  Type=UKS/BETA (state 1.1)

 IBBA/SVP energy=      0.000000000000

        UKS-SCF 
   -118.32054163
 **********************************************************************************************************************************
 Molpro calculation terminated
