
 Primary working directories    : /tmp/sb13343
 Secondary working directories  : /tmp/sb13343
 Wavefunction directory         : /panfs/panasas01/chem/sb13343/wfu/
 Main file repository           : /tmp/sb13343/

 SHA1      : b4a5b34a9e711420743f49e6833241d17c61fb3c
 NAME      : 2099.9.b4a5b34
 ARCHNAME  : linux/x86_64_openmp
 FC        : /cm/shared/languages/GCC-6.1/bin/gfortran
 BLASLIB   : -lblas
 id        : simonbennie

 Nodes     nprocs
 node32-043    1

 Using customized tuning parameters: mindgm=1; mindgv=20; mindgc=4; mindgr=1; noblas=0; minvec=7
 default implementation of scratch files=df  

 memory,500,m
 geomtyp=xyz
 nosym
 noorient
 geometry={
 H         -1.57413        0.33845        0.00000
 C         -0.49500        0.20144        0.00000
 C          0.18857       -0.05954       -1.30114
 C          0.18857       -0.05954        1.30114
 H         -0.33790        0.40751       -2.14134
 H         -0.33790        0.40751        2.14134
 H          1.22176        0.31596       -1.29638
 H          1.22176        0.31596        1.29638
 H          0.25678       -1.13976       -1.52896
 H          0.25678       -1.13976        1.52896
 }
 basis={ default,sto-3g }
 {ks,LDA,direct;wf,25,1,1}
 {ibba,bonds=1}

 Variables initialized (895), CPU time= 0.00 sec
 Commands  initialized (725), CPU time= 0.02 sec, 591 directives.
 Default parameters read. Elapsed time= 0.16 sec

 Checking input...
 Passed
1


                                         ***  PROGRAM SYSTEM MOLPRO  ***
                                       Copyright, TTI GmbH Stuttgart, 2015
                                    Version 2099.9 linked May 26 2017 16:03:21


 **********************************************************************************************************************************
 LABEL *                                                                                 
  64 bit serial version                                                                  DATE: 08-Jun-17          TIME: 15:06:26  
 **********************************************************************************************************************************

 SHA1:             b4a5b34a9e711420743f49e6833241d17c61fb3c
 **********************************************************************************************************************************
 SETTING GEOMTYP        =    XYZ

 Variable memory set to  500000000 words,  buffer space 

 ZSYMEL=NOSYM

 SETTING BASIS          =    STO-3G


 Recomputing integrals since basis changed


 Using spherical harmonics

 Library entry H      S STO-3G               selected for orbital group  1
 Library entry C      S STO-3G               selected for orbital group  2
 Library entry C      P STO-3G               selected for orbital group  2


 PROGRAM * SEWARD (Integral evaluation for generally contracted gaussian basis sets)     Author: Roland Lindh, 1990

 Geometry written to block  1 of record 700


 Point group  C1  



 ATOMIC COORDINATES

 NR  ATOM    CHARGE       X              Y              Z

   1  H       1.00   -2.974674584    0.639577807    0.000000000
   2  C       6.00   -0.935414432    0.380666431    0.000000000
   3  C       6.00    0.356345655   -0.112514293   -2.458798250
   4  C       6.00    0.356345655   -0.112514293    2.458798250
   5  H       1.00   -0.638538457    0.770082293   -4.046546140
   6  H       1.00   -0.638538457    0.770082293    4.046546140
   7  H       1.00    2.308791790    0.597077866   -2.449803153
   8  H       1.00    2.308791790    0.597077866    2.449803153
   9  H       1.00    0.485243874   -2.153834248   -2.889315655
  10  H       1.00    0.485243874   -2.153834248    2.889315655

 Bond lengths in Bohr (Angstrom)

 1-2  2.055630578  2-3  2.820914777  2-4  2.820914777  3-5  2.071162595  3-7  2.077413742
     ( 1.087792856)     ( 1.492763814)     ( 1.492763814)     ( 1.096012045)     ( 1.099320010)

  3- 9  2.090202656   4- 6  2.071162595   4- 8  2.077413742   4-10  2.090202656
       ( 1.106087612)       ( 1.096012045)       ( 1.099320010)       ( 1.106087612)

 Bond angles

  1-2-3  118.44375943   1-2-4  118.44375943   2-3-5  111.94558337   2-3-7  111.52358867

  2- 3- 9  112.24140213   2- 4- 6  111.94558337   2- 4- 8  111.52358867   2- 4-10  112.24140213

  3-2-4  121.29758064   5-3-7  108.01204745   5-3-9  106.73207413   6-4-8  108.01204745

  6- 4-10  106.73207413   7- 3- 9  106.05262855   8- 4-10  106.05262855

 NUCLEAR CHARGE:                   25
 NUMBER OF PRIMITIVE AOS:          66
 NUMBER OF SYMMETRY AOS:           66
 NUMBER OF CONTRACTIONS:           22   (  22A   )
 NUMBER OF CORE ORBITALS:           3   (   3A   )
 NUMBER OF VALENCE ORBITALS:       19   (  19A   )


 NUCLEAR REPULSION ENERGY   75.20704826


 Eigenvalues of metric

         1 0.213E+00 0.225E+00 0.288E+00 0.342E+00 0.359E+00 0.374E+00 0.380E+00 0.402E+00


 Contracted 2-electron integrals neglected if value below      1.0D-11
 AO integral compression algorithm  1   Integral accuracy      1.0D-11

     0.524 MB (compressed) written to integral file ( 89.6%)


 NUMBER OF SORTED TWO-ELECTRON INTEGRALS:      32131.     BUFFER LENGTH:  32768
 NUMBER OF SEGMENTS:   1  SEGMENT LENGTH:      32131      RECORD LENGTH: 524288

 Memory used in sort:       0.59 MW

 SORT1 READ       38209. AND WROTE       30689. INTEGRALS IN      1 RECORDS. CPU TIME:     0.00 SEC, REAL TIME:     0.01 SEC
 SORT2 READ       30689. AND WROTE       32131. INTEGRALS IN      2 RECORDS. CPU TIME:     0.01 SEC, REAL TIME:     0.01 SEC

 FILE SIZES:   FILE 1:    30.6 MBYTE,  FILE 4:     4.2 MBYTE,   TOTAL:     34.9 MBYTE

 OPERATOR DM      FOR CENTER  0  COORDINATES:    0.000000    0.000000    0.000000


 **********************************************************************************************************************************
 DATASETS  * FILE   NREC   LENGTH (MB)   RECORD NAMES
              1      19       30.27       500      610      700      900      950      970     1000      129      960     1100   
                                          VAR    BASINP    GEOM    SYMINP    ZMAT    AOBASIS   BASIS     P2S    ABASIS      S 
                                         1400     1410     1200     1210     1080     1600     1650     1300     1700   
                                           T        V       H0       H01     AOSYM     SMH    MOLCAS    ERIS     OPER   

 PROGRAMS   *        TOTAL       INT
 CPU TIMES  *         0.40      0.26
 REAL TIME  *         1.07 SEC
 DISK USED  *        35.29 MB      
 **********************************************************************************************************************************

 Density functional group LDA=DIRAC+VWN5
 Functional: DIRAC(Automatically generated (new) DIRAC)                        Gradient terms: 0
 Functional: VWN5(Automatically generated (new) VWN5)                          Gradient terms: 0
 Use grid at  1800.2

 Functional: DIRAC                     Factor:  1.0000
 Functional: VWN5                      Factor:  1.0000

 Generated new metagrid on record  1800.2 with target accuracy 1.0D-06 and 32470 points in CPU time    0.8
 Computed new grid on record 1800.1 in CPU time    0.8
   13340 words reserved for DFT integration

 PROGRAM * RKS-SCF (Restricted open shell Kohn-Sham)     Authors: W. Meyer, H.-J. Werner, P.J. Knowles, 1993

 NUMBER OF ELECTRONS:      13+   12-    SPACE SYMMETRY=1    SPIN SYMMETRY: Doublet 
 CONVERGENCE THRESHOLDS:    1.00E-05 (Density)    1.00E-06 (Energy)
 MAX. NUMBER OF ITERATIONS:       60
 INTERPOLATION TYPE:            DIIS
 INTERPOLATION STEPS:              2 (START)      1 (STEP)
 LEVEL SHIFTS:                 -0.60 (CLOSED) -0.30 (OPEN) 



 Use fine grid record 1800.2 for energy threshold  1.0D-06
 Orbital guess generated from atomic densities. Full valence occupancy:   13

 Molecular orbital dump at record        2100.2

 Initial alpha occupancy:  13
 Initial beta  occupancy:  12
 Wave function symmetry:    1

 ITERATION    DDIFF          GRAD             ENERGY        2-EL.EN.            DIPOLE MOMENTS         DIIS   ORB.
    1      0.000D+00      0.000D+00      -115.70510121    272.564772    0.25488   -0.35331    0.00000    0    start
    2      0.000D+00      0.319D-01      -115.88567306    263.577200    0.02725   -0.03609    0.00000    1    diag,B
    3      0.667D-01      0.520D-02      -115.89020909    264.692921    0.05547   -0.08840    0.00000    2    diag,B
    4      0.925D-02      0.494D-03      -115.89036458    264.685352    0.05622   -0.09204    0.00000    3    diag,B
    5      0.127D-02      0.158D-03      -115.89038605    264.684143    0.05469   -0.09090    0.00000    4    diag,B
    6      0.501D-03      0.405D-04      -115.89038723    264.683725    0.05444   -0.09067    0.00000    5    diag,B
    7      0.122D-03      0.939D-05      -115.89038729    264.683932    0.05438   -0.09054    0.00000    6    fixocc
    8      0.274D-04      0.140D-05      -115.89038729    264.683946    0.05440   -0.09056    0.00000    7    diag,B
    9      0.412D-05      0.202D-06      -115.89038729    264.683948    0.05440   -0.09056    0.00000    0    orth

 Final alpha occupancy:  13
 Final beta  occupancy:  12

 !RKS STATE 1.1 Energy               -115.890387286750
 Nuclear energy                        75.20704826
 One-electron energy                 -305.69287907
 Two-electron energy                  132.34197404
 Density functional                   -17.74653051     DIRAC=-16.20908755 VWN5= -1.53744296
 Virial quotient                       -1.00651187
 !RKS STATE 1.1 Dipole moment           0.05440238    -0.09055526     0.00000000
 Dipole moment /Debye                   0.13826801    -0.23015345     0.00000000

 Orbital energies:

         1.1          2.1          3.1          4.1          5.1          6.1          7.1          8.1          9.1         10.1
     -9.580767    -9.580755    -9.547095    -0.642430    -0.571048    -0.450307    -0.351610    -0.324235    -0.309690    -0.290012

        11.1         12.1         13.1         14.1         15.1
     -0.254400    -0.246385    -0.053219     0.345565     0.380187

 HOMO     13.1    -0.053219 =      -1.4482eV
 LUMO     14.1     0.345565 =       9.4033eV
 LUMO-HOMO         0.398784 =      10.8515eV


 **********************************************************************************************************************************
 DATASETS  * FILE   NREC   LENGTH (MB)   RECORD NAMES
              1      20       31.31       500      610      700      900      950      970     1000      129      960     1100   
                                          VAR    BASINP    GEOM    SYMINP    ZMAT    AOBASIS   BASIS     P2S    ABASIS      S 
                                         1400     1410     1200     1210     1080     1600     1650     1300     1700     1800   
                                           T        V       H0       H01     AOSYM     SMH    MOLCAS    ERIS     OPER     GRID   

              2       5        2.92       700     1000      520     1800     2100   
                                         GEOM     BASIS   MCVARS    GRID      RKS  

 PROGRAMS   *        TOTAL        KS       INT
 CPU TIMES  *         2.28      1.88      0.26
 REAL TIME  *         3.13 SEC
 DISK USED  *        35.29 MB      
 **********************************************************************************************************************************


 PROGRAM * Intrinsic Basis Bonding Analysis (IBBA)          Author: G. Knizia

 Molecular orbitals read from record     2100.2  Type=RKS/CANONICAL (state 1.1)
 Fock matrix read from record            2100.2  Type=RKS/TOTAL (state 1.1)
 Orbital energies read from record       2100.2  Type=RKS/CANONICAL (state 1.1)
 Density matrix read from record         2100.2  Type=RKS/CHARGE (state 1.1)

 Number of core orbitals:           3 (   3 )
 Number of closed-shell orbitals:   9 (   9 )
 Number of active  orbitals:        1 (   1 )

 Basis set MINAO-AUTO-PP generated.      Number of basis functions:   22 

 Polarized AO type:                A = (O Ot + (1-O)(1-Ot)) P12
 Orthogonalization method:         Symmetric (Loewdin)
 Localization functional:          L = sum[A,i] <i|n_A|i>^4 -> max

 Localization group 1:  12 orbitals, occupancy  2.000
 Iterative localization: IB/PM,    7 iter; Final gradient 0.61E-09

 Bond order analysis:       [THRPRINT= 0.020]

   CEN ATOM   CEN ATOM     WIBERG.BO      RENORM.BO
     1   H  -   2   C       0.957309       0.971588

     2   C  -   4   C       1.095182       1.496334
     2   C  -   3   C       1.095182       1.496334
     2   C  -   1   H       0.957309       0.971588
     2   C  -   9   H       0.038448       0.299035
     2   C  -  10   H       0.038448       0.299035

     3   C  -   2   C       1.095182       1.496334
     3   C  -   5   H       0.952018       0.989887
     3   C  -   7   H       0.943890       0.990318
     3   C  -   9   H       0.913208       0.998392

     4   C  -   2   C       1.095182       1.496334
     4   C  -   6   H       0.952018       0.989887
     4   C  -   8   H       0.943890       0.990318
     4   C  -  10   H       0.913208       0.998392

     5   H  -   3   C       0.952018       0.989887

     6   H  -   4   C       0.952018       0.989887

     7   H  -   3   C       0.943890       0.990318

     8   H  -   4   C       0.943890       0.990318

     9   H  -   3   C       0.913208       0.998392
     9   H  -   2   C       0.038448       0.299035

    10   H  -   4   C       0.913208       0.998392
    10   H  -   2   C       0.038448       0.299035


 Valency analysis:

   CEN ATOM   TOT.VALENCE
     1   H       0.983384
     2   C       3.263337
     3   C       3.920872
     4   C       3.920872
     5   H       0.975612
     6   H       0.975612
     7   H       0.974247
     8   H       0.974247
     9   H       0.964272
    10   H       0.964272
 Localization group 2:   1 orbitals, occupancy  1.000
 Iterative localization: IB/PM,    1 iter; Final gradient 0.00E+00

 Bond order analysis:       [THRPRINT= 0.020]

   CEN ATOM   CEN ATOM     WIBERG.BO      RENORM.BO

     2   C  -   9   H       0.075484       0.500000
     2   C  -  10   H       0.075484       0.500000
     2   C  -   7   H       0.024706       0.500000
     2   C  -   8   H       0.024706       0.500000





     7   H  -   2   C       0.024706       0.500000

     8   H  -   2   C       0.024706       0.500000

     9   H  -   2   C       0.075484       0.500000

    10   H  -   2   C       0.075484       0.500000


 Valency analysis:

   CEN ATOM   TOT.VALENCE
     1   H       0.000581
     2   C       0.234021
     3   C       0.008234
     4   C       0.008234
     5   H       0.010835
     6   H       0.010835
     7   H       0.028164
     8   H       0.028164
     9   H       0.083487
    10   H       0.083487

 Total charge composition:

   CEN ATOM         s          p       ELECTRONS ->P.CHARGE
     1   H       0.87139                 0.87139    0.12861
     2   C       2.99782    3.12218      6.11999   -0.11999
     3   C       2.98924    3.45735      6.44659   -0.44659
     4   C       2.98924    3.45735      6.44659   -0.44659
     5   H       0.84928                 0.84928    0.15072
     6   H       0.84928                 0.84928    0.15072
     7   H       0.85381                 0.85381    0.14619
     8   H       0.85381                 0.85381    0.14619
     9   H       0.85463                 0.85463    0.14537
    10   H       0.85463                 0.85463    0.14537

 Total charge composition, AO contributions:

   CEN ATOM SHL      SPHERICAL COMPONENTS
     1   H  1s       0.87139

     2   C  1s       1.99387
     2   C  2s       1.00395
     2   C  2p       1.10557    1.01473    1.00188

     3   C  1s       1.99261
     3   C  2s       0.99663
     3   C  2p       1.16733    1.17522    1.11480

     4   C  1s       1.99261
     4   C  2s       0.99663
     4   C  2p       1.16733    1.17522    1.11480

     5   H  1s       0.84928

     6   H  1s       0.84928

     7   H  1s       0.85381

     8   H  1s       0.85381

     9   H  1s       0.85463

    10   H  1s       0.85463

 Active orbital charges:

   CEN ATOM         s          p       ELECTRONS ->SPIN.DEN
     1   H       0.00029                 0.00029    0.00029
     2   C       0.00868    0.85600      0.86468    0.86468
     3   C       0.00007    0.00407      0.00413    0.00413
     4   C       0.00007    0.00407      0.00413    0.00413
     5   H       0.00545                 0.00545    0.00545
     6   H       0.00545                 0.00545    0.00545
     7   H       0.01429                 0.01429    0.01429
     8   H       0.01429                 0.01429    0.01429
     9   H       0.04365                 0.04365    0.04365
    10   H       0.04365                 0.04365    0.04365

 Active orbital charges, AO contributions:

   CEN ATOM SHL      SPHERICAL COMPONENTS
     1   H  1s       0.00029

     2   C  1s       0.00000
     2   C  2s       0.00868
     2   C  2p       0.03595    0.82005    0.00000

     3   C  1s       0.00000
     3   C  2s       0.00007
     3   C  2p       0.00002    0.00394    0.00010

     4   C  1s       0.00000
     4   C  2s       0.00007
     4   C  2p       0.00002    0.00394    0.00010

     5   H  1s       0.00545

     6   H  1s       0.00545

     7   H  1s       0.01429

     8   H  1s       0.01429

     9   H  1s       0.04365

    10   H  1s       0.04365

 Summary of localized orbital composition:   [THRPRINT= 0.020]

   ORB  GRP  ORB.ENERGY      CENTERS/CHARGES
     1   1    -9.471846      C  4   2.000
     2   1    -9.471846      C  3   2.000
     3   1    -9.450800      C  2   2.000
     4   1    -0.477441      C  3   1.012   C  2   0.979
     5   1    -0.477441      C  4   1.012   C  2   0.979
     6   1    -0.410412      C  2   1.127   H  1   0.862
     7   1    -0.400352      C  3   1.137   H  9   0.806   C  2   0.054
     8   1    -0.400352      C  4   1.137   H 10   0.806   C  2   0.054
     9   1    -0.397770      C  3   1.147   H  5   0.837
    10   1    -0.397770      C  4   1.147   H  6   0.837
    11   1    -0.396351      C  3   1.142   H  7   0.833   (other: 0.025)
    12   1    -0.396351      C  4   1.142   H  8   0.833   (other: 0.025)
    13   2    -0.013432      C  2   0.865   H  9   0.044   H 10   0.044   (other: 0.048)

 Localized orbitals saved to record      2100.2  (orbital set 2)


 **********************************************************************************************************************************
 DATASETS  * FILE   NREC   LENGTH (MB)   RECORD NAMES
              1      20       31.31       500      610      700      900      950      970     1000      129      960     1100   
                                          VAR    BASINP    GEOM    SYMINP    ZMAT    AOBASIS   BASIS     P2S    ABASIS      S 
                                         1400     1410     1200     1210     1080     1600     1650     1300     1700     1800   
                                           T        V       H0       H01     AOSYM     SMH    MOLCAS    ERIS     OPER     GRID   

              2       5        2.92       700     1000      520     1800     2100   
                                         GEOM     BASIS   MCVARS    GRID      RKS  

 PROGRAMS   *        TOTAL      IBBA        KS       INT
 CPU TIMES  *         2.30      0.02      1.88      0.26
 REAL TIME  *         3.21 SEC
 DISK USED  *        35.29 MB      
 **********************************************************************************************************************************
 Molecular orbitals read from record     2100.2  Type=RKS/LOCAL(IBO)  
 Occupation numbers read from record     2100.2  Type=RKS/LOCAL(IBO)  
 Orbital energies read from record       2100.2  Type=RKS/LOCAL(IBO)  
 Redundancy group numbers read from rec  2100.2  Type=RKS/LOCAL(IBO)  

 IBBA/STO-3G energy=      0.000000000000

        KS-SCF  
   -115.89038729
 **********************************************************************************************************************************
 Molpro calculation terminated
