
 Primary working directories    : /tmp/sb13343
 Secondary working directories  : /tmp/sb13343
 Wavefunction directory         : /panfs/panasas01/chem/sb13343/wfu/
 Main file repository           : /tmp/sb13343/

 SHA1      : b4a5b34a9e711420743f49e6833241d17c61fb3c
 NAME      : 2099.9.b4a5b34
 ARCHNAME  : linux/x86_64_openmp
 FC        : /cm/shared/languages/GCC-6.1/bin/gfortran
 BLASLIB   : -lblas
 id        : simonbennie

 Nodes     nprocs
 node32-018    1

 Using customized tuning parameters: mindgm=1; mindgv=20; mindgc=4; mindgr=1; noblas=0; minvec=7
 default implementation of scratch files=df  

 memory,500,m
 geomtyp=xyz
 nosym
 noorient
 geometry={
 H         -1.57413        0.33845        0.00000
 C         -0.49500        0.20144        0.00000
 C          0.18857       -0.05954       -1.30114
 C          0.18857       -0.05954        1.30114
 H         -0.33790        0.40751       -2.14134
 H         -0.33790        0.40751        2.14134
 H          1.22176        0.31596       -1.29638
 H          1.22176        0.31596        1.29638
 H          0.25678       -1.13976       -1.52896
 H          0.25678       -1.13976        1.52896
 }
 basis={ default,sto-3g }
 {uks,PBE,direct;wf,25,1,1}
 {ibba,bonds=1}

 Variables initialized (895), CPU time= 0.01 sec
 Commands  initialized (725), CPU time= 0.01 sec, 591 directives.
 Default parameters read. Elapsed time= 0.08 sec

 Checking input...
 Passed
1


                                         ***  PROGRAM SYSTEM MOLPRO  ***
                                       Copyright, TTI GmbH Stuttgart, 2015
                                    Version 2099.9 linked May 26 2017 16:03:21


 **********************************************************************************************************************************
 LABEL *                                                                                 
  64 bit serial version                                                                  DATE: 08-Jun-17          TIME: 15:10:09  
 **********************************************************************************************************************************

 SHA1:             b4a5b34a9e711420743f49e6833241d17c61fb3c
 **********************************************************************************************************************************
 SETTING GEOMTYP        =    XYZ

 Variable memory set to  500000000 words,  buffer space 

 ZSYMEL=NOSYM

 SETTING BASIS          =    STO-3G


 Recomputing integrals since basis changed


 Using spherical harmonics

 Library entry H      S STO-3G               selected for orbital group  1
 Library entry C      S STO-3G               selected for orbital group  2
 Library entry C      P STO-3G               selected for orbital group  2


 PROGRAM * SEWARD (Integral evaluation for generally contracted gaussian basis sets)     Author: Roland Lindh, 1990

 Geometry written to block  1 of record 700


 Point group  C1  



 ATOMIC COORDINATES

 NR  ATOM    CHARGE       X              Y              Z

   1  H       1.00   -2.974674584    0.639577807    0.000000000
   2  C       6.00   -0.935414432    0.380666431    0.000000000
   3  C       6.00    0.356345655   -0.112514293   -2.458798250
   4  C       6.00    0.356345655   -0.112514293    2.458798250
   5  H       1.00   -0.638538457    0.770082293   -4.046546140
   6  H       1.00   -0.638538457    0.770082293    4.046546140
   7  H       1.00    2.308791790    0.597077866   -2.449803153
   8  H       1.00    2.308791790    0.597077866    2.449803153
   9  H       1.00    0.485243874   -2.153834248   -2.889315655
  10  H       1.00    0.485243874   -2.153834248    2.889315655

 Bond lengths in Bohr (Angstrom)

 1-2  2.055630578  2-3  2.820914777  2-4  2.820914777  3-5  2.071162595  3-7  2.077413742
     ( 1.087792856)     ( 1.492763814)     ( 1.492763814)     ( 1.096012045)     ( 1.099320010)

  3- 9  2.090202656   4- 6  2.071162595   4- 8  2.077413742   4-10  2.090202656
       ( 1.106087612)       ( 1.096012045)       ( 1.099320010)       ( 1.106087612)

 Bond angles

  1-2-3  118.44375943   1-2-4  118.44375943   2-3-5  111.94558337   2-3-7  111.52358867

  2- 3- 9  112.24140213   2- 4- 6  111.94558337   2- 4- 8  111.52358867   2- 4-10  112.24140213

  3-2-4  121.29758064   5-3-7  108.01204745   5-3-9  106.73207413   6-4-8  108.01204745

  6- 4-10  106.73207413   7- 3- 9  106.05262855   8- 4-10  106.05262855

 NUCLEAR CHARGE:                   25
 NUMBER OF PRIMITIVE AOS:          66
 NUMBER OF SYMMETRY AOS:           66
 NUMBER OF CONTRACTIONS:           22   (  22A   )
 NUMBER OF CORE ORBITALS:           3   (   3A   )
 NUMBER OF VALENCE ORBITALS:       19   (  19A   )


 NUCLEAR REPULSION ENERGY   75.20704826


 Eigenvalues of metric

         1 0.213E+00 0.225E+00 0.288E+00 0.342E+00 0.359E+00 0.374E+00 0.380E+00 0.402E+00


 Contracted 2-electron integrals neglected if value below      1.0D-11
 AO integral compression algorithm  1   Integral accuracy      1.0D-11

     0.524 MB (compressed) written to integral file ( 89.6%)


 NUMBER OF SORTED TWO-ELECTRON INTEGRALS:      32131.     BUFFER LENGTH:  32768
 NUMBER OF SEGMENTS:   1  SEGMENT LENGTH:      32131      RECORD LENGTH: 524288

 Memory used in sort:       0.59 MW

 SORT1 READ       38209. AND WROTE       30689. INTEGRALS IN      1 RECORDS. CPU TIME:     0.00 SEC, REAL TIME:     0.01 SEC
 SORT2 READ       30689. AND WROTE       32131. INTEGRALS IN      2 RECORDS. CPU TIME:     0.01 SEC, REAL TIME:     0.01 SEC

 FILE SIZES:   FILE 1:    30.6 MBYTE,  FILE 4:     4.2 MBYTE,   TOTAL:     34.9 MBYTE

 OPERATOR DM      FOR CENTER  0  COORDINATES:    0.000000    0.000000    0.000000


 **********************************************************************************************************************************
 DATASETS  * FILE   NREC   LENGTH (MB)   RECORD NAMES
              1      19       30.27       500      610      700      900      950      970     1000      129      960     1100   
                                          VAR    BASINP    GEOM    SYMINP    ZMAT    AOBASIS   BASIS     P2S    ABASIS      S 
                                         1400     1410     1200     1210     1080     1600     1650     1300     1700   
                                           T        V       H0       H01     AOSYM     SMH    MOLCAS    ERIS     OPER   

 PROGRAMS   *        TOTAL       INT
 CPU TIMES  *         0.36      0.23
 REAL TIME  *         0.66 SEC
 DISK USED  *        35.29 MB      
 **********************************************************************************************************************************

 Density functional group PBE=PBEX+PBEC
 Functional: PBEX(Automatically generated (new) PBEX)                          Gradient terms: 1
 Functional: PBEC(Automatically generated (new) PBEC)                          Gradient terms: 1
 Use grid at  1800.2

 Functional: PBEX                      Factor:  1.0000
 Functional: PBEC                      Factor:  1.0000

 Generated new metagrid on record  1800.2 with target accuracy 1.0D-06 and 32470 points in CPU time    0.7
 Computed new grid on record 1800.1 in CPU time    0.8
   21722 words reserved for DFT integration

 PROGRAM * UKS-SCF (Unrestricted Kohn-Sham)     Authors: W. Meyer, H.-J. Werner, P.J. Knowles, 1993

 NUMBER OF ELECTRONS:      13+   12-    SPACE SYMMETRY=1    SPIN SYMMETRY: Doublet 
 CONVERGENCE THRESHOLDS:    1.00E-05 (Density)    1.00E-06 (Energy)
 MAX. NUMBER OF ITERATIONS:       60
 INTERPOLATION TYPE:            DIIS
 INTERPOLATION STEPS:              2 (START)      1 (STEP)
 LEVEL SHIFTS:                 -0.20 (ALPHA)  -0.20 (BETA) 



 Use fine grid record 1800.2 for energy threshold  1.0D-06
 Orbital guess generated from atomic densities. Full valence occupancy:   13

 Molecular orbital dump at record        2200.2

 Initial alpha occupation  13
 Initial beta  occupation  12

 ITERATION    DDIFF          GRAD             ENERGY        2-EL.EN.            DIPOLE MOMENTS         DIIS
    1      0.000D+00      0.000D+00      -116.70811822    271.705243    0.22629   -0.33020    0.00000    0
    2      0.660D-01      0.219D-01      -116.86664266    262.927912    0.06600   -0.07664    0.00000    1
    3      0.116D-01      0.487D-02      -116.87403677    264.316047    0.05406   -0.08508    0.00000    2
    4      0.167D-02      0.864D-03      -116.87456909    264.292502    0.04648   -0.08005    0.00000    3
    5      0.994D-03      0.543D-03      -116.87475668    264.294091    0.03962   -0.07378    0.00000    4
    6      0.330D-03      0.116D-03      -116.87476884    264.291196    0.03869   -0.07279    0.00000    5
    7      0.396D-04      0.137D-04      -116.87476901    264.290967    0.03874   -0.07276    0.00000    6
    8      0.647D-05      0.293D-05      -116.87476902    264.291003    0.03871   -0.07275    0.00000    5
    9      0.110D-05      0.613D-06      -116.87476902    264.290953    0.03872   -0.07275    0.00000    6

 Final alpha occupancy:  13
 Final beta  occupancy:  12

 !UKS STATE 1.1 Energy               -116.874769019646
 Nuclear energy                        75.20704826
 One-electron energy                 -305.49422379
 Two-electron energy                  132.14547643
 Density functional                   -18.73306992     PBEX=-17.92700017 PBEC= -0.80606974
 Virial quotient                       -1.01409381
 !UKS STATE 1.1 Dipole moment           0.03871504    -0.07275220     0.00000000
 Dipole moment /Debye                   0.09839736    -0.18490553     0.00000000

 Orbital energies for positive spin:

         1.1          2.1          3.1          4.1          5.1          6.1          7.1          8.1          9.1         10.1
     -9.707810    -9.707805    -9.679661    -0.661716    -0.582902    -0.469919    -0.360742    -0.337460    -0.319004    -0.299502

        11.1         12.1         13.1         14.1         15.1
     -0.264432    -0.258232    -0.068154     0.339090     0.370090

 Orbital energies for negative spin:

         1.1          2.1          3.1          4.1          5.1          6.1          7.1          8.1          9.1         10.1
     -9.708719    -9.708714    -9.665384    -0.645882    -0.581170    -0.450193    -0.355578    -0.325232    -0.314448    -0.296078

        11.1         12.1         13.1         14.1         15.1
     -0.259238    -0.252876     0.039710     0.343060     0.393469

 HOMO     13.1    -0.068154 =      -1.8546eV
 LUMO    -13.1     0.039710 =       1.0806eV
 LUMO-HOMO         0.107864 =       2.9351eV

 EXPECTATION VALUE OF S**2:             0.75339305

 Occupation number threshold for canonical orbitals:  1.999000 (occupied),  0.001000 (virtual)

 Number of pseudo-canonical orbitals per symmetry:   12
 Number of active natural orbitals per symmetry:      1

 Natural orbitals saved to record    2200.2 (Orbital set 3)

 Orbital spaces for UNO-CAS (Min. occupation: 0.020  Max. occupation: 1.980):

 Closed:       12
 Active:        1


 **********************************************************************************************************************************
 DATASETS  * FILE   NREC   LENGTH (MB)   RECORD NAMES
              1      20       31.31       500      610      700      900      950      970     1000      129      960     1100   
                                          VAR    BASINP    GEOM    SYMINP    ZMAT    AOBASIS   BASIS     P2S    ABASIS      S 
                                         1400     1410     1200     1210     1080     1600     1650     1300     1700     1800   
                                           T        V       H0       H01     AOSYM     SMH    MOLCAS    ERIS     OPER     GRID   

              2       5        2.93       700     1000      520     1800     2200   
                                         GEOM     BASIS   MCVARS    GRID      UKS  

 PROGRAMS   *        TOTAL       UKS       INT
 CPU TIMES  *         2.54      2.17      0.23
 REAL TIME  *         2.93 SEC
 DISK USED  *        35.29 MB      
 **********************************************************************************************************************************


 PROGRAM * Intrinsic Basis Bonding Analysis (IBBA)          Author: G. Knizia

 Molecular orbitals read from record     2200.2  Type=UKS/ALPHA (state 1.1)
 Fock matrix read from record            2200.2  Type=UKS/TOTAL (state 1.1)
 Orbital energies read from record       2200.2  Type=UKS/ALPHA (state 1.1)
 Density matrix read from record         2200.2  Type=UKS/CHARGE (state 1.1)

 Number of core orbitals:           3 (   3 )
 Number of closed-shell orbitals:   9 (   9 )
 Number of active  orbitals:        1 (   1 )

 Basis set MINAO-AUTO-PP generated.      Number of basis functions:   22 

 Polarized AO type:                A = (O Ot + (1-O)(1-Ot)) P12
 Orthogonalization method:         Symmetric (Loewdin)
 Localization functional:          L = sum[A,i] <i|n_A|i>^4 -> max

 Localization group 1:  12 orbitals, occupancy  2.000
 Iterative localization: IB/PM,    7 iter; Final gradient 0.13E-08

 Bond order analysis:       [THRPRINT= 0.020]

   CEN ATOM   CEN ATOM     WIBERG.BO      RENORM.BO
     1   H  -   2   C       0.951807       0.970983

     2   C  -   3   C       1.143136       1.490513
     2   C  -   4   C       1.143136       1.490513
     2   C  -   1   H       0.951807       0.970983
     2   C  -   9   H       0.056771       0.283828
     2   C  -  10   H       0.056771       0.283828

     3   C  -   2   C       1.143136       1.490513
     3   C  -   5   H       0.953318       0.989477
     3   C  -   7   H       0.939515       0.989919
     3   C  -   9   H       0.887464       0.997328

     4   C  -   2   C       1.143136       1.490513
     4   C  -   6   H       0.953318       0.989477
     4   C  -   8   H       0.939515       0.989919
     4   C  -  10   H       0.887464       0.997328

     5   H  -   3   C       0.953318       0.989477

     6   H  -   4   C       0.953318       0.989477

     7   H  -   3   C       0.939515       0.989919

     8   H  -   4   C       0.939515       0.989919

     9   H  -   3   C       0.887464       0.997328
     9   H  -   2   C       0.056771       0.283828

    10   H  -   4   C       0.887464       0.997328
    10   H  -   2   C       0.056771       0.283828


 Valency analysis:

   CEN ATOM   TOT.VALENCE
     1   H       0.977672
     2   C       3.404278
     3   C       3.943140
     4   C       3.943140
     5   H       0.979011
     6   H       0.979011
     7   H       0.976961
     8   H       0.976961
     9   H       0.963828
    10   H       0.963828
 Localization group 2:   1 orbitals, occupancy  1.000
 Iterative localization: IB/PM,    1 iter; Final gradient 0.00E+00

 Bond order analysis:       [THRPRINT= 0.020]

   CEN ATOM   CEN ATOM     WIBERG.BO      RENORM.BO

     2   C  -   9   H       0.090165       0.500000
     2   C  -  10   H       0.090165       0.500000
     2   C  -   7   H       0.029126       0.500000
     2   C  -   8   H       0.029126       0.500000





     7   H  -   2   C       0.029126       0.500000

     8   H  -   2   C       0.029126       0.500000

     9   H  -   2   C       0.090165       0.500000

    10   H  -   2   C       0.090165       0.500000


 Valency analysis:

   CEN ATOM   TOT.VALENCE
     1   H       0.001217
     2   C       0.296265
     3   C       0.020840
     4   C       0.020840
     5   H       0.013446
     6   H       0.013446
     7   H       0.034923
     8   H       0.034923
     9   H       0.104012
    10   H       0.104012

 Total charge composition:

   CEN ATOM         s          p       ELECTRONS ->P.CHARGE
     1   H       0.85118                 0.85118    0.14882
     2   C       3.04477    3.20033      6.24510   -0.24510
     3   C       2.98635    3.37278      6.35913   -0.35913
     4   C       2.98635    3.37278      6.35913   -0.35913
     5   H       0.86189                 0.86189    0.13811
     6   H       0.86189                 0.86189    0.13811
     7   H       0.86599                 0.86599    0.13401
     8   H       0.86599                 0.86599    0.13401
     9   H       0.86484                 0.86484    0.13516
    10   H       0.86484                 0.86484    0.13516

 Total charge composition, AO contributions:

   CEN ATOM SHL      SPHERICAL COMPONENTS
     1   H  1s       0.85118

     2   C  1s       1.99312
     2   C  2s       1.05164
     2   C  2p       1.12039    1.05849    1.02145

     3   C  1s       1.99193
     3   C  2s       0.99442
     3   C  2p       1.14482    1.14245    1.08552

     4   C  1s       1.99193
     4   C  2s       0.99442
     4   C  2p       1.14482    1.14245    1.08552

     5   H  1s       0.86189

     6   H  1s       0.86189

     7   H  1s       0.86599

     8   H  1s       0.86599

     9   H  1s       0.86484

    10   H  1s       0.86484

 Active orbital charges:

   CEN ATOM         s          p       ELECTRONS ->SPIN.DEN
     1   H       0.00061                 0.00061    0.00061
     2   C       0.00638    0.81279      0.81917    0.81917
     3   C       0.00010    0.01043      0.01053    0.01053
     4   C       0.00010    0.01043      0.01053    0.01053
     5   H       0.00677                 0.00677    0.00677
     6   H       0.00677                 0.00677    0.00677
     7   H       0.01778                 0.01778    0.01778
     8   H       0.01778                 0.01778    0.01778
     9   H       0.05503                 0.05503    0.05503
    10   H       0.05503                 0.05503    0.05503

 Active orbital charges, AO contributions:

   CEN ATOM SHL      SPHERICAL COMPONENTS
     1   H  1s       0.00061

     2   C  1s       0.00001
     2   C  2s       0.00637
     2   C  2p       0.03431    0.77848    0.00000

     3   C  1s       0.00000
     3   C  2s       0.00010
     3   C  2p       0.00011    0.01012    0.00020

     4   C  1s       0.00000
     4   C  2s       0.00010
     4   C  2p       0.00011    0.01012    0.00020

     5   H  1s       0.00677

     6   H  1s       0.00677

     7   H  1s       0.01778

     8   H  1s       0.01778

     9   H  1s       0.05503

    10   H  1s       0.05503

 Summary of localized orbital composition:   [THRPRINT= 0.020]

   ORB  GRP  ORB.ENERGY      CENTERS/CHARGES
     1   1    -9.598268      C  4   2.000
     2   1    -9.598268      C  3   2.000
     3   1    -9.571304      C  2   2.000
     4   1    -0.484974      C  2   1.010   C  3   0.982
     5   1    -0.484974      C  2   1.010   C  4   0.982
     6   1    -0.423486      C  2   1.148   H  1   0.841
     7   1    -0.409613      C  4   1.105   H 10   0.804   C  2   0.086
     8   1    -0.409613      C  3   1.105   H  9   0.804   C  2   0.086
     9   1    -0.406499      C  4   1.131   H  6   0.849
    10   1    -0.406499      C  3   1.131   H  5   0.849
    11   1    -0.404853      C  3   1.123   H  7   0.842   C  2   0.029
    12   1    -0.404853      C  4   1.123   H  8   0.842   C  2   0.029
    13   2    -0.015106      C  2   0.819   H  9   0.055   H 10   0.055   (other: 0.071)

 Localized orbitals saved to record      2200.2  (orbital set 4)


 **********************************************************************************************************************************
 DATASETS  * FILE   NREC   LENGTH (MB)   RECORD NAMES
              1      20       31.31       500      610      700      900      950      970     1000      129      960     1100   
                                          VAR    BASINP    GEOM    SYMINP    ZMAT    AOBASIS   BASIS     P2S    ABASIS      S 
                                         1400     1410     1200     1210     1080     1600     1650     1300     1700     1800   
                                           T        V       H0       H01     AOSYM     SMH    MOLCAS    ERIS     OPER     GRID   

              2       5        2.94       700     1000      520     1800     2200   
                                         GEOM     BASIS   MCVARS    GRID      UKS  

 PROGRAMS   *        TOTAL      IBBA       UKS       INT
 CPU TIMES  *         2.57      0.04      2.17      0.23
 REAL TIME  *         3.01 SEC
 DISK USED  *        35.29 MB      
 **********************************************************************************************************************************
 Molecular orbitals read from record     2200.2  Type=UKS/LOCAL(IBO)  
 Occupation numbers read from record     2200.2  Type=UKS/LOCAL(IBO)  
 Orbital energies read from record       2200.2  Type=UKS/LOCAL(IBO)  
 Redundancy group numbers read from rec  2200.2  Type=UKS/BETA (state 1.1)

 IBBA/STO-3G energy=      0.000000000000

        UKS-SCF 
   -116.87476902
 **********************************************************************************************************************************
 Molpro calculation terminated
