
 Primary working directories    : /tmp/sb13343
 Secondary working directories  : /tmp/sb13343
 Wavefunction directory         : /panfs/panasas01/chem/sb13343/wfu/
 Main file repository           : /tmp/sb13343/

 SHA1      : b4a5b34a9e711420743f49e6833241d17c61fb3c
 NAME      : 2099.9.b4a5b34
 ARCHNAME  : linux/x86_64_openmp
 FC        : /cm/shared/languages/GCC-6.1/bin/gfortran
 BLASLIB   : -lblas
 id        : simonbennie

 Nodes     nprocs
 node32-018    1

 Using customized tuning parameters: mindgm=1; mindgv=20; mindgc=4; mindgr=1; noblas=0; minvec=7
 default implementation of scratch files=df  

 memory,500,m
 geomtyp=xyz
 nosym
 noorient
 geometry={
 H         -1.57413        0.33845        0.00000
 C         -0.49500        0.20144        0.00000
 C          0.18857       -0.05954       -1.30114
 C          0.18857       -0.05954        1.30114
 H         -0.33790        0.40751       -2.14134
 H         -0.33790        0.40751        2.14134
 H          1.22176        0.31596       -1.29638
 H          1.22176        0.31596        1.29638
 H          0.25678       -1.13976       -1.52896
 H          0.25678       -1.13976        1.52896
 }
 basis={ default,sto-3g }
 {ks,M06,direct;wf,25,1,1}
 {ibba,bonds=1}

 Variables initialized (895), CPU time= 0.01 sec
 Commands  initialized (725), CPU time= 0.01 sec, 591 directives.
 Default parameters read. Elapsed time= 0.07 sec

 Checking input...
 Passed
1


                                         ***  PROGRAM SYSTEM MOLPRO  ***
                                       Copyright, TTI GmbH Stuttgart, 2015
                                    Version 2099.9 linked May 26 2017 16:03:21


 **********************************************************************************************************************************
 LABEL *                                                                                 
  64 bit serial version                                                                  DATE: 08-Jun-17          TIME: 15:16:33  
 **********************************************************************************************************************************

 SHA1:             b4a5b34a9e711420743f49e6833241d17c61fb3c
 **********************************************************************************************************************************
 SETTING GEOMTYP        =    XYZ

 Variable memory set to  500000000 words,  buffer space 

 ZSYMEL=NOSYM

 SETTING BASIS          =    STO-3G


 Recomputing integrals since basis changed


 Using spherical harmonics

 Library entry H      S STO-3G               selected for orbital group  1
 Library entry C      S STO-3G               selected for orbital group  2
 Library entry C      P STO-3G               selected for orbital group  2


 PROGRAM * SEWARD (Integral evaluation for generally contracted gaussian basis sets)     Author: Roland Lindh, 1990

 Geometry written to block  1 of record 700


 Point group  C1  



 ATOMIC COORDINATES

 NR  ATOM    CHARGE       X              Y              Z

   1  H       1.00   -2.974674584    0.639577807    0.000000000
   2  C       6.00   -0.935414432    0.380666431    0.000000000
   3  C       6.00    0.356345655   -0.112514293   -2.458798250
   4  C       6.00    0.356345655   -0.112514293    2.458798250
   5  H       1.00   -0.638538457    0.770082293   -4.046546140
   6  H       1.00   -0.638538457    0.770082293    4.046546140
   7  H       1.00    2.308791790    0.597077866   -2.449803153
   8  H       1.00    2.308791790    0.597077866    2.449803153
   9  H       1.00    0.485243874   -2.153834248   -2.889315655
  10  H       1.00    0.485243874   -2.153834248    2.889315655

 Bond lengths in Bohr (Angstrom)

 1-2  2.055630578  2-3  2.820914777  2-4  2.820914777  3-5  2.071162595  3-7  2.077413742
     ( 1.087792856)     ( 1.492763814)     ( 1.492763814)     ( 1.096012045)     ( 1.099320010)

  3- 9  2.090202656   4- 6  2.071162595   4- 8  2.077413742   4-10  2.090202656
       ( 1.106087612)       ( 1.096012045)       ( 1.099320010)       ( 1.106087612)

 Bond angles

  1-2-3  118.44375943   1-2-4  118.44375943   2-3-5  111.94558337   2-3-7  111.52358867

  2- 3- 9  112.24140213   2- 4- 6  111.94558337   2- 4- 8  111.52358867   2- 4-10  112.24140213

  3-2-4  121.29758064   5-3-7  108.01204745   5-3-9  106.73207413   6-4-8  108.01204745

  6- 4-10  106.73207413   7- 3- 9  106.05262855   8- 4-10  106.05262855

 NUCLEAR CHARGE:                   25
 NUMBER OF PRIMITIVE AOS:          66
 NUMBER OF SYMMETRY AOS:           66
 NUMBER OF CONTRACTIONS:           22   (  22A   )
 NUMBER OF CORE ORBITALS:           3   (   3A   )
 NUMBER OF VALENCE ORBITALS:       19   (  19A   )


 NUCLEAR REPULSION ENERGY   75.20704826


 Eigenvalues of metric

         1 0.213E+00 0.225E+00 0.288E+00 0.342E+00 0.359E+00 0.374E+00 0.380E+00 0.402E+00


 Contracted 2-electron integrals neglected if value below      1.0D-11
 AO integral compression algorithm  1   Integral accuracy      1.0D-11

     0.524 MB (compressed) written to integral file ( 89.6%)


 NUMBER OF SORTED TWO-ELECTRON INTEGRALS:      32131.     BUFFER LENGTH:  32768
 NUMBER OF SEGMENTS:   1  SEGMENT LENGTH:      32131      RECORD LENGTH: 524288

 Memory used in sort:       0.59 MW

 SORT1 READ       38209. AND WROTE       30689. INTEGRALS IN      1 RECORDS. CPU TIME:     0.00 SEC, REAL TIME:     0.01 SEC
 SORT2 READ       30689. AND WROTE       32131. INTEGRALS IN      2 RECORDS. CPU TIME:     0.01 SEC, REAL TIME:     0.01 SEC

 FILE SIZES:   FILE 1:    30.6 MBYTE,  FILE 4:     4.2 MBYTE,   TOTAL:     34.9 MBYTE

 OPERATOR DM      FOR CENTER  0  COORDINATES:    0.000000    0.000000    0.000000


 **********************************************************************************************************************************
 DATASETS  * FILE   NREC   LENGTH (MB)   RECORD NAMES
              1      19       30.27       500      610      700      900      950      970     1000      129      960     1100   
                                          VAR    BASINP    GEOM    SYMINP    ZMAT    AOBASIS   BASIS     P2S    ABASIS      S 
                                         1400     1410     1200     1210     1080     1600     1650     1300     1700   
                                           T        V       H0       H01     AOSYM     SMH    MOLCAS    ERIS     OPER   

 PROGRAMS   *        TOTAL       INT
 CPU TIMES  *         0.36      0.23
 REAL TIME  *         0.66 SEC
 DISK USED  *        35.29 MB      
 **********************************************************************************************************************************

 Density functional group M06=XC-M06
 Functional: XC-M06(via MFM 1.6)                                               Gradient terms: 1
 Use grid at  1800.2


 Exact exchange will be calculated, factor:  0.2700

 Functional: XC-M06                    Factor:  1.0000

 Generated new metagrid on record  1800.2 with target accuracy 1.0D-06 and 32470 points in CPU time    0.7
 Computed new grid on record 1800.1 in CPU time    0.8
   21722 words reserved for DFT integration

 PROGRAM * RKS-SCF (Restricted open shell Kohn-Sham)     Authors: W. Meyer, H.-J. Werner, P.J. Knowles, 1993

 NUMBER OF ELECTRONS:      13+   12-    SPACE SYMMETRY=1    SPIN SYMMETRY: Doublet 
 CONVERGENCE THRESHOLDS:    1.00E-05 (Density)    1.00E-06 (Energy)
 MAX. NUMBER OF ITERATIONS:       60
 INTERPOLATION TYPE:            DIIS
 INTERPOLATION STEPS:              2 (START)      1 (STEP)
 LEVEL SHIFTS:                 -0.60 (CLOSED) -0.30 (OPEN) 



 Use fine grid record 1800.2 for energy threshold  1.0D-06
 Orbital guess generated from atomic densities. Full valence occupancy:   13

 Molecular orbital dump at record        2100.2

 Initial alpha occupancy:  13
 Initial beta  occupancy:  12
 Wave function symmetry:    1

 ITERATION    DDIFF          GRAD             ENERGY        2-EL.EN.            DIPOLE MOMENTS         DIIS   ORB.
    1      0.000D+00      0.000D+00      -116.77031232    261.233783    0.21123   -0.31037    0.00000    0    start
    2      0.000D+00      0.270D-01      -116.91250991    254.272980    0.03017   -0.06189    0.00000    1    diag,B
    3      0.523D-01      0.204D-02      -116.91382403    254.375249    0.03729   -0.07261    0.00000    2    diag,B
    4      0.302D-02      0.684D-03      -116.91419088    254.359228    0.03695   -0.07109    0.00000    3    diag,B
    5      0.165D-02      0.232D-03      -116.91424822    254.354233    0.03505   -0.06708    0.00000    4    diag,B
    6      0.770D-03      0.485D-04      -116.91425034    254.353851    0.03450   -0.06557    0.00000    5    diag,B
    7      0.140D-03      0.128D-04      -116.91425048    254.354095    0.03455   -0.06544    0.00000    6    fixocc
    8      0.399D-04      0.380D-05      -116.91425050    254.354073    0.03461   -0.06545    0.00000    7    diag,B
    9      0.138D-04      0.889D-06      -116.91425050    254.354067    0.03459   -0.06543    0.00000    8    diag,B
   10      0.355D-05      0.106D-06      -116.91425050    254.354070    0.03460   -0.06543    0.00000    0    orth

 Final alpha occupancy:  13
 Final beta  occupancy:  12

 !RKS STATE 1.1 Energy               -116.914250496686
 Nuclear energy                        75.20704826
 One-electron energy                 -305.41376357
 Two-electron energy                  127.17703494
 Density functional                   -13.88457013     XC-M06=-13.88457013
 Virial quotient                       -1.01460401
 !RKS STATE 1.1 Dipole moment           0.03459555    -0.06542723     0.00000000
 Dipole moment /Debye                   0.08792737    -0.16628853     0.00000000

 Orbital energies:

         1.1          2.1          3.1          4.1          5.1          6.1          7.1          8.1          9.1         10.1
    -10.076485   -10.076475   -10.040052    -0.738448    -0.662302    -0.528995    -0.419524    -0.388851    -0.376332    -0.356217

        11.1         12.1         13.1         14.1         15.1
     -0.318463    -0.311548    -0.119672     0.384822     0.424019

 HOMO     13.1    -0.119672 =      -3.2564eV
 LUMO     14.1     0.384822 =      10.4715eV
 LUMO-HOMO         0.504494 =      13.7280eV


 **********************************************************************************************************************************
 DATASETS  * FILE   NREC   LENGTH (MB)   RECORD NAMES
              1      20       31.31       500      610      700      900      950      970     1000      129      960     1100   
                                          VAR    BASINP    GEOM    SYMINP    ZMAT    AOBASIS   BASIS     P2S    ABASIS      S 
                                         1400     1410     1200     1210     1080     1600     1650     1300     1700     1800   
                                           T        V       H0       H01     AOSYM     SMH    MOLCAS    ERIS     OPER     GRID   

              2       5        2.92       700     1000      520     1800     2100   
                                         GEOM     BASIS   MCVARS    GRID      RKS  

 PROGRAMS   *        TOTAL        KS       INT
 CPU TIMES  *         5.45      5.09      0.23
 REAL TIME  *         6.85 SEC
 DISK USED  *        35.29 MB      
 **********************************************************************************************************************************


 PROGRAM * Intrinsic Basis Bonding Analysis (IBBA)          Author: G. Knizia

 Molecular orbitals read from record     2100.2  Type=RKS/CANONICAL (state 1.1)
 Fock matrix read from record            2100.2  Type=RKS/TOTAL (state 1.1)
 Orbital energies read from record       2100.2  Type=RKS/CANONICAL (state 1.1)
 Density matrix read from record         2100.2  Type=RKS/CHARGE (state 1.1)

 Number of core orbitals:           3 (   3 )
 Number of closed-shell orbitals:   9 (   9 )
 Number of active  orbitals:        1 (   1 )

 Basis set MINAO-AUTO-PP generated.      Number of basis functions:   22 

 Polarized AO type:                A = (O Ot + (1-O)(1-Ot)) P12
 Orthogonalization method:         Symmetric (Loewdin)
 Localization functional:          L = sum[A,i] <i|n_A|i>^4 -> max

 Localization group 1:  12 orbitals, occupancy  2.000
 Iterative localization: IB/PM,    7 iter; Final gradient 0.60E-09

 Bond order analysis:       [THRPRINT= 0.020]

   CEN ATOM   CEN ATOM     WIBERG.BO      RENORM.BO
     1   H  -   2   C       0.961795       0.972370

     2   C  -   4   C       1.072059       1.500100
     2   C  -   3   C       1.072059       1.500100
     2   C  -   1   H       0.961795       0.972370
     2   C  -   9   H       0.030101       0.307845
     2   C  -  10   H       0.030101       0.307845

     3   C  -   2   C       1.072059       1.500100
     3   C  -   5   H       0.959792       0.990389
     3   C  -   7   H       0.954140       0.990992
     3   C  -   9   H       0.933183       0.998723

     4   C  -   2   C       1.072059       1.500100
     4   C  -   6   H       0.959792       0.990389
     4   C  -   8   H       0.954140       0.990992
     4   C  -  10   H       0.933183       0.998723

     5   H  -   3   C       0.959792       0.990389

     6   H  -   4   C       0.959792       0.990389

     7   H  -   3   C       0.954140       0.990992

     8   H  -   4   C       0.954140       0.990992

     9   H  -   3   C       0.933183       0.998723
     9   H  -   2   C       0.030101       0.307845

    10   H  -   4   C       0.933183       0.998723
    10   H  -   2   C       0.030101       0.307845


 Valency analysis:

   CEN ATOM   TOT.VALENCE
     1   H       0.986956
     2   C       3.196777
     3   C       3.933490
     4   C       3.933490
     5   H       0.980432
     6   H       0.980432
     7   H       0.979634
     8   H       0.979634
     9   H       0.972364
    10   H       0.972364
 Localization group 2:   1 orbitals, occupancy  1.000
 Iterative localization: IB/PM,    1 iter; Final gradient 0.00E+00

 Bond order analysis:       [THRPRINT= 0.020]

   CEN ATOM   CEN ATOM     WIBERG.BO      RENORM.BO

     2   C  -  10   H       0.064742       0.500000
     2   C  -   9   H       0.064742       0.500000
     2   C  -   7   H       0.021481       0.500000
     2   C  -   8   H       0.021481       0.500000





     7   H  -   2   C       0.021481       0.500000

     8   H  -   2   C       0.021481       0.500000

     9   H  -   2   C       0.064742       0.500000

    10   H  -   2   C       0.064742       0.500000


 Valency analysis:

   CEN ATOM   TOT.VALENCE
     1   H       0.000442
     2   C       0.196704
     3   C       0.004083
     4   C       0.004083
     5   H       0.009281
     6   H       0.009281
     7   H       0.023860
     8   H       0.023860
     9   H       0.070142
    10   H       0.070142

 Total charge composition:

   CEN ATOM         s          p       ELECTRONS ->P.CHARGE
     1   H       0.88601                 0.88601    0.11399
     2   C       2.99417    3.10126      6.09543   -0.09543
     3   C       2.98819    3.41679      6.40498   -0.40498
     4   C       2.98819    3.41679      6.40498   -0.40498
     5   H       0.86478                 0.86478    0.13522
     6   H       0.86478                 0.86478    0.13522
     7   H       0.86937                 0.86937    0.13063
     8   H       0.86937                 0.86937    0.13063
     9   H       0.87016                 0.87016    0.12984
    10   H       0.87016                 0.87016    0.12984

 Total charge composition, AO contributions:

   CEN ATOM SHL      SPHERICAL COMPONENTS
     1   H  1s       0.88601

     2   C  1s       1.99314
     2   C  2s       1.00104
     2   C  2p       1.09571    0.99960    1.00595

     3   C  1s       1.99181
     3   C  2s       0.99637
     3   C  2p       1.15100    1.16298    1.10281

     4   C  1s       1.99181
     4   C  2s       0.99637
     4   C  2p       1.15100    1.16298    1.10281

     5   H  1s       0.86478

     6   H  1s       0.86478

     7   H  1s       0.86937

     8   H  1s       0.86937

     9   H  1s       0.87016

    10   H  1s       0.87016

 Active orbital charges:

   CEN ATOM         s          p       ELECTRONS ->SPIN.DEN
     1   H       0.00022                 0.00022    0.00022
     2   C       0.00982    0.87960      0.88942    0.88942
     3   C       0.00005    0.00200      0.00205    0.00205
     4   C       0.00005    0.00200      0.00205    0.00205
     5   H       0.00466                 0.00466    0.00466
     6   H       0.00466                 0.00466    0.00466
     7   H       0.01208                 0.01208    0.01208
     8   H       0.01208                 0.01208    0.01208
     9   H       0.03640                 0.03640    0.03640
    10   H       0.03640                 0.03640    0.03640

 Active orbital charges, AO contributions:

   CEN ATOM SHL      SPHERICAL COMPONENTS
     1   H  1s       0.00022

     2   C  1s       0.00000
     2   C  2s       0.00981
     2   C  2p       0.03721    0.84239    0.00000

     3   C  1s       0.00000
     3   C  2s       0.00005
     3   C  2p       0.00000    0.00190    0.00010

     4   C  1s       0.00000
     4   C  2s       0.00005
     4   C  2p       0.00000    0.00190    0.00010

     5   H  1s       0.00466

     6   H  1s       0.00466

     7   H  1s       0.01208

     8   H  1s       0.01208

     9   H  1s       0.03640

    10   H  1s       0.03640

 Summary of localized orbital composition:   [THRPRINT= 0.020]

   ORB  GRP  ORB.ENERGY      CENTERS/CHARGES
     1   1    -9.962340      C  4   2.000
     2   1    -9.962340      C  3   2.000
     3   1    -9.939836      C  2   2.000
     4   1    -0.556697      C  3   1.010   C  2   0.982
     5   1    -0.556697      C  4   1.010   C  2   0.982
     6   1    -0.485270      C  2   1.113   H  1   0.877
     7   1    -0.472816      C  3   1.128   H  9   0.830   C  2   0.040
     8   1    -0.472816      C  4   1.128   H 10   0.830   C  2   0.040
     9   1    -0.471747      C  3   1.132   H  5   0.854
    10   1    -0.471747      C  4   1.132   H  6   0.854
    11   1    -0.470692      C  3   1.128   H  7   0.852
    12   1    -0.470692      C  4   1.128   H  8   0.852
    13   2    -0.011541      C  2   0.889   H 10   0.036   H  9   0.036   (other: 0.038)

 Localized orbitals saved to record      2100.2  (orbital set 2)


 **********************************************************************************************************************************
 DATASETS  * FILE   NREC   LENGTH (MB)   RECORD NAMES
              1      20       31.31       500      610      700      900      950      970     1000      129      960     1100   
                                          VAR    BASINP    GEOM    SYMINP    ZMAT    AOBASIS   BASIS     P2S    ABASIS      S 
                                         1400     1410     1200     1210     1080     1600     1650     1300     1700     1800   
                                           T        V       H0       H01     AOSYM     SMH    MOLCAS    ERIS     OPER     GRID   

              2       5        2.92       700     1000      520     1800     2100   
                                         GEOM     BASIS   MCVARS    GRID      RKS  

 PROGRAMS   *        TOTAL      IBBA        KS       INT
 CPU TIMES  *         5.48      0.02      5.09      0.23
 REAL TIME  *         6.94 SEC
 DISK USED  *        35.29 MB      
 **********************************************************************************************************************************
 Molecular orbitals read from record     2100.2  Type=RKS/LOCAL(IBO)  
 Occupation numbers read from record     2100.2  Type=RKS/LOCAL(IBO)  
 Orbital energies read from record       2100.2  Type=RKS/LOCAL(IBO)  
 Redundancy group numbers read from rec  2100.2  Type=RKS/LOCAL(IBO)  

 IBBA/STO-3G energy=      0.000000000000

        KS-SCF  
   -116.91425050
 **********************************************************************************************************************************
 Molpro calculation terminated
