
 Primary working directories    : /tmp/sb13343
 Secondary working directories  : /tmp/sb13343
 Wavefunction directory         : /panfs/panasas01/chem/sb13343/wfu/
 Main file repository           : /tmp/sb13343/

 SHA1      : b4a5b34a9e711420743f49e6833241d17c61fb3c
 NAME      : 2099.9.b4a5b34
 ARCHNAME  : linux/x86_64_openmp
 FC        : /cm/shared/languages/GCC-6.1/bin/gfortran
 BLASLIB   : -lblas
 id        : simonbennie

 Nodes     nprocs
 node32-002    1

 Using customized tuning parameters: mindgm=1; mindgv=20; mindgc=4; mindgr=1; noblas=0; minvec=7
 default implementation of scratch files=df  

 memory,500,m
 geomtyp=xyz
 nosym
 noorient
 geometry={
 H         -1.57413        0.33845        0.00000
 C         -0.49500        0.20144        0.00000
 C          0.18857       -0.05954       -1.30114
 C          0.18857       -0.05954        1.30114
 H         -0.33790        0.40751       -2.14134
 H         -0.33790        0.40751        2.14134
 H          1.22176        0.31596       -1.29638
 H          1.22176        0.31596        1.29638
 H          0.25678       -1.13976       -1.52896
 H          0.25678       -1.13976        1.52896
 }
 basis={ default,svp }
 {ks,LSDAC,direct;wf,25,1,1}
 {ibba,bonds=1}

 Variables initialized (895), CPU time= 0.01 sec
 Commands  initialized (725), CPU time= 0.01 sec, 591 directives.
 Default parameters read. Elapsed time= 0.12 sec

 Checking input...
 Passed
1


                                         ***  PROGRAM SYSTEM MOLPRO  ***
                                       Copyright, TTI GmbH Stuttgart, 2015
                                    Version 2099.9 linked May 26 2017 16:03:21


 **********************************************************************************************************************************
 LABEL *                                                                                 
  64 bit serial version                                                                  DATE: 08-Jun-17          TIME: 15:24:33  
 **********************************************************************************************************************************

 SHA1:             b4a5b34a9e711420743f49e6833241d17c61fb3c
 **********************************************************************************************************************************
 SETTING GEOMTYP        =    XYZ

 Variable memory set to  500000000 words,  buffer space 

 ZSYMEL=NOSYM

 SETTING BASIS          =    SVP


 Recomputing integrals since basis changed


 Using spherical harmonics

 Library entry H      S def2-SVP             selected for orbital group  1
 Library entry H      P def2-SVP             selected for orbital group  1
 Library entry C      S def2-SVP             selected for orbital group  2
 Library entry C      P def2-SVP             selected for orbital group  2
 Library entry C      D def2-SVP             selected for orbital group  2


 PROGRAM * SEWARD (Integral evaluation for generally contracted gaussian basis sets)     Author: Roland Lindh, 1990

 Geometry written to block  1 of record 700


 Point group  C1  



 ATOMIC COORDINATES

 NR  ATOM    CHARGE       X              Y              Z

   1  H       1.00   -2.974674584    0.639577807    0.000000000
   2  C       6.00   -0.935414432    0.380666431    0.000000000
   3  C       6.00    0.356345655   -0.112514293   -2.458798250
   4  C       6.00    0.356345655   -0.112514293    2.458798250
   5  H       1.00   -0.638538457    0.770082293   -4.046546140
   6  H       1.00   -0.638538457    0.770082293    4.046546140
   7  H       1.00    2.308791790    0.597077866   -2.449803153
   8  H       1.00    2.308791790    0.597077866    2.449803153
   9  H       1.00    0.485243874   -2.153834248   -2.889315655
  10  H       1.00    0.485243874   -2.153834248    2.889315655

 Bond lengths in Bohr (Angstrom)

 1-2  2.055630578  2-3  2.820914777  2-4  2.820914777  3-5  2.071162595  3-7  2.077413742
     ( 1.087792856)     ( 1.492763814)     ( 1.492763814)     ( 1.096012045)     ( 1.099320010)

  3- 9  2.090202656   4- 6  2.071162595   4- 8  2.077413742   4-10  2.090202656
       ( 1.106087612)       ( 1.096012045)       ( 1.099320010)       ( 1.106087612)

 Bond angles

  1-2-3  118.44375943   1-2-4  118.44375943   2-3-5  111.94558337   2-3-7  111.52358867

  2- 3- 9  112.24140213   2- 4- 6  111.94558337   2- 4- 8  111.52358867   2- 4-10  112.24140213

  3-2-4  121.29758064   5-3-7  108.01204745   5-3-9  106.73207413   6-4-8  108.01204745

  6- 4-10  106.73207413   7- 3- 9  106.05262855   8- 4-10  106.05262855

 NUCLEAR CHARGE:                   25
 NUMBER OF PRIMITIVE AOS:         124
 NUMBER OF SYMMETRY AOS:          121
 NUMBER OF CONTRACTIONS:           77   (  77A   )
 NUMBER OF CORE ORBITALS:           3   (   3A   )
 NUMBER OF VALENCE ORBITALS:       19   (  19A   )


 NUCLEAR REPULSION ENERGY   75.20704826


 Eigenvalues of metric

         1 0.402E-02 0.537E-02 0.229E-01 0.265E-01 0.266E-01 0.379E-01 0.436E-01 0.492E-01


 Contracted 2-electron integrals neglected if value below      1.0D-11
 AO integral compression algorithm  1   Integral accuracy      1.0D-11

     19.923 MB (compressed) written to integral file ( 49.4%)


 NUMBER OF SORTED TWO-ELECTRON INTEGRALS:    4510506.     BUFFER LENGTH:  32768
 NUMBER OF SEGMENTS:   1  SEGMENT LENGTH:    4510506      RECORD LENGTH: 524288

 Memory used in sort:       5.07 MW

 SORT1 READ     5074366. AND WROTE     4244391. INTEGRALS IN     13 RECORDS. CPU TIME:     0.06 SEC, REAL TIME:     0.22 SEC
 SORT2 READ     4244391. AND WROTE     4510506. INTEGRALS IN     76 RECORDS. CPU TIME:     0.16 SEC, REAL TIME:     0.30 SEC

 FILE SIZES:   FILE 1:    50.3 MBYTE,  FILE 4:    54.6 MBYTE,   TOTAL:    104.8 MBYTE

 OPERATOR DM      FOR CENTER  0  COORDINATES:    0.000000    0.000000    0.000000


 **********************************************************************************************************************************
 DATASETS  * FILE   NREC   LENGTH (MB)   RECORD NAMES
              1      19       47.44       500      610      700      900      950      970     1000      129      960     1100   
                                          VAR    BASINP    GEOM    SYMINP    ZMAT    AOBASIS   BASIS     P2S    ABASIS      S 
                                         1400     1410     1200     1210     1080     1600     1650     1300     1700   
                                           T        V       H0       H01     AOSYM     SMH    MOLCAS    ERIS     OPER   

 PROGRAMS   *        TOTAL       INT
 CPU TIMES  *         1.29      1.13
 REAL TIME  *         2.73 SEC
 DISK USED  *       105.25 MB      
 **********************************************************************************************************************************

 Density functional group LSDAC=PW92C
 Functional: PW92C(Automatically generated (new) PW92C)                        Gradient terms: 0
 Use grid at  1800.2

 Functional: PW92C                     Factor:  1.0000

 Generated new metagrid on record  1800.2 with target accuracy 1.0D-06 and 32470 points in CPU time    0.8
 Computed new grid on record 1800.1 in CPU time    0.8
   35847 words reserved for DFT integration

 PROGRAM * RKS-SCF (Restricted open shell Kohn-Sham)     Authors: W. Meyer, H.-J. Werner, P.J. Knowles, 1993

 NUMBER OF ELECTRONS:      13+   12-    SPACE SYMMETRY=1    SPIN SYMMETRY: Doublet 
 CONVERGENCE THRESHOLDS:    1.00E-05 (Density)    1.00E-06 (Energy)
 MAX. NUMBER OF ITERATIONS:       60
 INTERPOLATION TYPE:            DIIS
 INTERPOLATION STEPS:              2 (START)      1 (STEP)
 LEVEL SHIFTS:                 -0.60 (CLOSED) -0.30 (OPEN) 



 Use fine grid record 1800.2 for energy threshold  1.0D-06
 Orbital guess generated from atomic densities. Full valence occupancy:   13

 Molecular orbital dump at record        2100.2

 Initial alpha occupancy:  13
 Initial beta  occupancy:  12
 Wave function symmetry:    1

 ITERATION    DDIFF          GRAD             ENERGY        2-EL.EN.            DIPOLE MOMENTS         DIIS   ORB.
    1      0.000D+00      0.000D+00      -101.48428279    243.739049   -0.13772    0.11550   -0.00000    0    start
    2      0.000D+00      0.896D-02      -101.52861019    252.513530    0.06187   -0.07903   -0.00000    1    diag,B
    3      0.148D-01      0.518D-02      -101.55084325    249.293888   -0.02984    0.01753   -0.00000    2    diag,B
    4      0.440D-02      0.308D-03      -101.55098640    249.397301   -0.02039   -0.00401   -0.00000    3    diag,B
    5      0.111D-02      0.156D-03      -101.55102890    249.412662   -0.02480   -0.00388   -0.00000    4    diag,B
    6      0.589D-03      0.536D-04      -101.55104604    249.418899   -0.02589   -0.00847   -0.00000    5    diag,B
    7      0.591D-03      0.214D-04      -101.55105282    249.421909   -0.02703   -0.01192   -0.00000    6    fixocc
    8      0.397D-03      0.119D-04      -101.55105629    249.423149   -0.02763   -0.01430   -0.00000    7    diag,B
    9      0.330D-03      0.619D-05      -101.55105749    249.423509   -0.02799   -0.01617   -0.00000    8    diag,B
   10      0.219D-03      0.307D-05      -101.55105777    249.423643   -0.02807   -0.01699   -0.00000    9    orth
   11      0.119D-03      0.122D-05      -101.55105780    249.423720   -0.02809   -0.01726   -0.00000    9    diag,B
   12      0.378D-04      0.523D-06      -101.55105780    249.423679   -0.02810   -0.01732   -0.00000    9    diag,B
   13      0.124D-04      0.218D-06      -101.55105781    249.423713   -0.02810   -0.01733   -0.00000    9    diag,B
   14      0.389D-05      0.905D-07      -101.55105781    249.423683   -0.02810   -0.01733   -0.00000    0    orth

 Final alpha occupancy:  13
 Final beta  occupancy:  12

 !RKS STATE 1.1 Energy               -101.551057805400
 Nuclear energy                        75.20704826
 One-electron energy                 -299.99017601
 Two-electron energy                  124.71184173
 Density functional                    -1.47977178     PW92C=-1.47977178
 Virial quotient                       -0.92443940
 !RKS STATE 1.1 Dipole moment          -0.02810063    -0.01732881    -0.00000000
 Dipole moment /Debye                  -0.07141999    -0.04404256    -0.00000000

 Orbital energies:

         1.1          2.1          3.1          4.1          5.1          6.1          7.1          8.1          9.1         10.1
     -8.253274    -8.253247    -8.238275    -0.397135    -0.315517    -0.206391    -0.144154    -0.125361    -0.098481    -0.073765

        11.1         12.1         13.1         14.1         15.1
     -0.041834    -0.030780     0.123362     0.183938     0.218871

 HOMO     13.1     0.123362 =       3.3569eV
 LUMO     14.1     0.183938 =       5.0052eV
 LUMO-HOMO         0.060575 =       1.6483eV


 **********************************************************************************************************************************
 DATASETS  * FILE   NREC   LENGTH (MB)   RECORD NAMES
              1      20       48.47       500      610      700      900      950      970     1000      129      960     1100   
                                          VAR    BASINP    GEOM    SYMINP    ZMAT    AOBASIS   BASIS     P2S    ABASIS      S 
                                         1400     1410     1200     1210     1080     1600     1650     1300     1700     1800   
                                           T        V       H0       H01     AOSYM     SMH    MOLCAS    ERIS     OPER     GRID   

              2       5        3.08       700     1000      520     1800     2100   
                                         GEOM     BASIS   MCVARS    GRID      RKS  

 PROGRAMS   *        TOTAL        KS       INT
 CPU TIMES  *         7.54      6.25      1.13
 REAL TIME  *        13.12 SEC
 DISK USED  *       105.25 MB      
 **********************************************************************************************************************************


 PROGRAM * Intrinsic Basis Bonding Analysis (IBBA)          Author: G. Knizia

 Molecular orbitals read from record     2100.2  Type=RKS/CANONICAL (state 1.1)
 Fock matrix read from record            2100.2  Type=RKS/TOTAL (state 1.1)
 Orbital energies read from record       2100.2  Type=RKS/CANONICAL (state 1.1)
 Density matrix read from record         2100.2  Type=RKS/CHARGE (state 1.1)

 Number of core orbitals:           3 (   3 )
 Number of closed-shell orbitals:   9 (   9 )
 Number of active  orbitals:        1 (   1 )

 Basis set MINAO-AUTO-PP generated.      Number of basis functions:   22 

 Polarized AO type:                A = (O Ot + (1-O)(1-Ot)) P12
 Orthogonalization method:         Symmetric (Loewdin)
 Localization functional:          L = sum[A,i] <i|n_A|i>^4 -> max

 Localization group 1:  12 orbitals, occupancy  2.000
 Iterative localization: IB/PM,    8 iter; Final gradient 0.28E-08

 Bond order analysis:       [THRPRINT= 0.020]

   CEN ATOM   CEN ATOM     WIBERG.BO      RENORM.BO
     1   H  -   2   C       0.946924       0.952998

     2   C  -   4   C       1.191509       1.489180
     2   C  -   3   C       1.191509       1.489180
     2   C  -   1   H       0.946924       0.952998
     2   C  -   9   H       0.078319       0.254325
     2   C  -  10   H       0.078319       0.254325
     2   C  -   7   H       0.027876       0.081021
     2   C  -   8   H       0.027876       0.081021

     3   C  -   2   C       1.191509       1.489180
     3   C  -   5   H       0.946287       0.980013
     3   C  -   7   H       0.921345       0.971603
     3   C  -   9   H       0.858582       0.994150

     4   C  -   2   C       1.191509       1.489180
     4   C  -   6   H       0.946287       0.980013
     4   C  -   8   H       0.921345       0.971603
     4   C  -  10   H       0.858582       0.994150

     5   H  -   3   C       0.946287       0.980013

     6   H  -   4   C       0.946287       0.980013

     7   H  -   3   C       0.921345       0.971603
     7   H  -   2   C       0.027876       0.081021

     8   H  -   4   C       0.921345       0.971603
     8   H  -   2   C       0.027876       0.081021

     9   H  -   3   C       0.858582       0.994150
     9   H  -   2   C       0.078319       0.254325

    10   H  -   4   C       0.858582       0.994150
    10   H  -   2   C       0.078319       0.254325


 Valency analysis:

   CEN ATOM   TOT.VALENCE
     1   H       0.999648
     2   C       3.569979
     3   C       3.962224
     4   C       3.962224
     5   H       0.995745
     6   H       0.995745
     7   H       0.993721
     8   H       0.993721
     9   H       0.978667
    10   H       0.978667
 Localization group 2:   1 orbitals, occupancy  1.000
 Iterative localization: IB/PM,    1 iter; Final gradient 0.00E+00

 Bond order analysis:       [THRPRINT= 0.020]

   CEN ATOM   CEN ATOM     WIBERG.BO      RENORM.BO

     2   C  -   9   H       0.142465       0.500000
     2   C  -  10   H       0.142465       0.500000
     2   C  -   7   H       0.045498       0.500000
     2   C  -   8   H       0.045498       0.500000





     7   H  -   2   C       0.045498       0.500000

     8   H  -   2   C       0.045498       0.500000

     9   H  -   2   C       0.142465       0.500000
     9   H  -  10   H       0.020260       0.500000

    10   H  -   2   C       0.142465       0.500000
    10   H  -   9   H       0.020260       0.500000


 Valency analysis:

   CEN ATOM   TOT.VALENCE
     1   H       0.000774
     2   C       0.413694
     3   C       0.008011
     4   C       0.008011
     5   H       0.018085
     6   H       0.018085
     7   H       0.062221
     8   H       0.062221
     9   H       0.181038
    10   H       0.181038

 Total charge composition:

   CEN ATOM         s          p       ELECTRONS ->P.CHARGE
     1   H       0.98163                 0.98163    0.01837
     2   C       2.90207    3.11690      6.01896   -0.01896
     3   C       2.88215    3.26616      6.14831   -0.14831
     4   C       2.88215    3.26616      6.14831   -0.14831
     5   H       0.94390                 0.94390    0.05610
     6   H       0.94390                 0.94390    0.05610
     7   H       0.95291                 0.95291    0.04709
     8   H       0.95291                 0.95291    0.04709
     9   H       0.95459                 0.95459    0.04541
    10   H       0.95459                 0.95459    0.04541

 Total charge composition, AO contributions:

   CEN ATOM SHL      SPHERICAL COMPONENTS
     1   H  1s       0.98163

     2   C  1s       1.99817
     2   C  2s       0.90390
     2   C  2p       1.04497    1.05901    1.01292

     3   C  1s       1.99766
     3   C  2s       0.88449
     3   C  2p       1.09367    1.07825    1.09423

     4   C  1s       1.99766
     4   C  2s       0.88449
     4   C  2p       1.09367    1.07825    1.09423

     5   H  1s       0.94390

     6   H  1s       0.94390

     7   H  1s       0.95291

     8   H  1s       0.95291

     9   H  1s       0.95459

    10   H  1s       0.95459

 Active orbital charges:

   CEN ATOM         s          p       ELECTRONS ->SPIN.DEN
     1   H       0.00039                 0.00039    0.00039
     2   C       0.00556    0.70217      0.70773    0.70773
     3   C       0.00049    0.00353      0.00402    0.00402
     4   C       0.00049    0.00353      0.00402    0.00402
     5   H       0.00913                 0.00913    0.00913
     6   H       0.00913                 0.00913    0.00913
     7   H       0.03214                 0.03214    0.03214
     8   H       0.03214                 0.03214    0.03214
     9   H       0.10065                 0.10065    0.10065
    10   H       0.10065                 0.10065    0.10065

 Active orbital charges, AO contributions:

   CEN ATOM SHL      SPHERICAL COMPONENTS
     1   H  1s       0.00039

     2   C  1s       0.00000
     2   C  2s       0.00556
     2   C  2p       0.02641    0.67576    0.00000

     3   C  1s       0.00000
     3   C  2s       0.00049
     3   C  2p       0.00006    0.00344    0.00003

     4   C  1s       0.00000
     4   C  2s       0.00049
     4   C  2p       0.00006    0.00344    0.00003

     5   H  1s       0.00913

     6   H  1s       0.00913

     7   H  1s       0.03214

     8   H  1s       0.03214

     9   H  1s       0.10065

    10   H  1s       0.10065

 Summary of localized orbital composition:   [THRPRINT= 0.020]

   ORB  GRP  ORB.ENERGY      CENTERS/CHARGES
     1   1    -8.172234      C  4   2.000
     2   1    -8.172234      C  3   2.000
     3   1    -8.165740      C  2   2.000
     4   1    -0.249463      C  4   1.027   C  2   0.962
     5   1    -0.249463      C  3   1.027   C  2   0.962
     6   1    -0.172608      C  4   1.026   H 10   0.841   C  2   0.124
     7   1    -0.172608      C  3   1.026   H  9   0.841   C  2   0.124
     8   1    -0.168046      C  2   1.005   H  1   0.969   (other: 0.026)
     9   1    -0.165807      C  3   1.035   H  7   0.908   C  2   0.045
    10   1    -0.165807      C  4   1.035   H  8   0.908   C  2   0.045
    11   1    -0.162106      C  4   1.041   H  6   0.924   C  2   0.023
    12   1    -0.162106      C  3   1.041   H  5   0.924   C  2   0.023
    13   2     0.116542      C  2   0.708   H  9   0.101   H 10   0.101   H  7   0.032   H  8   0.032   (other: 0.027)

 Localized orbitals saved to record      2100.2  (orbital set 2)


 **********************************************************************************************************************************
 DATASETS  * FILE   NREC   LENGTH (MB)   RECORD NAMES
              1      20       48.47       500      610      700      900      950      970     1000      129      960     1100   
                                          VAR    BASINP    GEOM    SYMINP    ZMAT    AOBASIS   BASIS     P2S    ABASIS      S 
                                         1400     1410     1200     1210     1080     1600     1650     1300     1700     1800   
                                           T        V       H0       H01     AOSYM     SMH    MOLCAS    ERIS     OPER     GRID   

              2       5        3.13       700     1000      520     1800     2100   
                                         GEOM     BASIS   MCVARS    GRID      RKS  

 PROGRAMS   *        TOTAL      IBBA        KS       INT
 CPU TIMES  *         7.57      0.02      6.25      1.13
 REAL TIME  *        13.24 SEC
 DISK USED  *       105.25 MB      
 **********************************************************************************************************************************
 Molecular orbitals read from record     2100.2  Type=RKS/LOCAL(IBO)  
 Occupation numbers read from record     2100.2  Type=RKS/LOCAL(IBO)  
 Orbital energies read from record       2100.2  Type=RKS/LOCAL(IBO)  
 Redundancy group numbers read from rec  2100.2  Type=RKS/LOCAL(IBO)  

 IBBA/SVP energy=      0.000000000000

        KS-SCF  
   -101.55105781
 **********************************************************************************************************************************
 Molpro calculation terminated
