
 Primary working directories    : /tmp/sb13343
 Secondary working directories  : /tmp/sb13343
 Wavefunction directory         : /panfs/panasas01/chem/sb13343/wfu/
 Main file repository           : /tmp/sb13343/

 SHA1      : b4a5b34a9e711420743f49e6833241d17c61fb3c
 NAME      : 2099.9.b4a5b34
 ARCHNAME  : linux/x86_64_openmp
 FC        : /cm/shared/languages/GCC-6.1/bin/gfortran
 BLASLIB   : -lblas
 id        : simonbennie

 Nodes     nprocs
 node32-018    1

 Using customized tuning parameters: mindgm=1; mindgv=20; mindgc=4; mindgr=1; noblas=0; minvec=7
 default implementation of scratch files=df  

 memory,500,m
 geomtyp=xyz
 nosym
 noorient
 geometry={
 H         -1.57413        0.33845        0.00000
 C         -0.49500        0.20144        0.00000
 C          0.18857       -0.05954       -1.30114
 C          0.18857       -0.05954        1.30114
 H         -0.33790        0.40751       -2.14134
 H         -0.33790        0.40751        2.14134
 H          1.22176        0.31596       -1.29638
 H          1.22176        0.31596        1.29638
 H          0.25678       -1.13976       -1.52896
 H          0.25678       -1.13976        1.52896
 }
 basis={ default,sto-3g }
 {ks,M05,direct;wf,25,1,1}
 {ibba,bonds=1}

 Variables initialized (895), CPU time= 0.00 sec
 Commands  initialized (725), CPU time= 0.02 sec, 591 directives.
 Default parameters read. Elapsed time= 0.09 sec

 Checking input...
 Passed
1


                                         ***  PROGRAM SYSTEM MOLPRO  ***
                                       Copyright, TTI GmbH Stuttgart, 2015
                                    Version 2099.9 linked May 26 2017 16:03:21


 **********************************************************************************************************************************
 LABEL *                                                                                 
  64 bit serial version                                                                  DATE: 08-Jun-17          TIME: 15:13:53  
 **********************************************************************************************************************************

 SHA1:             b4a5b34a9e711420743f49e6833241d17c61fb3c
 **********************************************************************************************************************************
 SETTING GEOMTYP        =    XYZ

 Variable memory set to  500000000 words,  buffer space 

 ZSYMEL=NOSYM

 SETTING BASIS          =    STO-3G


 Recomputing integrals since basis changed


 Using spherical harmonics

 Library entry H      S STO-3G               selected for orbital group  1
 Library entry C      S STO-3G               selected for orbital group  2
 Library entry C      P STO-3G               selected for orbital group  2


 PROGRAM * SEWARD (Integral evaluation for generally contracted gaussian basis sets)     Author: Roland Lindh, 1990

 Geometry written to block  1 of record 700


 Point group  C1  



 ATOMIC COORDINATES

 NR  ATOM    CHARGE       X              Y              Z

   1  H       1.00   -2.974674584    0.639577807    0.000000000
   2  C       6.00   -0.935414432    0.380666431    0.000000000
   3  C       6.00    0.356345655   -0.112514293   -2.458798250
   4  C       6.00    0.356345655   -0.112514293    2.458798250
   5  H       1.00   -0.638538457    0.770082293   -4.046546140
   6  H       1.00   -0.638538457    0.770082293    4.046546140
   7  H       1.00    2.308791790    0.597077866   -2.449803153
   8  H       1.00    2.308791790    0.597077866    2.449803153
   9  H       1.00    0.485243874   -2.153834248   -2.889315655
  10  H       1.00    0.485243874   -2.153834248    2.889315655

 Bond lengths in Bohr (Angstrom)

 1-2  2.055630578  2-3  2.820914777  2-4  2.820914777  3-5  2.071162595  3-7  2.077413742
     ( 1.087792856)     ( 1.492763814)     ( 1.492763814)     ( 1.096012045)     ( 1.099320010)

  3- 9  2.090202656   4- 6  2.071162595   4- 8  2.077413742   4-10  2.090202656
       ( 1.106087612)       ( 1.096012045)       ( 1.099320010)       ( 1.106087612)

 Bond angles

  1-2-3  118.44375943   1-2-4  118.44375943   2-3-5  111.94558337   2-3-7  111.52358867

  2- 3- 9  112.24140213   2- 4- 6  111.94558337   2- 4- 8  111.52358867   2- 4-10  112.24140213

  3-2-4  121.29758064   5-3-7  108.01204745   5-3-9  106.73207413   6-4-8  108.01204745

  6- 4-10  106.73207413   7- 3- 9  106.05262855   8- 4-10  106.05262855

 NUCLEAR CHARGE:                   25
 NUMBER OF PRIMITIVE AOS:          66
 NUMBER OF SYMMETRY AOS:           66
 NUMBER OF CONTRACTIONS:           22   (  22A   )
 NUMBER OF CORE ORBITALS:           3   (   3A   )
 NUMBER OF VALENCE ORBITALS:       19   (  19A   )


 NUCLEAR REPULSION ENERGY   75.20704826


 Eigenvalues of metric

         1 0.213E+00 0.225E+00 0.288E+00 0.342E+00 0.359E+00 0.374E+00 0.380E+00 0.402E+00


 Contracted 2-electron integrals neglected if value below      1.0D-11
 AO integral compression algorithm  1   Integral accuracy      1.0D-11

     0.524 MB (compressed) written to integral file ( 89.6%)


 NUMBER OF SORTED TWO-ELECTRON INTEGRALS:      32131.     BUFFER LENGTH:  32768
 NUMBER OF SEGMENTS:   1  SEGMENT LENGTH:      32131      RECORD LENGTH: 524288

 Memory used in sort:       0.59 MW

 SORT1 READ       38209. AND WROTE       30689. INTEGRALS IN      1 RECORDS. CPU TIME:     0.00 SEC, REAL TIME:     0.00 SEC
 SORT2 READ       30689. AND WROTE       32131. INTEGRALS IN      2 RECORDS. CPU TIME:     0.01 SEC, REAL TIME:     0.01 SEC

 FILE SIZES:   FILE 1:    30.6 MBYTE,  FILE 4:     4.2 MBYTE,   TOTAL:     34.9 MBYTE

 OPERATOR DM      FOR CENTER  0  COORDINATES:    0.000000    0.000000    0.000000


 **********************************************************************************************************************************
 DATASETS  * FILE   NREC   LENGTH (MB)   RECORD NAMES
              1      19       30.27       500      610      700      900      950      970     1000      129      960     1100   
                                          VAR    BASINP    GEOM    SYMINP    ZMAT    AOBASIS   BASIS     P2S    ABASIS      S 
                                         1400     1410     1200     1210     1080     1600     1650     1300     1700   
                                           T        V       H0       H01     AOSYM     SMH    MOLCAS    ERIS     OPER   

 PROGRAMS   *        TOTAL       INT
 CPU TIMES  *         0.38      0.23
 REAL TIME  *         0.66 SEC
 DISK USED  *        35.29 MB      
 **********************************************************************************************************************************

 Density functional group M05=XC-M05
 Functional: XC-M05(via MFM 1.6)                                               Gradient terms: 1
 Use grid at  1800.2


 Exact exchange will be calculated, factor:  0.2800

 Functional: XC-M05                    Factor:  1.0000

 Generated new metagrid on record  1800.2 with target accuracy 1.0D-06 and 32470 points in CPU time    0.7
 Computed new grid on record 1800.1 in CPU time    0.8
   21722 words reserved for DFT integration

 PROGRAM * RKS-SCF (Restricted open shell Kohn-Sham)     Authors: W. Meyer, H.-J. Werner, P.J. Knowles, 1993

 NUMBER OF ELECTRONS:      13+   12-    SPACE SYMMETRY=1    SPIN SYMMETRY: Doublet 
 CONVERGENCE THRESHOLDS:    1.00E-05 (Density)    1.00E-06 (Energy)
 MAX. NUMBER OF ITERATIONS:       60
 INTERPOLATION TYPE:            DIIS
 INTERPOLATION STEPS:              2 (START)      1 (STEP)
 LEVEL SHIFTS:                 -0.60 (CLOSED) -0.30 (OPEN) 



 Use fine grid record 1800.2 for energy threshold  1.0D-06
 Orbital guess generated from atomic densities. Full valence occupancy:   13

 Molecular orbital dump at record        2100.2

 Initial alpha occupancy:  13
 Initial beta  occupancy:  12
 Wave function symmetry:    1

 ITERATION    DDIFF          GRAD             ENERGY        2-EL.EN.            DIPOLE MOMENTS         DIIS   ORB.
    1      0.000D+00      0.000D+00      -116.91586863    260.775620    0.20909   -0.30860    0.00000    0    start
    2      0.000D+00      0.269D-01      -117.05095364    253.989703    0.03429   -0.06741    0.00000    1    diag,B
    3      0.511D-01      0.219D-02      -117.05242526    254.191692    0.03916   -0.08003    0.00000    2    diag,B
    4      0.328D-02      0.655D-03      -117.05284713    254.178493    0.03733   -0.08067    0.00000    3    diag,B
    5      0.156D-02      0.210D-03      -117.05293286    254.172885    0.03520   -0.07904    0.00000    4    diag,B
    6      0.692D-03      0.290D-04      -117.05293527    254.172744    0.03489   -0.07855    0.00000    5    diag,B
    7      0.668D-04      0.749D-05      -117.05293520    254.172924    0.03488   -0.07848    0.00000    6    fixocc
    8      0.192D-04      0.139D-05      -117.05293515    254.172932    0.03491   -0.07850    0.00000    7    diag,B
    9      0.388D-05      0.148D-06      -117.05293514    254.172933    0.03491   -0.07850    0.00000    0    orth

 Final alpha occupancy:  13
 Final beta  occupancy:  12

 !RKS STATE 1.1 Energy               -117.052935140115
 Nuclear energy                        75.20704826
 One-electron energy                 -305.49589704
 Two-electron energy                  127.08646656
 Density functional                   -13.85055292     XC-M05=-13.85055292
 Virial quotient                       -1.01449605
 !RKS STATE 1.1 Dipole moment           0.03491233    -0.07850132     0.00000000
 Dipole moment /Debye                   0.08873248    -0.19951738     0.00000000

 Orbital energies:

         1.1          2.1          3.1          4.1          5.1          6.1          7.1          8.1          9.1         10.1
    -10.075217   -10.075202   -10.039492    -0.745691    -0.669981    -0.534776    -0.420867    -0.391145    -0.376385    -0.357427

        11.1         12.1         13.1         14.1         15.1
     -0.315106    -0.310886    -0.117252     0.401033     0.431380

 HOMO     13.1    -0.117252 =      -3.1906eV
 LUMO     14.1     0.401033 =      10.9127eV
 LUMO-HOMO         0.518284 =      14.1032eV


 **********************************************************************************************************************************
 DATASETS  * FILE   NREC   LENGTH (MB)   RECORD NAMES
              1      20       31.31       500      610      700      900      950      970     1000      129      960     1100   
                                          VAR    BASINP    GEOM    SYMINP    ZMAT    AOBASIS   BASIS     P2S    ABASIS      S 
                                         1400     1410     1200     1210     1080     1600     1650     1300     1700     1800   
                                           T        V       H0       H01     AOSYM     SMH    MOLCAS    ERIS     OPER     GRID   

              2       5        2.92       700     1000      520     1800     2100   
                                         GEOM     BASIS   MCVARS    GRID      RKS  

 PROGRAMS   *        TOTAL        KS       INT
 CPU TIMES  *         4.06      3.67      0.23
 REAL TIME  *         4.43 SEC
 DISK USED  *        35.29 MB      
 **********************************************************************************************************************************


 PROGRAM * Intrinsic Basis Bonding Analysis (IBBA)          Author: G. Knizia

 Molecular orbitals read from record     2100.2  Type=RKS/CANONICAL (state 1.1)
 Fock matrix read from record            2100.2  Type=RKS/TOTAL (state 1.1)
 Orbital energies read from record       2100.2  Type=RKS/CANONICAL (state 1.1)
 Density matrix read from record         2100.2  Type=RKS/CHARGE (state 1.1)

 Number of core orbitals:           3 (   3 )
 Number of closed-shell orbitals:   9 (   9 )
 Number of active  orbitals:        1 (   1 )

 Basis set MINAO-AUTO-PP generated.      Number of basis functions:   22 

 Polarized AO type:                A = (O Ot + (1-O)(1-Ot)) P12
 Orthogonalization method:         Symmetric (Loewdin)
 Localization functional:          L = sum[A,i] <i|n_A|i>^4 -> max

 Localization group 1:  12 orbitals, occupancy  2.000
 Iterative localization: IB/PM,    7 iter; Final gradient 0.73E-09

 Bond order analysis:       [THRPRINT= 0.020]

   CEN ATOM   CEN ATOM     WIBERG.BO      RENORM.BO
     1   H  -   2   C       0.961158       0.972690

     2   C  -   4   C       1.075926       1.499299
     2   C  -   3   C       1.075926       1.499299
     2   C  -   1   H       0.961158       0.972690
     2   C  -   9   H       0.031377       0.309776
     2   C  -  10   H       0.031377       0.309776

     3   C  -   2   C       1.075926       1.499299
     3   C  -   5   H       0.959181       0.990264
     3   C  -   7   H       0.953318       0.990874
     3   C  -   9   H       0.930388       0.998609

     4   C  -   2   C       1.075926       1.499299
     4   C  -   6   H       0.959181       0.990264
     4   C  -   8   H       0.953318       0.990874
     4   C  -  10   H       0.930388       0.998609

     5   H  -   3   C       0.959181       0.990264

     6   H  -   4   C       0.959181       0.990264

     7   H  -   3   C       0.953318       0.990874

     8   H  -   4   C       0.953318       0.990874

     9   H  -   3   C       0.930388       0.998609
     9   H  -   2   C       0.031377       0.309776

    10   H  -   4   C       0.930388       0.998609
    10   H  -   2   C       0.031377       0.309776


 Valency analysis:

   CEN ATOM   TOT.VALENCE
     1   H       0.985911
     2   C       3.206338
     3   C       3.933392
     4   C       3.933392
     5   H       0.979736
     6   H       0.979736
     7   H       0.978768
     8   H       0.978768
     9   H       0.971018
    10   H       0.971018
 Localization group 2:   1 orbitals, occupancy  1.000
 Iterative localization: IB/PM,    1 iter; Final gradient 0.00E+00

 Bond order analysis:       [THRPRINT= 0.020]

   CEN ATOM   CEN ATOM     WIBERG.BO      RENORM.BO

     2   C  -  10   H       0.066054       0.500000
     2   C  -   9   H       0.066054       0.500000
     2   C  -   7   H       0.021529       0.500000
     2   C  -   8   H       0.021529       0.500000





     7   H  -   2   C       0.021529       0.500000

     8   H  -   2   C       0.021529       0.500000

     9   H  -   2   C       0.066054       0.500000

    10   H  -   2   C       0.066054       0.500000


 Valency analysis:

   CEN ATOM   TOT.VALENCE
     1   H       0.000603
     2   C       0.201016
     3   C       0.004957
     4   C       0.004957
     5   H       0.009263
     6   H       0.009263
     7   H       0.023987
     8   H       0.023987
     9   H       0.071724
    10   H       0.071724

 Total charge composition:

   CEN ATOM         s          p       ELECTRONS ->P.CHARGE
     1   H       0.88160                 0.88160    0.11840
     2   C       3.00392    3.09753      6.10145   -0.10145
     3   C       2.99614    3.41659      6.41273   -0.41273
     4   C       2.99614    3.41659      6.41273   -0.41273
     5   H       0.86230                 0.86230    0.13770
     6   H       0.86230                 0.86230    0.13770
     7   H       0.86643                 0.86643    0.13357
     8   H       0.86643                 0.86643    0.13357
     9   H       0.86701                 0.86701    0.13299
    10   H       0.86701                 0.86701    0.13299

 Total charge composition, AO contributions:

   CEN ATOM SHL      SPHERICAL COMPONENTS
     1   H  1s       0.88160

     2   C  1s       1.99268
     2   C  2s       1.01124
     2   C  2p       1.09662    1.00179    0.99912

     3   C  1s       1.99123
     3   C  2s       1.00491
     3   C  2p       1.15209    1.16366    1.10085

     4   C  1s       1.99123
     4   C  2s       1.00491
     4   C  2p       1.15209    1.16366    1.10085

     5   H  1s       0.86230

     6   H  1s       0.86230

     7   H  1s       0.86643

     8   H  1s       0.86643

     9   H  1s       0.86701

    10   H  1s       0.86701

 Active orbital charges:

   CEN ATOM         s          p       ELECTRONS ->SPIN.DEN
     1   H       0.00030                 0.00030    0.00030
     2   C       0.00888    0.87776      0.88664    0.88664
     3   C       0.00007    0.00242      0.00248    0.00248
     4   C       0.00007    0.00242      0.00248    0.00248
     5   H       0.00465                 0.00465    0.00465
     6   H       0.00465                 0.00465    0.00465
     7   H       0.01214                 0.01214    0.01214
     8   H       0.01214                 0.01214    0.01214
     9   H       0.03725                 0.03725    0.03725
    10   H       0.03725                 0.03725    0.03725

 Active orbital charges, AO contributions:

   CEN ATOM SHL      SPHERICAL COMPONENTS
     1   H  1s       0.00030

     2   C  1s       0.00001
     2   C  2s       0.00887
     2   C  2p       0.03691    0.84085    0.00000

     3   C  1s       0.00000
     3   C  2s       0.00007
     3   C  2p       0.00000    0.00227    0.00015

     4   C  1s       0.00000
     4   C  2s       0.00007
     4   C  2p       0.00000    0.00227    0.00015

     5   H  1s       0.00465

     6   H  1s       0.00465

     7   H  1s       0.01214

     8   H  1s       0.01214

     9   H  1s       0.03725

    10   H  1s       0.03725

 Summary of localized orbital composition:   [THRPRINT= 0.020]

   ORB  GRP  ORB.ENERGY      CENTERS/CHARGES
     1   1    -9.959999      C  4   2.000
     2   1    -9.959999      C  3   2.000
     3   1    -9.938439      C  2   2.000
     4   1    -0.554831      C  3   1.011   C  2   0.982
     5   1    -0.554831      C  4   1.011   C  2   0.982
     6   1    -0.490269      C  2   1.117   H  1   0.873
     7   1    -0.477228      C  3   1.129   H  9   0.826   C  2   0.042
     8   1    -0.477228      C  4   1.129   H 10   0.826   C  2   0.042
     9   1    -0.475622      C  3   1.134   H  5   0.852
    10   1    -0.475622      C  4   1.134   H  6   0.852
    11   1    -0.474054      C  4   1.131   H  8   0.849   (other: 0.020)
    12   1    -0.474054      C  3   1.131   H  7   0.849   (other: 0.020)
    13   2    -0.011814      C  2   0.887   H 10   0.037   H  9   0.037   (other: 0.039)

 Localized orbitals saved to record      2100.2  (orbital set 2)


 **********************************************************************************************************************************
 DATASETS  * FILE   NREC   LENGTH (MB)   RECORD NAMES
              1      20       31.31       500      610      700      900      950      970     1000      129      960     1100   
                                          VAR    BASINP    GEOM    SYMINP    ZMAT    AOBASIS   BASIS     P2S    ABASIS      S 
                                         1400     1410     1200     1210     1080     1600     1650     1300     1700     1800   
                                           T        V       H0       H01     AOSYM     SMH    MOLCAS    ERIS     OPER     GRID   

              2       5        2.92       700     1000      520     1800     2100   
                                         GEOM     BASIS   MCVARS    GRID      RKS  

 PROGRAMS   *        TOTAL      IBBA        KS       INT
 CPU TIMES  *         4.09      0.04      3.67      0.23
 REAL TIME  *         4.51 SEC
 DISK USED  *        35.29 MB      
 **********************************************************************************************************************************
 Molecular orbitals read from record     2100.2  Type=RKS/LOCAL(IBO)  
 Occupation numbers read from record     2100.2  Type=RKS/LOCAL(IBO)  
 Orbital energies read from record       2100.2  Type=RKS/LOCAL(IBO)  
 Redundancy group numbers read from rec  2100.2  Type=RKS/LOCAL(IBO)  

 IBBA/STO-3G energy=      0.000000000000

        KS-SCF  
   -117.05293514
 **********************************************************************************************************************************
 Molpro calculation terminated
