
 Primary working directories    : /tmp/sb13343
 Secondary working directories  : /tmp/sb13343
 Wavefunction directory         : /panfs/panasas01/chem/sb13343/wfu/
 Main file repository           : /tmp/sb13343/

 SHA1      : b4a5b34a9e711420743f49e6833241d17c61fb3c
 NAME      : 2099.9.b4a5b34
 ARCHNAME  : linux/x86_64_openmp
 FC        : /cm/shared/languages/GCC-6.1/bin/gfortran
 BLASLIB   : -lblas
 id        : simonbennie

 Nodes     nprocs
 node32-018    1

 Using customized tuning parameters: mindgm=1; mindgv=20; mindgc=4; mindgr=1; noblas=0; minvec=7
 default implementation of scratch files=df  

 memory,500,m
 geomtyp=xyz
 nosym
 noorient
 geometry={
 H         -1.57413        0.33845        0.00000
 C         -0.49500        0.20144        0.00000
 C          0.18857       -0.05954       -1.30114
 C          0.18857       -0.05954        1.30114
 H         -0.33790        0.40751       -2.14134
 H         -0.33790        0.40751        2.14134
 H          1.22176        0.31596       -1.29638
 H          1.22176        0.31596        1.29638
 H          0.25678       -1.13976       -1.52896
 H          0.25678       -1.13976        1.52896
 }
 basis={ default,sto-3g }
 {uks,B-P,direct;wf,25,1,1}
 {ibba,bonds=1}

 Variables initialized (895), CPU time= 0.01 sec
 Commands  initialized (725), CPU time= 0.01 sec, 591 directives.
 Default parameters read. Elapsed time= 0.07 sec

 Checking input...
 Passed
1


                                         ***  PROGRAM SYSTEM MOLPRO  ***
                                       Copyright, TTI GmbH Stuttgart, 2015
                                    Version 2099.9 linked May 26 2017 16:03:21


 **********************************************************************************************************************************
 LABEL *                                                                                 
  64 bit serial version                                                                  DATE: 08-Jun-17          TIME: 15:01:37  
 **********************************************************************************************************************************

 SHA1:             b4a5b34a9e711420743f49e6833241d17c61fb3c
 **********************************************************************************************************************************
 SETTING GEOMTYP        =    XYZ

 Variable memory set to  500000000 words,  buffer space 

 ZSYMEL=NOSYM

 SETTING BASIS          =    STO-3G


 Recomputing integrals since basis changed


 Using spherical harmonics

 Library entry H      S STO-3G               selected for orbital group  1
 Library entry C      S STO-3G               selected for orbital group  2
 Library entry C      P STO-3G               selected for orbital group  2


 PROGRAM * SEWARD (Integral evaluation for generally contracted gaussian basis sets)     Author: Roland Lindh, 1990

 Geometry written to block  1 of record 700


 Point group  C1  



 ATOMIC COORDINATES

 NR  ATOM    CHARGE       X              Y              Z

   1  H       1.00   -2.974674584    0.639577807    0.000000000
   2  C       6.00   -0.935414432    0.380666431    0.000000000
   3  C       6.00    0.356345655   -0.112514293   -2.458798250
   4  C       6.00    0.356345655   -0.112514293    2.458798250
   5  H       1.00   -0.638538457    0.770082293   -4.046546140
   6  H       1.00   -0.638538457    0.770082293    4.046546140
   7  H       1.00    2.308791790    0.597077866   -2.449803153
   8  H       1.00    2.308791790    0.597077866    2.449803153
   9  H       1.00    0.485243874   -2.153834248   -2.889315655
  10  H       1.00    0.485243874   -2.153834248    2.889315655

 Bond lengths in Bohr (Angstrom)

 1-2  2.055630578  2-3  2.820914777  2-4  2.820914777  3-5  2.071162595  3-7  2.077413742
     ( 1.087792856)     ( 1.492763814)     ( 1.492763814)     ( 1.096012045)     ( 1.099320010)

  3- 9  2.090202656   4- 6  2.071162595   4- 8  2.077413742   4-10  2.090202656
       ( 1.106087612)       ( 1.096012045)       ( 1.099320010)       ( 1.106087612)

 Bond angles

  1-2-3  118.44375943   1-2-4  118.44375943   2-3-5  111.94558337   2-3-7  111.52358867

  2- 3- 9  112.24140213   2- 4- 6  111.94558337   2- 4- 8  111.52358867   2- 4-10  112.24140213

  3-2-4  121.29758064   5-3-7  108.01204745   5-3-9  106.73207413   6-4-8  108.01204745

  6- 4-10  106.73207413   7- 3- 9  106.05262855   8- 4-10  106.05262855

 NUCLEAR CHARGE:                   25
 NUMBER OF PRIMITIVE AOS:          66
 NUMBER OF SYMMETRY AOS:           66
 NUMBER OF CONTRACTIONS:           22   (  22A   )
 NUMBER OF CORE ORBITALS:           3   (   3A   )
 NUMBER OF VALENCE ORBITALS:       19   (  19A   )


 NUCLEAR REPULSION ENERGY   75.20704826


 Eigenvalues of metric

         1 0.213E+00 0.225E+00 0.288E+00 0.342E+00 0.359E+00 0.374E+00 0.380E+00 0.402E+00


 Contracted 2-electron integrals neglected if value below      1.0D-11
 AO integral compression algorithm  1   Integral accuracy      1.0D-11

     0.524 MB (compressed) written to integral file ( 89.6%)


 NUMBER OF SORTED TWO-ELECTRON INTEGRALS:      32131.     BUFFER LENGTH:  32768
 NUMBER OF SEGMENTS:   1  SEGMENT LENGTH:      32131      RECORD LENGTH: 524288

 Memory used in sort:       0.59 MW

 SORT1 READ       38209. AND WROTE       30689. INTEGRALS IN      1 RECORDS. CPU TIME:     0.00 SEC, REAL TIME:     0.01 SEC
 SORT2 READ       30689. AND WROTE       32131. INTEGRALS IN      2 RECORDS. CPU TIME:     0.01 SEC, REAL TIME:     0.01 SEC

 FILE SIZES:   FILE 1:    30.6 MBYTE,  FILE 4:     4.2 MBYTE,   TOTAL:     34.9 MBYTE

 OPERATOR DM      FOR CENTER  0  COORDINATES:    0.000000    0.000000    0.000000


 **********************************************************************************************************************************
 DATASETS  * FILE   NREC   LENGTH (MB)   RECORD NAMES
              1      19       30.27       500      610      700      900      950      970     1000      129      960     1100   
                                          VAR    BASINP    GEOM    SYMINP    ZMAT    AOBASIS   BASIS     P2S    ABASIS      S 
                                         1400     1410     1200     1210     1080     1600     1650     1300     1700   
                                           T        V       H0       H01     AOSYM     SMH    MOLCAS    ERIS     OPER   

 PROGRAMS   *        TOTAL       INT
 CPU TIMES  *         0.40      0.26
 REAL TIME  *         0.70 SEC
 DISK USED  *        35.29 MB      
 **********************************************************************************************************************************

 Density functional group B-P=B88+P86
 Functional: B88(Automatically generated (new) B88)                            Gradient terms: 1
 Functional: P86(Automatically generated (new) P86)                            Gradient terms: 1
 Use grid at  1800.2

 Functional: B88                       Factor:  1.0000
 Functional: P86                       Factor:  1.0000

 Generated new metagrid on record  1800.2 with target accuracy 1.0D-06 and 32470 points in CPU time    0.8
 Computed new grid on record 1800.1 in CPU time    0.8
   21722 words reserved for DFT integration

 PROGRAM * UKS-SCF (Unrestricted Kohn-Sham)     Authors: W. Meyer, H.-J. Werner, P.J. Knowles, 1993

 NUMBER OF ELECTRONS:      13+   12-    SPACE SYMMETRY=1    SPIN SYMMETRY: Doublet 
 CONVERGENCE THRESHOLDS:    1.00E-05 (Density)    1.00E-06 (Energy)
 MAX. NUMBER OF ITERATIONS:       60
 INTERPOLATION TYPE:            DIIS
 INTERPOLATION STEPS:              2 (START)      1 (STEP)
 LEVEL SHIFTS:                 -0.20 (ALPHA)  -0.20 (BETA) 



 Use fine grid record 1800.2 for energy threshold  1.0D-06
 Orbital guess generated from atomic densities. Full valence occupancy:   13

 Molecular orbital dump at record        2200.2

 Initial alpha occupation  13
 Initial beta  occupation  12

 ITERATION    DDIFF          GRAD             ENERGY        2-EL.EN.            DIPOLE MOMENTS         DIIS
    1      0.000D+00      0.000D+00      -116.88840358    271.635419    0.22364   -0.32809    0.00000    0
    2      0.656D-01      0.218D-01      -117.04618297    262.911554    0.06459   -0.07532    0.00000    1
    3      0.113D-01      0.476D-02      -117.05325042    264.260912    0.05223   -0.08305    0.00000    2
    4      0.166D-02      0.872D-03      -117.05380016    264.237752    0.04456   -0.07800    0.00000    3
    5      0.996D-03      0.547D-03      -117.05399181    264.239635    0.03786   -0.07190    0.00000    4
    6      0.325D-03      0.115D-03      -117.05400402    264.236658    0.03702   -0.07099    0.00000    5
    7      0.379D-04      0.141D-04      -117.05400419    264.236435    0.03706   -0.07095    0.00000    6
    8      0.614D-05      0.298D-05      -117.05400420    264.236460    0.03703   -0.07094    0.00000    5
    9      0.107D-05      0.601D-06      -117.05400420    264.236415    0.03704   -0.07094    0.00000    6

 Final alpha occupancy:  13
 Final beta  occupancy:  12

 !UKS STATE 1.1 Energy               -117.054004201753
 Nuclear energy                        75.20704826
 One-electron energy                 -305.46688823
 Two-electron energy                  132.11820732
 Density functional                   -18.91237155     B88=-18.03735337 P86= -0.87501818
 Virial quotient                       -1.01556906
 !UKS STATE 1.1 Dipole moment           0.03704322    -0.07094159     0.00000000
 Dipole moment /Debye                   0.09414830    -0.18030373     0.00000000

 Orbital energies for positive spin:

         1.1          2.1          3.1          4.1          5.1          6.1          7.1          8.1          9.1         10.1
     -9.727661    -9.727657    -9.699480    -0.666410    -0.587458    -0.474715    -0.365069    -0.341893    -0.323349    -0.304006

        11.1         12.1         13.1         14.1         15.1
     -0.268840    -0.262907    -0.074041     0.334246     0.364343

 Orbital energies for negative spin:

         1.1          2.1          3.1          4.1          5.1          6.1          7.1          8.1          9.1         10.1
     -9.728632    -9.728626    -9.684974    -0.650390    -0.585828    -0.454640    -0.359830    -0.329523    -0.318779    -0.300634

        11.1         12.1         13.1         14.1         15.1
     -0.263534    -0.257496     0.037825     0.338350     0.388670

 HOMO     13.1    -0.074041 =      -2.0147eV
 LUMO    -13.1     0.037825 =       1.0293eV
 LUMO-HOMO         0.111866 =       3.0440eV

 EXPECTATION VALUE OF S**2:             0.75371289

 Occupation number threshold for canonical orbitals:  1.999000 (occupied),  0.001000 (virtual)

 Number of pseudo-canonical orbitals per symmetry:   12
 Number of active natural orbitals per symmetry:      1

 Natural orbitals saved to record    2200.2 (Orbital set 3)

 Orbital spaces for UNO-CAS (Min. occupation: 0.020  Max. occupation: 1.980):

 Closed:       12
 Active:        1


 **********************************************************************************************************************************
 DATASETS  * FILE   NREC   LENGTH (MB)   RECORD NAMES
              1      20       31.31       500      610      700      900      950      970     1000      129      960     1100   
                                          VAR    BASINP    GEOM    SYMINP    ZMAT    AOBASIS   BASIS     P2S    ABASIS      S 
                                         1400     1410     1200     1210     1080     1600     1650     1300     1700     1800   
                                           T        V       H0       H01     AOSYM     SMH    MOLCAS    ERIS     OPER     GRID   

              2       5        2.93       700     1000      520     1800     2200   
                                         GEOM     BASIS   MCVARS    GRID      UKS  

 PROGRAMS   *        TOTAL       UKS       INT
 CPU TIMES  *         2.90      2.50      0.26
 REAL TIME  *         3.28 SEC
 DISK USED  *        35.29 MB      
 **********************************************************************************************************************************


 PROGRAM * Intrinsic Basis Bonding Analysis (IBBA)          Author: G. Knizia

 Molecular orbitals read from record     2200.2  Type=UKS/ALPHA (state 1.1)
 Fock matrix read from record            2200.2  Type=UKS/TOTAL (state 1.1)
 Orbital energies read from record       2200.2  Type=UKS/ALPHA (state 1.1)
 Density matrix read from record         2200.2  Type=UKS/CHARGE (state 1.1)

 Number of core orbitals:           3 (   3 )
 Number of closed-shell orbitals:   9 (   9 )
 Number of active  orbitals:        1 (   1 )

 Basis set MINAO-AUTO-PP generated.      Number of basis functions:   22 

 Polarized AO type:                A = (O Ot + (1-O)(1-Ot)) P12
 Orthogonalization method:         Symmetric (Loewdin)
 Localization functional:          L = sum[A,i] <i|n_A|i>^4 -> max

 Localization group 1:  12 orbitals, occupancy  2.000
 Iterative localization: IB/PM,    7 iter; Final gradient 0.14E-08

 Bond order analysis:       [THRPRINT= 0.020]

   CEN ATOM   CEN ATOM     WIBERG.BO      RENORM.BO
     1   H  -   2   C       0.951897       0.971022

     2   C  -   3   C       1.143450       1.490573
     2   C  -   4   C       1.143450       1.490573
     2   C  -   1   H       0.951897       0.971022
     2   C  -   9   H       0.057100       0.283902
     2   C  -  10   H       0.057100       0.283902

     3   C  -   2   C       1.143450       1.490573
     3   C  -   5   H       0.953875       0.989467
     3   C  -   7   H       0.940035       0.989938
     3   C  -   9   H       0.887747       0.997307

     4   C  -   2   C       1.143450       1.490573
     4   C  -   6   H       0.953875       0.989467
     4   C  -   8   H       0.940035       0.989938
     4   C  -  10   H       0.887747       0.997307

     5   H  -   3   C       0.953875       0.989467

     6   H  -   4   C       0.953875       0.989467

     7   H  -   3   C       0.940035       0.989938

     8   H  -   4   C       0.940035       0.989938

     9   H  -   3   C       0.887747       0.997307
     9   H  -   2   C       0.057100       0.283902

    10   H  -   4   C       0.887747       0.997307
    10   H  -   2   C       0.057100       0.283902


 Valency analysis:

   CEN ATOM   TOT.VALENCE
     1   H       0.977703
     2   C       3.405789
     3   C       3.944782
     4   C       3.944782
     5   H       0.979489
     6   H       0.979489
     7   H       0.977457
     8   H       0.977457
     9   H       0.964431
    10   H       0.964431
 Localization group 2:   1 orbitals, occupancy  1.000
 Iterative localization: IB/PM,    1 iter; Final gradient 0.00E+00

 Bond order analysis:       [THRPRINT= 0.020]

   CEN ATOM   CEN ATOM     WIBERG.BO      RENORM.BO

     2   C  -   9   H       0.090184       0.500000
     2   C  -  10   H       0.090184       0.500000
     2   C  -   7   H       0.029083       0.500000
     2   C  -   8   H       0.029083       0.500000





     7   H  -   2   C       0.029083       0.500000

     8   H  -   2   C       0.029083       0.500000

     9   H  -   2   C       0.090184       0.500000

    10   H  -   2   C       0.090184       0.500000


 Valency analysis:

   CEN ATOM   TOT.VALENCE
     1   H       0.001210
     2   C       0.296478
     3   C       0.021009
     4   C       0.021009
     5   H       0.013442
     6   H       0.013442
     7   H       0.034880
     8   H       0.034880
     9   H       0.104053
    10   H       0.104053

 Total charge composition:

   CEN ATOM         s          p       ELECTRONS ->P.CHARGE
     1   H       0.85128                 0.85128    0.14872
     2   C       3.04661    3.20182      6.24843   -0.24843
     3   C       2.98629    3.36623      6.35252   -0.35252
     4   C       2.98629    3.36623      6.35252   -0.35252
     5   H       0.86355                 0.86355    0.13645
     6   H       0.86355                 0.86355    0.13645
     7   H       0.86761                 0.86761    0.13239
     8   H       0.86761                 0.86761    0.13239
     9   H       0.86646                 0.86646    0.13354
    10   H       0.86646                 0.86646    0.13354

 Total charge composition, AO contributions:

   CEN ATOM SHL      SPHERICAL COMPONENTS
     1   H  1s       0.85128

     2   C  1s       1.99307
     2   C  2s       1.05354
     2   C  2p       1.12033    1.05930    1.02219

     3   C  1s       1.99186
     3   C  2s       0.99443
     3   C  2p       1.14270    1.14004    1.08349

     4   C  1s       1.99186
     4   C  2s       0.99443
     4   C  2p       1.14270    1.14004    1.08349

     5   H  1s       0.86355

     6   H  1s       0.86355

     7   H  1s       0.86761

     8   H  1s       0.86761

     9   H  1s       0.86646

    10   H  1s       0.86646

 Active orbital charges:

   CEN ATOM         s          p       ELECTRONS ->SPIN.DEN
     1   H       0.00061                 0.00061    0.00061
     2   C       0.00634    0.81266      0.81900    0.81900
     3   C       0.00010    0.01051      0.01062    0.01062
     4   C       0.00010    0.01051      0.01062    0.01062
     5   H       0.00677                 0.00677    0.00677
     6   H       0.00677                 0.00677    0.00677
     7   H       0.01776                 0.01776    0.01776
     8   H       0.01776                 0.01776    0.01776
     9   H       0.05506                 0.05506    0.05506
    10   H       0.05506                 0.05506    0.05506

 Active orbital charges, AO contributions:

   CEN ATOM SHL      SPHERICAL COMPONENTS
     1   H  1s       0.00061

     2   C  1s       0.00001
     2   C  2s       0.00634
     2   C  2p       0.03427    0.77839    0.00000

     3   C  1s       0.00000
     3   C  2s       0.00010
     3   C  2p       0.00011    0.01020    0.00020

     4   C  1s       0.00000
     4   C  2s       0.00010
     4   C  2p       0.00011    0.01020    0.00020

     5   H  1s       0.00677

     6   H  1s       0.00677

     7   H  1s       0.01776

     8   H  1s       0.01776

     9   H  1s       0.05506

    10   H  1s       0.05506

 Summary of localized orbital composition:   [THRPRINT= 0.020]

   ORB  GRP  ORB.ENERGY      CENTERS/CHARGES
     1   1    -9.617978      C  4   2.000
     2   1    -9.617978      C  3   2.000
     3   1    -9.590848      C  2   2.000
     4   1    -0.489053      C  2   1.011   C  3   0.981
     5   1    -0.489053      C  2   1.011   C  4   0.981
     6   1    -0.428286      C  2   1.148   H  1   0.841
     7   1    -0.414138      C  4   1.103   H 10   0.806   C  2   0.086
     8   1    -0.414138      C  3   1.103   H  9   0.806   C  2   0.086
     9   1    -0.411164      C  4   1.130   H  6   0.851
    10   1    -0.411164      C  3   1.130   H  5   0.851
    11   1    -0.409489      C  3   1.121   H  7   0.844   C  2   0.029
    12   1    -0.409489      C  4   1.121   H  8   0.844   C  2   0.029
    13   2    -0.019023      C  2   0.819   H  9   0.055   H 10   0.055   (other: 0.071)

 Localized orbitals saved to record      2200.2  (orbital set 4)


 **********************************************************************************************************************************
 DATASETS  * FILE   NREC   LENGTH (MB)   RECORD NAMES
              1      20       31.31       500      610      700      900      950      970     1000      129      960     1100   
                                          VAR    BASINP    GEOM    SYMINP    ZMAT    AOBASIS   BASIS     P2S    ABASIS      S 
                                         1400     1410     1200     1210     1080     1600     1650     1300     1700     1800   
                                           T        V       H0       H01     AOSYM     SMH    MOLCAS    ERIS     OPER     GRID   

              2       5        2.94       700     1000      520     1800     2200   
                                         GEOM     BASIS   MCVARS    GRID      UKS  

 PROGRAMS   *        TOTAL      IBBA       UKS       INT
 CPU TIMES  *         2.92      0.02      2.50      0.26
 REAL TIME  *         3.37 SEC
 DISK USED  *        35.29 MB      
 **********************************************************************************************************************************
 Molecular orbitals read from record     2200.2  Type=UKS/LOCAL(IBO)  
 Occupation numbers read from record     2200.2  Type=UKS/LOCAL(IBO)  
 Orbital energies read from record       2200.2  Type=UKS/LOCAL(IBO)  
 Redundancy group numbers read from rec  2200.2  Type=UKS/BETA (state 1.1)

 IBBA/STO-3G energy=      0.000000000000

        UKS-SCF 
   -117.05400420
 **********************************************************************************************************************************
 Molpro calculation terminated
