
 Primary working directories    : /tmp/sb13343
 Secondary working directories  : /tmp/sb13343
 Wavefunction directory         : /panfs/panasas01/chem/sb13343/wfu/
 Main file repository           : /tmp/sb13343/

 SHA1      : b4a5b34a9e711420743f49e6833241d17c61fb3c
 NAME      : 2099.9.b4a5b34
 ARCHNAME  : linux/x86_64_openmp
 FC        : /cm/shared/languages/GCC-6.1/bin/gfortran
 BLASLIB   : -lblas
 id        : simonbennie

 Nodes     nprocs
 node32-043    1

 Using customized tuning parameters: mindgm=1; mindgv=20; mindgc=4; mindgr=1; noblas=0; minvec=7
 default implementation of scratch files=df  

 memory,500,m
 geomtyp=xyz
 nosym
 noorient
 geometry={
 H         -1.57413        0.33845        0.00000
 C         -0.49500        0.20144        0.00000
 C          0.18857       -0.05954       -1.30114
 C          0.18857       -0.05954        1.30114
 H         -0.33790        0.40751       -2.14134
 H         -0.33790        0.40751        2.14134
 H          1.22176        0.31596       -1.29638
 H          1.22176        0.31596        1.29638
 H          0.25678       -1.13976       -1.52896
 H          0.25678       -1.13976        1.52896
 }
 basis={ default,svp }
 {ks,B97R,direct;wf,25,1,1}
 {ibba,bonds=1}

 Variables initialized (895), CPU time= 0.01 sec
 Commands  initialized (725), CPU time= 0.01 sec, 591 directives.
 Default parameters read. Elapsed time= 0.08 sec

 Checking input...
 Passed
1


                                         ***  PROGRAM SYSTEM MOLPRO  ***
                                       Copyright, TTI GmbH Stuttgart, 2015
                                    Version 2099.9 linked May 26 2017 16:03:21


 **********************************************************************************************************************************
 LABEL *                                                                                 
  64 bit serial version                                                                  DATE: 08-Jun-17          TIME: 15:21:53  
 **********************************************************************************************************************************

 SHA1:             b4a5b34a9e711420743f49e6833241d17c61fb3c
 **********************************************************************************************************************************
 SETTING GEOMTYP        =    XYZ

 Variable memory set to  500000000 words,  buffer space 

 ZSYMEL=NOSYM

 SETTING BASIS          =    SVP


 Recomputing integrals since basis changed


 Using spherical harmonics

 Library entry H      S def2-SVP             selected for orbital group  1
 Library entry H      P def2-SVP             selected for orbital group  1
 Library entry C      S def2-SVP             selected for orbital group  2
 Library entry C      P def2-SVP             selected for orbital group  2
 Library entry C      D def2-SVP             selected for orbital group  2


 PROGRAM * SEWARD (Integral evaluation for generally contracted gaussian basis sets)     Author: Roland Lindh, 1990

 Geometry written to block  1 of record 700


 Point group  C1  



 ATOMIC COORDINATES

 NR  ATOM    CHARGE       X              Y              Z

   1  H       1.00   -2.974674584    0.639577807    0.000000000
   2  C       6.00   -0.935414432    0.380666431    0.000000000
   3  C       6.00    0.356345655   -0.112514293   -2.458798250
   4  C       6.00    0.356345655   -0.112514293    2.458798250
   5  H       1.00   -0.638538457    0.770082293   -4.046546140
   6  H       1.00   -0.638538457    0.770082293    4.046546140
   7  H       1.00    2.308791790    0.597077866   -2.449803153
   8  H       1.00    2.308791790    0.597077866    2.449803153
   9  H       1.00    0.485243874   -2.153834248   -2.889315655
  10  H       1.00    0.485243874   -2.153834248    2.889315655

 Bond lengths in Bohr (Angstrom)

 1-2  2.055630578  2-3  2.820914777  2-4  2.820914777  3-5  2.071162595  3-7  2.077413742
     ( 1.087792856)     ( 1.492763814)     ( 1.492763814)     ( 1.096012045)     ( 1.099320010)

  3- 9  2.090202656   4- 6  2.071162595   4- 8  2.077413742   4-10  2.090202656
       ( 1.106087612)       ( 1.096012045)       ( 1.099320010)       ( 1.106087612)

 Bond angles

  1-2-3  118.44375943   1-2-4  118.44375943   2-3-5  111.94558337   2-3-7  111.52358867

  2- 3- 9  112.24140213   2- 4- 6  111.94558337   2- 4- 8  111.52358867   2- 4-10  112.24140213

  3-2-4  121.29758064   5-3-7  108.01204745   5-3-9  106.73207413   6-4-8  108.01204745

  6- 4-10  106.73207413   7- 3- 9  106.05262855   8- 4-10  106.05262855

 NUCLEAR CHARGE:                   25
 NUMBER OF PRIMITIVE AOS:         124
 NUMBER OF SYMMETRY AOS:          121
 NUMBER OF CONTRACTIONS:           77   (  77A   )
 NUMBER OF CORE ORBITALS:           3   (   3A   )
 NUMBER OF VALENCE ORBITALS:       19   (  19A   )


 NUCLEAR REPULSION ENERGY   75.20704826


 Eigenvalues of metric

         1 0.402E-02 0.537E-02 0.229E-01 0.265E-01 0.266E-01 0.379E-01 0.436E-01 0.492E-01


 Contracted 2-electron integrals neglected if value below      1.0D-11
 AO integral compression algorithm  1   Integral accuracy      1.0D-11

     19.923 MB (compressed) written to integral file ( 49.4%)


 NUMBER OF SORTED TWO-ELECTRON INTEGRALS:    4510506.     BUFFER LENGTH:  32768
 NUMBER OF SEGMENTS:   1  SEGMENT LENGTH:    4510506      RECORD LENGTH: 524288

 Memory used in sort:       5.07 MW

 SORT1 READ     5074366. AND WROTE     4244391. INTEGRALS IN     13 RECORDS. CPU TIME:     0.06 SEC, REAL TIME:     0.11 SEC
 SORT2 READ     4244391. AND WROTE     4510506. INTEGRALS IN     76 RECORDS. CPU TIME:     0.14 SEC, REAL TIME:     0.17 SEC

 FILE SIZES:   FILE 1:    50.3 MBYTE,  FILE 4:    54.6 MBYTE,   TOTAL:    104.8 MBYTE

 OPERATOR DM      FOR CENTER  0  COORDINATES:    0.000000    0.000000    0.000000


 **********************************************************************************************************************************
 DATASETS  * FILE   NREC   LENGTH (MB)   RECORD NAMES
              1      19       47.44       500      610      700      900      950      970     1000      129      960     1100   
                                          VAR    BASINP    GEOM    SYMINP    ZMAT    AOBASIS   BASIS     P2S    ABASIS      S 
                                         1400     1410     1200     1210     1080     1600     1650     1300     1700   
                                           T        V       H0       H01     AOSYM     SMH    MOLCAS    ERIS     OPER   

 PROGRAMS   *        TOTAL       INT
 CPU TIMES  *         1.03      0.89
 REAL TIME  *         1.45 SEC
 DISK USED  *       105.25 MB      
 **********************************************************************************************************************************

 Density functional group B97R=B97RDF
 Functional: B97RDF(Automatically generated (new) B97RDF)                      Gradient terms: 1
 Use grid at  1800.2


 Exact exchange will be calculated, factor:  0.2100

 Functional: B97RDF                    Factor:  1.0000

 Generated new metagrid on record  1800.2 with target accuracy 1.0D-06 and 32470 points in CPU time    0.7
 Computed new grid on record 1800.1 in CPU time    0.8
   65184 words reserved for DFT integration

 PROGRAM * RKS-SCF (Restricted open shell Kohn-Sham)     Authors: W. Meyer, H.-J. Werner, P.J. Knowles, 1993

 NUMBER OF ELECTRONS:      13+   12-    SPACE SYMMETRY=1    SPIN SYMMETRY: Doublet 
 CONVERGENCE THRESHOLDS:    1.00E-05 (Density)    1.00E-06 (Energy)
 MAX. NUMBER OF ITERATIONS:       60
 INTERPOLATION TYPE:            DIIS
 INTERPOLATION STEPS:              2 (START)      1 (STEP)
 LEVEL SHIFTS:                 -0.60 (CLOSED) -0.30 (OPEN) 



 Use fine grid record 1800.2 for energy threshold  1.0D-06
 Orbital guess generated from atomic densities. Full valence occupancy:   13

 Molecular orbital dump at record        2100.2

 Initial alpha occupancy:  13
 Initial beta  occupancy:  12
 Wave function symmetry:    1

 ITERATION    DDIFF          GRAD             ENERGY        2-EL.EN.            DIPOLE MOMENTS         DIIS   ORB.
    1      0.000D+00      0.000D+00      -118.22802278    263.158355    0.18892   -0.25235    0.00000    0    start
    2      0.000D+00      0.106D-01      -118.33592671    254.143378    0.05425   -0.10438   -0.00000    1    diag,B
    3      0.110D-01      0.306D-02      -118.34347632    255.602533    0.04998   -0.11639   -0.00000    2    diag,B
    4      0.284D-02      0.566D-03      -118.34427039    255.464875    0.03872   -0.10447   -0.00000    3    diag,B
    5      0.138D-02      0.212D-03      -118.34440984    255.435593    0.03575   -0.10123   -0.00000    4    diag,B
    6      0.711D-03      0.610D-04      -118.34442093    255.421244    0.03426   -0.09936   -0.00000    5    diag,B
    7      0.214D-03      0.171D-04      -118.34442184    255.421500    0.03455   -0.09946   -0.00000    6    fixocc
    8      0.650D-04      0.589D-05      -118.34442197    255.421662    0.03464   -0.09950   -0.00000    7    diag,B
    9      0.281D-04      0.163D-05      -118.34442198    255.421648    0.03465   -0.09954   -0.00000    8    diag,B
   10      0.719D-05      0.494D-06      -118.34442198    255.421630    0.03464   -0.09954   -0.00000    0    orth

 Final alpha occupancy:  13
 Final beta  occupancy:  12

 !RKS STATE 1.1 Energy               -118.344421979479
 Nuclear energy                        75.20704826
 One-electron energy                 -306.24864865
 Two-electron energy                  127.71081517
 Density functional                   -15.01363676     B97RDF=-15.01363676
 Virial quotient                       -1.01284956
 !RKS STATE 1.1 Dipole moment           0.03464351    -0.09954347    -0.00000000
 Dipole moment /Debye                   0.08804924    -0.25299769    -0.00000000

 Orbital energies:

         1.1          2.1          3.1          4.1          5.1          6.1          7.1          8.1          9.1         10.1
    -10.189801   -10.189801   -10.188841    -0.766801    -0.683995    -0.554608    -0.448104    -0.417182    -0.405191    -0.381120

        11.1         12.1         13.1         14.1         15.1
     -0.352696    -0.343582    -0.183032     0.075706     0.103819

 HOMO     13.1    -0.183032 =      -4.9806eV
 LUMO     14.1     0.075706 =       2.0601eV
 LUMO-HOMO         0.258738 =       7.0406eV


 **********************************************************************************************************************************
 DATASETS  * FILE   NREC   LENGTH (MB)   RECORD NAMES
              1      20       48.47       500      610      700      900      950      970     1000      129      960     1100   
                                          VAR    BASINP    GEOM    SYMINP    ZMAT    AOBASIS   BASIS     P2S    ABASIS      S 
                                         1400     1410     1200     1210     1080     1600     1650     1300     1700     1800   
                                           T        V       H0       H01     AOSYM     SMH    MOLCAS    ERIS     OPER     GRID   

              2       5        3.08       700     1000      520     1800     2100   
                                         GEOM     BASIS   MCVARS    GRID      RKS  

 PROGRAMS   *        TOTAL        KS       INT
 CPU TIMES  *         7.83      6.80      0.89
 REAL TIME  *         8.74 SEC
 DISK USED  *       105.25 MB      
 **********************************************************************************************************************************


 PROGRAM * Intrinsic Basis Bonding Analysis (IBBA)          Author: G. Knizia

 Molecular orbitals read from record     2100.2  Type=RKS/CANONICAL (state 1.1)
 Fock matrix read from record            2100.2  Type=RKS/TOTAL (state 1.1)
 Orbital energies read from record       2100.2  Type=RKS/CANONICAL (state 1.1)
 Density matrix read from record         2100.2  Type=RKS/CHARGE (state 1.1)

 Number of core orbitals:           3 (   3 )
 Number of closed-shell orbitals:   9 (   9 )
 Number of active  orbitals:        1 (   1 )

 Basis set MINAO-AUTO-PP generated.      Number of basis functions:   22 

 Polarized AO type:                A = (O Ot + (1-O)(1-Ot)) P12
 Orthogonalization method:         Symmetric (Loewdin)
 Localization functional:          L = sum[A,i] <i|n_A|i>^4 -> max

 Localization group 1:  12 orbitals, occupancy  2.000
 Iterative localization: IB/PM,    7 iter; Final gradient 0.14E-08

 Bond order analysis:       [THRPRINT= 0.020]

   CEN ATOM   CEN ATOM     WIBERG.BO      RENORM.BO
     1   H  -   2   C       0.955334       0.968925

     2   C  -   4   C       1.100285       1.495349
     2   C  -   3   C       1.100285       1.495349
     2   C  -   1   H       0.955334       0.968925
     2   C  -   9   H       0.040793       0.306255
     2   C  -  10   H       0.040793       0.306255

     3   C  -   2   C       1.100285       1.495349
     3   C  -   5   H       0.957269       0.989067
     3   C  -   7   H       0.948717       0.988060
     3   C  -   9   H       0.917976       0.998190

     4   C  -   2   C       1.100285       1.495349
     4   C  -   6   H       0.957269       0.989067
     4   C  -   8   H       0.948717       0.988060
     4   C  -  10   H       0.917976       0.998190

     5   H  -   3   C       0.957269       0.989067

     6   H  -   4   C       0.957269       0.989067

     7   H  -   3   C       0.948717       0.988060

     8   H  -   4   C       0.948717       0.988060

     9   H  -   3   C       0.917976       0.998190
     9   H  -   2   C       0.040793       0.306255

    10   H  -   4   C       0.917976       0.998190
    10   H  -   2   C       0.040793       0.306255


 Valency analysis:

   CEN ATOM   TOT.VALENCE
     1   H       0.984226
     2   C       3.275462
     3   C       3.942312
     4   C       3.942312
     5   H       0.979543
     6   H       0.979543
     7   H       0.978670
     8   H       0.978670
     9   H       0.968700
    10   H       0.968700
 Localization group 2:   1 orbitals, occupancy  1.000
 Iterative localization: IB/PM,    1 iter; Final gradient 0.00E+00

 Bond order analysis:       [THRPRINT= 0.020]

   CEN ATOM   CEN ATOM     WIBERG.BO      RENORM.BO

     2   C  -   9   H       0.080456       0.500000
     2   C  -  10   H       0.080456       0.500000
     2   C  -   7   H       0.024981       0.500000
     2   C  -   8   H       0.024981       0.500000





     7   H  -   2   C       0.024981       0.500000

     8   H  -   2   C       0.024981       0.500000

     9   H  -   2   C       0.080456       0.500000

    10   H  -   2   C       0.080456       0.500000


 Valency analysis:

   CEN ATOM   TOT.VALENCE
     1   H       0.000893
     2   C       0.235536
     3   C       0.004148
     4   C       0.004148
     5   H       0.009628
     6   H       0.009628
     7   H       0.028507
     8   H       0.028507
     9   H       0.088820
    10   H       0.088820

 Total charge composition:

   CEN ATOM         s          p       ELECTRONS ->P.CHARGE
     1   H       0.87485                 0.87485    0.12515
     2   C       3.00748    3.12654      6.13401   -0.13401
     3   C       3.01297    3.38271      6.39568   -0.39568
     4   C       3.01297    3.38271      6.39568   -0.39568
     5   H       0.86181                 0.86181    0.13819
     6   H       0.86181                 0.86181    0.13819
     7   H       0.86842                 0.86842    0.13158
     8   H       0.86842                 0.86842    0.13158
     9   H       0.86966                 0.86966    0.13034
    10   H       0.86966                 0.86966    0.13034

 Total charge composition, AO contributions:

   CEN ATOM SHL      SPHERICAL COMPONENTS
     1   H  1s       0.87485

     2   C  1s       1.99233
     2   C  2s       1.01515
     2   C  2p       1.10159    1.02023    1.00472

     3   C  1s       1.99071
     3   C  2s       1.02227
     3   C  2p       1.14012    1.14610    1.09649

     4   C  1s       1.99071
     4   C  2s       1.02227
     4   C  2p       1.14012    1.14610    1.09649

     5   H  1s       0.86181

     6   H  1s       0.86181

     7   H  1s       0.86842

     8   H  1s       0.86842

     9   H  1s       0.86966

    10   H  1s       0.86966

 Active orbital charges:

   CEN ATOM         s          p       ELECTRONS ->SPIN.DEN
     1   H       0.00045                 0.00045    0.00045
     2   C       0.00844    0.85520      0.86364    0.86364
     3   C       0.00011    0.00197      0.00208    0.00208
     4   C       0.00011    0.00197      0.00208    0.00208
     5   H       0.00484                 0.00484    0.00484
     6   H       0.00484                 0.00484    0.00484
     7   H       0.01446                 0.01446    0.01446
     8   H       0.01446                 0.01446    0.01446
     9   H       0.04658                 0.04658    0.04658
    10   H       0.04658                 0.04658    0.04658

 Active orbital charges, AO contributions:

   CEN ATOM SHL      SPHERICAL COMPONENTS
     1   H  1s       0.00045

     2   C  1s       0.00001
     2   C  2s       0.00843
     2   C  2p       0.03443    0.82077    0.00000

     3   C  1s       0.00000
     3   C  2s       0.00011
     3   C  2p       0.00001    0.00187    0.00009

     4   C  1s       0.00000
     4   C  2s       0.00011
     4   C  2p       0.00001    0.00187    0.00009

     5   H  1s       0.00484

     6   H  1s       0.00484

     7   H  1s       0.01446

     8   H  1s       0.01446

     9   H  1s       0.04658

    10   H  1s       0.04658

 Summary of localized orbital composition:   [THRPRINT= 0.020]

   ORB  GRP  ORB.ENERGY      CENTERS/CHARGES
     1   1   -10.088884      C  2   2.000
     2   1   -10.073744      C  3   2.000
     3   1   -10.073744      C  4   2.000
     4   1    -0.597959      C  4   1.007   C  2   0.986
     5   1    -0.597959      C  3   1.007   C  2   0.986
     6   1    -0.514682      C  2   1.123   H  1   0.865
     7   1    -0.498055      C  4   1.121   H 10   0.820   C  2   0.056
     8   1    -0.498055      C  3   1.121   H  9   0.820   C  2   0.056
     9   1    -0.494848      C  4   1.126   H  8   0.849   C  2   0.020
    10   1    -0.494848      C  3   1.126   H  7   0.849   C  2   0.020
    11   1    -0.494473      C  3   1.132   H  5   0.851
    12   1    -0.494473      C  4   1.132   H  6   0.851
    13   2    -0.108066      C  2   0.864   H  9   0.047   H 10   0.047   (other: 0.043)

 Localized orbitals saved to record      2100.2  (orbital set 2)


 **********************************************************************************************************************************
 DATASETS  * FILE   NREC   LENGTH (MB)   RECORD NAMES
              1      20       48.47       500      610      700      900      950      970     1000      129      960     1100   
                                          VAR    BASINP    GEOM    SYMINP    ZMAT    AOBASIS   BASIS     P2S    ABASIS      S 
                                         1400     1410     1200     1210     1080     1600     1650     1300     1700     1800   
                                           T        V       H0       H01     AOSYM     SMH    MOLCAS    ERIS     OPER     GRID   

              2       5        3.13       700     1000      520     1800     2100   
                                         GEOM     BASIS   MCVARS    GRID      RKS  

 PROGRAMS   *        TOTAL      IBBA        KS       INT
 CPU TIMES  *         7.86      0.03      6.80      0.89
 REAL TIME  *         8.83 SEC
 DISK USED  *       105.25 MB      
 **********************************************************************************************************************************
 Molecular orbitals read from record     2100.2  Type=RKS/LOCAL(IBO)  
 Occupation numbers read from record     2100.2  Type=RKS/LOCAL(IBO)  
 Orbital energies read from record       2100.2  Type=RKS/LOCAL(IBO)  
 Redundancy group numbers read from rec  2100.2  Type=RKS/LOCAL(IBO)  

 IBBA/SVP energy=      0.000000000000

        KS-SCF  
   -118.34442198
 **********************************************************************************************************************************
 Molpro calculation terminated
