
 Primary working directories    : /tmp/sb13343
 Secondary working directories  : /tmp/sb13343
 Wavefunction directory         : /panfs/panasas01/chem/sb13343/wfu/
 Main file repository           : /tmp/sb13343/

 SHA1      : b4a5b34a9e711420743f49e6833241d17c61fb3c
 NAME      : 2099.9.b4a5b34
 ARCHNAME  : linux/x86_64_openmp
 FC        : /cm/shared/languages/GCC-6.1/bin/gfortran
 BLASLIB   : -lblas
 id        : simonbennie

 Nodes     nprocs
 node32-043    1

 Using customized tuning parameters: mindgm=1; mindgv=20; mindgc=4; mindgr=1; noblas=0; minvec=7
 default implementation of scratch files=df  

 memory,500,m
 geomtyp=xyz
 nosym
 noorient
 geometry={
 H         -1.57413        0.33845        0.00000
 C         -0.49500        0.20144        0.00000
 C          0.18857       -0.05954       -1.30114
 C          0.18857       -0.05954        1.30114
 H         -0.33790        0.40751       -2.14134
 H         -0.33790        0.40751        2.14134
 H          1.22176        0.31596       -1.29638
 H          1.22176        0.31596        1.29638
 H          0.25678       -1.13976       -1.52896
 H          0.25678       -1.13976        1.52896
 }
 basis={ default,svp }
 {ks,MM06,direct;wf,25,1,1}
 {ibba,bonds=1}

 Variables initialized (895), CPU time= 0.00 sec
 Commands  initialized (725), CPU time= 0.01 sec, 591 directives.
 Default parameters read. Elapsed time= 0.08 sec

 Checking input...
 Passed
1


                                         ***  PROGRAM SYSTEM MOLPRO  ***
                                       Copyright, TTI GmbH Stuttgart, 2015
                                    Version 2099.9 linked May 26 2017 16:03:21


 **********************************************************************************************************************************
 LABEL *                                                                                 
  64 bit serial version                                                                  DATE: 08-Jun-17          TIME: 15:26:09  
 **********************************************************************************************************************************

 SHA1:             b4a5b34a9e711420743f49e6833241d17c61fb3c
 **********************************************************************************************************************************
 SETTING GEOMTYP        =    XYZ

 Variable memory set to  500000000 words,  buffer space 

 ZSYMEL=NOSYM

 SETTING BASIS          =    SVP


 Recomputing integrals since basis changed


 Using spherical harmonics

 Library entry H      S def2-SVP             selected for orbital group  1
 Library entry H      P def2-SVP             selected for orbital group  1
 Library entry C      S def2-SVP             selected for orbital group  2
 Library entry C      P def2-SVP             selected for orbital group  2
 Library entry C      D def2-SVP             selected for orbital group  2


 PROGRAM * SEWARD (Integral evaluation for generally contracted gaussian basis sets)     Author: Roland Lindh, 1990

 Geometry written to block  1 of record 700


 Point group  C1  



 ATOMIC COORDINATES

 NR  ATOM    CHARGE       X              Y              Z

   1  H       1.00   -2.974674584    0.639577807    0.000000000
   2  C       6.00   -0.935414432    0.380666431    0.000000000
   3  C       6.00    0.356345655   -0.112514293   -2.458798250
   4  C       6.00    0.356345655   -0.112514293    2.458798250
   5  H       1.00   -0.638538457    0.770082293   -4.046546140
   6  H       1.00   -0.638538457    0.770082293    4.046546140
   7  H       1.00    2.308791790    0.597077866   -2.449803153
   8  H       1.00    2.308791790    0.597077866    2.449803153
   9  H       1.00    0.485243874   -2.153834248   -2.889315655
  10  H       1.00    0.485243874   -2.153834248    2.889315655

 Bond lengths in Bohr (Angstrom)

 1-2  2.055630578  2-3  2.820914777  2-4  2.820914777  3-5  2.071162595  3-7  2.077413742
     ( 1.087792856)     ( 1.492763814)     ( 1.492763814)     ( 1.096012045)     ( 1.099320010)

  3- 9  2.090202656   4- 6  2.071162595   4- 8  2.077413742   4-10  2.090202656
       ( 1.106087612)       ( 1.096012045)       ( 1.099320010)       ( 1.106087612)

 Bond angles

  1-2-3  118.44375943   1-2-4  118.44375943   2-3-5  111.94558337   2-3-7  111.52358867

  2- 3- 9  112.24140213   2- 4- 6  111.94558337   2- 4- 8  111.52358867   2- 4-10  112.24140213

  3-2-4  121.29758064   5-3-7  108.01204745   5-3-9  106.73207413   6-4-8  108.01204745

  6- 4-10  106.73207413   7- 3- 9  106.05262855   8- 4-10  106.05262855

 NUCLEAR CHARGE:                   25
 NUMBER OF PRIMITIVE AOS:         124
 NUMBER OF SYMMETRY AOS:          121
 NUMBER OF CONTRACTIONS:           77   (  77A   )
 NUMBER OF CORE ORBITALS:           3   (   3A   )
 NUMBER OF VALENCE ORBITALS:       19   (  19A   )


 NUCLEAR REPULSION ENERGY   75.20704826


 Eigenvalues of metric

         1 0.402E-02 0.537E-02 0.229E-01 0.265E-01 0.266E-01 0.379E-01 0.436E-01 0.492E-01


 Contracted 2-electron integrals neglected if value below      1.0D-11
 AO integral compression algorithm  1   Integral accuracy      1.0D-11

     19.923 MB (compressed) written to integral file ( 49.4%)


 NUMBER OF SORTED TWO-ELECTRON INTEGRALS:    4510506.     BUFFER LENGTH:  32768
 NUMBER OF SEGMENTS:   1  SEGMENT LENGTH:    4510506      RECORD LENGTH: 524288

 Memory used in sort:       5.07 MW

 SORT1 READ     5074366. AND WROTE     4244391. INTEGRALS IN     13 RECORDS. CPU TIME:     0.06 SEC, REAL TIME:     0.11 SEC
 SORT2 READ     4244391. AND WROTE     4510506. INTEGRALS IN     76 RECORDS. CPU TIME:     0.14 SEC, REAL TIME:     0.18 SEC

 FILE SIZES:   FILE 1:    50.3 MBYTE,  FILE 4:    54.6 MBYTE,   TOTAL:    104.8 MBYTE

 OPERATOR DM      FOR CENTER  0  COORDINATES:    0.000000    0.000000    0.000000


 **********************************************************************************************************************************
 DATASETS  * FILE   NREC   LENGTH (MB)   RECORD NAMES
              1      19       47.44       500      610      700      900      950      970     1000      129      960     1100   
                                          VAR    BASINP    GEOM    SYMINP    ZMAT    AOBASIS   BASIS     P2S    ABASIS      S 
                                         1400     1410     1200     1210     1080     1600     1650     1300     1700   
                                           T        V       H0       H01     AOSYM     SMH    MOLCAS    ERIS     OPER   

 PROGRAMS   *        TOTAL       INT
 CPU TIMES  *         1.04      0.90
 REAL TIME  *         1.45 SEC
 DISK USED  *       105.25 MB      
 **********************************************************************************************************************************

 Density functional group MM06=M06X+M06C
 Functional: M06X(Automatically generated (new) M06X)                          Gradient terms: 2
 Functional: M06C(Automatically generated (new) M06C)                          Gradient terms: 2
 Use grid at  1800.2


 Exact exchange will be calculated, factor:  0.2700

 Functional: M06X                      Factor:  0.7300
 Functional: M06C                      Factor:  1.0000

 Generated new metagrid on record  1800.2 with target accuracy 1.0D-06 and 32470 points in CPU time    0.7
 Computed new grid on record 1800.1 in CPU time    0.8
  123858 words reserved for DFT integration

 PROGRAM * RKS-SCF (Restricted open shell Kohn-Sham)     Authors: W. Meyer, H.-J. Werner, P.J. Knowles, 1993

 NUMBER OF ELECTRONS:      13+   12-    SPACE SYMMETRY=1    SPIN SYMMETRY: Doublet 
 CONVERGENCE THRESHOLDS:    1.00E-05 (Density)    1.00E-06 (Energy)
 MAX. NUMBER OF ITERATIONS:       60
 INTERPOLATION TYPE:            DIIS
 INTERPOLATION STEPS:              2 (START)      1 (STEP)
 LEVEL SHIFTS:                 -0.60 (CLOSED) -0.30 (OPEN) 



 Use fine grid record 1800.2 for energy threshold  1.0D-06
 Orbital guess generated from atomic densities. Full valence occupancy:   13

 Molecular orbital dump at record        2100.2

 Initial alpha occupancy:  13
 Initial beta  occupancy:  12
 Wave function symmetry:    1

 ITERATION    DDIFF          GRAD             ENERGY        2-EL.EN.            DIPOLE MOMENTS         DIIS   ORB.
    1      0.000D+00      0.000D+00      -114.73293037    256.960096    0.17493   -0.24453    0.00000    0    start
    2      0.000D+00      0.863D-02      -114.80398523    249.581405    0.04611   -0.10667   -0.00000    1    diag,B
    3      0.870D-02      0.275D-02      -114.81017030    250.912584    0.04465   -0.11489   -0.00000    2    diag,B
    4      0.249D-02      0.491D-03      -114.81081355    250.768333    0.03221   -0.10213   -0.00000    3    diag,B
    5      0.125D-02      0.193D-03      -114.81093449    250.740480    0.02848   -0.09868   -0.00000    4    diag,B
    6      0.645D-03      0.595D-04      -114.81094659    250.724295    0.02656   -0.09678   -0.00000    5    diag,B
    7      0.217D-03      0.184D-04      -114.81094781    250.724993    0.02674   -0.09692   -0.00000    6    fixocc
    8      0.715D-04      0.689D-05      -114.81094804    250.725439    0.02674   -0.09695   -0.00000    7    diag,B
    9      0.388D-04      0.186D-05      -114.81094806    250.725441    0.02672   -0.09697   -0.00000    8    diag,B
   10      0.904D-05      0.607D-06      -114.81094806    250.725414    0.02670   -0.09696   -0.00000    0    orth

 Final alpha occupancy:  13
 Final beta  occupancy:  12

 !RKS STATE 1.1 Energy               -114.810948059848
 Nuclear energy                        75.20704826
 One-electron energy                 -305.10562487
 Two-electron energy                  125.36270715
 Density functional                   -10.27507860     M06X=-12.77904889 M06C= -0.94637291
 Virial quotient                       -0.99484018
 !RKS STATE 1.1 Dipole moment           0.02670190    -0.09695916    -0.00000000
 Dipole moment /Debye                   0.06786501    -0.24642945    -0.00000000

 Orbital energies:

         1.1          2.1          3.1          4.1          5.1          6.1          7.1          8.1          9.1         10.1
     -9.905511    -9.905482    -9.903621    -0.709089    -0.625273    -0.497046    -0.399839    -0.369692    -0.356682    -0.330309

        11.1         12.1         13.1         14.1         15.1
     -0.302806    -0.291855    -0.127996     0.101185     0.130979

 HOMO     13.1    -0.127996 =      -3.4830eV
 LUMO     14.1     0.101185 =       2.7534eV
 LUMO-HOMO         0.229182 =       6.2363eV


 **********************************************************************************************************************************
 DATASETS  * FILE   NREC   LENGTH (MB)   RECORD NAMES
              1      20       48.47       500      610      700      900      950      970     1000      129      960     1100   
                                          VAR    BASINP    GEOM    SYMINP    ZMAT    AOBASIS   BASIS     P2S    ABASIS      S 
                                         1400     1410     1200     1210     1080     1600     1650     1300     1700     1800   
                                           T        V       H0       H01     AOSYM     SMH    MOLCAS    ERIS     OPER     GRID   

              2       5        3.08       700     1000      520     1800     2100   
                                         GEOM     BASIS   MCVARS    GRID      RKS  

 PROGRAMS   *        TOTAL        KS       INT
 CPU TIMES  *        26.61     25.57      0.90
 REAL TIME  *        27.19 SEC
 DISK USED  *       105.25 MB      
 **********************************************************************************************************************************


 PROGRAM * Intrinsic Basis Bonding Analysis (IBBA)          Author: G. Knizia

 Molecular orbitals read from record     2100.2  Type=RKS/CANONICAL (state 1.1)
 Fock matrix read from record            2100.2  Type=RKS/TOTAL (state 1.1)
 Orbital energies read from record       2100.2  Type=RKS/CANONICAL (state 1.1)
 Density matrix read from record         2100.2  Type=RKS/CHARGE (state 1.1)

 Number of core orbitals:           3 (   3 )
 Number of closed-shell orbitals:   9 (   9 )
 Number of active  orbitals:        1 (   1 )

 Basis set MINAO-AUTO-PP generated.      Number of basis functions:   22 

 Polarized AO type:                A = (O Ot + (1-O)(1-Ot)) P12
 Orthogonalization method:         Symmetric (Loewdin)
 Localization functional:          L = sum[A,i] <i|n_A|i>^4 -> max

 Localization group 1:  12 orbitals, occupancy  2.000
 Iterative localization: IB/PM,    7 iter; Final gradient 0.52E-08

 Bond order analysis:       [THRPRINT= 0.020]

   CEN ATOM   CEN ATOM     WIBERG.BO      RENORM.BO
     1   H  -   2   C       0.956532       0.966660

     2   C  -   4   C       1.111231       1.494381
     2   C  -   3   C       1.111231       1.494381
     2   C  -   1   H       0.956532       0.966660
     2   C  -   9   H       0.046053       0.297328
     2   C  -  10   H       0.046053       0.297328

     3   C  -   2   C       1.111231       1.494381
     3   C  -   5   H       0.957245       0.988103
     3   C  -   7   H       0.946839       0.986391
     3   C  -   9   H       0.912037       0.997982

     4   C  -   2   C       1.111231       1.494381
     4   C  -   6   H       0.957245       0.988103
     4   C  -   8   H       0.946839       0.986391
     4   C  -  10   H       0.912037       0.997982

     5   H  -   3   C       0.957245       0.988103

     6   H  -   4   C       0.957245       0.988103

     7   H  -   3   C       0.946839       0.986391

     8   H  -   4   C       0.946839       0.986391

     9   H  -   3   C       0.912037       0.997982
     9   H  -   2   C       0.046053       0.297328

    10   H  -   4   C       0.912037       0.997982
    10   H  -   2   C       0.046053       0.297328


 Valency analysis:

   CEN ATOM   TOT.VALENCE
     1   H       0.988862
     2   C       3.316197
     3   C       3.948163
     4   C       3.948163
     5   H       0.983304
     6   H       0.983304
     7   H       0.982417
     8   H       0.982417
     9   H       0.971369
    10   H       0.971369
 Localization group 2:   1 orbitals, occupancy  1.000
 Iterative localization: IB/PM,    1 iter; Final gradient 0.00E+00

 Bond order analysis:       [THRPRINT= 0.020]

   CEN ATOM   CEN ATOM     WIBERG.BO      RENORM.BO

     2   C  -   9   H       0.089197       0.500000
     2   C  -  10   H       0.089197       0.500000
     2   C  -   7   H       0.028636       0.500000
     2   C  -   8   H       0.028636       0.500000





     7   H  -   2   C       0.028636       0.500000

     8   H  -   2   C       0.028636       0.500000

     9   H  -   2   C       0.089197       0.500000

    10   H  -   2   C       0.089197       0.500000


 Valency analysis:

   CEN ATOM   TOT.VALENCE
     1   H       0.000700
     2   C       0.262714
     3   C       0.004388
     4   C       0.004388
     5   H       0.011203
     6   H       0.011203
     7   H       0.033336
     8   H       0.033336
     9   H       0.100049
    10   H       0.100049

 Total charge composition:

   CEN ATOM         s          p       ELECTRONS ->P.CHARGE
     1   H       0.89482                 0.89482    0.10518
     2   C       2.97852    3.13208      6.11060   -0.11060
     3   C       2.98149    3.37142      6.35291   -0.35291
     4   C       2.98149    3.37142      6.35291   -0.35291
     5   H       0.87642                 0.87642    0.12358
     6   H       0.87642                 0.87642    0.12358
     7   H       0.88435                 0.88435    0.11565
     8   H       0.88435                 0.88435    0.11565
     9   H       0.88361                 0.88361    0.11639
    10   H       0.88361                 0.88361    0.11639

 Total charge composition, AO contributions:

   CEN ATOM SHL      SPHERICAL COMPONENTS
     1   H  1s       0.89482

     2   C  1s       1.99370
     2   C  2s       0.98482
     2   C  2p       1.09518    1.02504    1.01186

     3   C  1s       1.99237
     3   C  2s       0.98912
     3   C  2p       1.13344    1.13787    1.10011

     4   C  1s       1.99237
     4   C  2s       0.98912
     4   C  2p       1.13344    1.13787    1.10011

     5   H  1s       0.87642

     6   H  1s       0.87642

     7   H  1s       0.88435

     8   H  1s       0.88435

     9   H  1s       0.88361

    10   H  1s       0.88361

 Active orbital charges:

   CEN ATOM         s          p       ELECTRONS ->SPIN.DEN
     1   H       0.00035                 0.00035    0.00035
     2   C       0.00786    0.83659      0.84445    0.84445
     3   C       0.00009    0.00211      0.00220    0.00220
     4   C       0.00009    0.00211      0.00220    0.00220
     5   H       0.00563                 0.00563    0.00563
     6   H       0.00563                 0.00563    0.00563
     7   H       0.01696                 0.01696    0.01696
     8   H       0.01696                 0.01696    0.01696
     9   H       0.05281                 0.05281    0.05281
    10   H       0.05281                 0.05281    0.05281

 Active orbital charges, AO contributions:

   CEN ATOM SHL      SPHERICAL COMPONENTS
     1   H  1s       0.00035

     2   C  1s       0.00000
     2   C  2s       0.00785
     2   C  2p       0.03327    0.80332    0.00000

     3   C  1s       0.00000
     3   C  2s       0.00009
     3   C  2p       0.00001    0.00206    0.00004

     4   C  1s       0.00000
     4   C  2s       0.00009
     4   C  2p       0.00001    0.00206    0.00004

     5   H  1s       0.00563

     6   H  1s       0.00563

     7   H  1s       0.01696

     8   H  1s       0.01696

     9   H  1s       0.05281

    10   H  1s       0.05281

 Summary of localized orbital composition:   [THRPRINT= 0.020]

   ORB  GRP  ORB.ENERGY      CENTERS/CHARGES
     1   1    -9.809426      C  2   2.000
     2   1    -9.797021      C  4   2.000
     3   1    -9.797021      C  3   2.000
     4   1    -0.546204      C  4   1.010   C  2   0.982
     5   1    -0.546204      C  3   1.010   C  2   0.982
     6   1    -0.455648      C  2   1.102   H  1   0.884
     7   1    -0.443844      C  3   1.107   H  9   0.826   C  2   0.064
     8   1    -0.443844      C  4   1.107   H 10   0.826   C  2   0.064
     9   1    -0.440347      C  4   1.109   H  8   0.861   C  2   0.023
    10   1    -0.440347      C  3   1.109   H  7   0.861   C  2   0.023
    11   1    -0.438653      C  3   1.117   H  5   0.864
    12   1    -0.438653      C  4   1.117   H  6   0.864
    13   2    -0.057559      C  2   0.844   H  9   0.053   H 10   0.053   (other: 0.050)

 Localized orbitals saved to record      2100.2  (orbital set 2)


 **********************************************************************************************************************************
 DATASETS  * FILE   NREC   LENGTH (MB)   RECORD NAMES
              1      20       48.47       500      610      700      900      950      970     1000      129      960     1100   
                                          VAR    BASINP    GEOM    SYMINP    ZMAT    AOBASIS   BASIS     P2S    ABASIS      S 
                                         1400     1410     1200     1210     1080     1600     1650     1300     1700     1800   
                                           T        V       H0       H01     AOSYM     SMH    MOLCAS    ERIS     OPER     GRID   

              2       5        3.13       700     1000      520     1800     2100   
                                         GEOM     BASIS   MCVARS    GRID      RKS  

 PROGRAMS   *        TOTAL      IBBA        KS       INT
 CPU TIMES  *        26.63      0.02     25.57      0.90
 REAL TIME  *        27.28 SEC
 DISK USED  *       105.25 MB      
 **********************************************************************************************************************************
 Molecular orbitals read from record     2100.2  Type=RKS/LOCAL(IBO)  
 Occupation numbers read from record     2100.2  Type=RKS/LOCAL(IBO)  
 Orbital energies read from record       2100.2  Type=RKS/LOCAL(IBO)  
 Redundancy group numbers read from rec  2100.2  Type=RKS/LOCAL(IBO)  

 IBBA/SVP energy=      0.000000000000

        KS-SCF  
   -114.81094806
 **********************************************************************************************************************************
 Molpro calculation terminated
