
 Primary working directories    : /tmp/sb13343
 Secondary working directories  : /tmp/sb13343
 Wavefunction directory         : /panfs/panasas01/chem/sb13343/wfu/
 Main file repository           : /tmp/sb13343/

 SHA1      : b4a5b34a9e711420743f49e6833241d17c61fb3c
 NAME      : 2099.9.b4a5b34
 ARCHNAME  : linux/x86_64_openmp
 FC        : /cm/shared/languages/GCC-6.1/bin/gfortran
 BLASLIB   : -lblas
 id        : simonbennie

 Nodes     nprocs
 node32-002    1

 Using customized tuning parameters: mindgm=1; mindgv=20; mindgc=4; mindgr=1; noblas=0; minvec=7
 default implementation of scratch files=df  

 memory,500,m
 geomtyp=xyz
 nosym
 noorient
 geometry={
 H         -1.57413        0.33845        0.00000
 C         -0.49500        0.20144        0.00000
 C          0.18857       -0.05954       -1.30114
 C          0.18857       -0.05954        1.30114
 H         -0.33790        0.40751       -2.14134
 H         -0.33790        0.40751        2.14134
 H          1.22176        0.31596       -1.29638
 H          1.22176        0.31596        1.29638
 H          0.25678       -1.13976       -1.52896
 H          0.25678       -1.13976        1.52896
 }
 basis={ default,svp }
 {ks,MM05,direct;wf,25,1,1}
 {ibba,bonds=1}

 Variables initialized (895), CPU time= 0.01 sec
 Commands  initialized (725), CPU time= 0.01 sec, 591 directives.
 Default parameters read. Elapsed time= 0.12 sec

 Checking input...
 Passed
1


                                         ***  PROGRAM SYSTEM MOLPRO  ***
                                       Copyright, TTI GmbH Stuttgart, 2015
                                    Version 2099.9 linked May 26 2017 16:03:21


 **********************************************************************************************************************************
 LABEL *                                                                                 
  64 bit serial version                                                                  DATE: 08-Jun-17          TIME: 15:25:37  
 **********************************************************************************************************************************

 SHA1:             b4a5b34a9e711420743f49e6833241d17c61fb3c
 **********************************************************************************************************************************
 SETTING GEOMTYP        =    XYZ

 Variable memory set to  500000000 words,  buffer space 

 ZSYMEL=NOSYM

 SETTING BASIS          =    SVP


 Recomputing integrals since basis changed


 Using spherical harmonics

 Library entry H      S def2-SVP             selected for orbital group  1
 Library entry H      P def2-SVP             selected for orbital group  1
 Library entry C      S def2-SVP             selected for orbital group  2
 Library entry C      P def2-SVP             selected for orbital group  2
 Library entry C      D def2-SVP             selected for orbital group  2


 PROGRAM * SEWARD (Integral evaluation for generally contracted gaussian basis sets)     Author: Roland Lindh, 1990

 Geometry written to block  1 of record 700


 Point group  C1  



 ATOMIC COORDINATES

 NR  ATOM    CHARGE       X              Y              Z

   1  H       1.00   -2.974674584    0.639577807    0.000000000
   2  C       6.00   -0.935414432    0.380666431    0.000000000
   3  C       6.00    0.356345655   -0.112514293   -2.458798250
   4  C       6.00    0.356345655   -0.112514293    2.458798250
   5  H       1.00   -0.638538457    0.770082293   -4.046546140
   6  H       1.00   -0.638538457    0.770082293    4.046546140
   7  H       1.00    2.308791790    0.597077866   -2.449803153
   8  H       1.00    2.308791790    0.597077866    2.449803153
   9  H       1.00    0.485243874   -2.153834248   -2.889315655
  10  H       1.00    0.485243874   -2.153834248    2.889315655

 Bond lengths in Bohr (Angstrom)

 1-2  2.055630578  2-3  2.820914777  2-4  2.820914777  3-5  2.071162595  3-7  2.077413742
     ( 1.087792856)     ( 1.492763814)     ( 1.492763814)     ( 1.096012045)     ( 1.099320010)

  3- 9  2.090202656   4- 6  2.071162595   4- 8  2.077413742   4-10  2.090202656
       ( 1.106087612)       ( 1.096012045)       ( 1.099320010)       ( 1.106087612)

 Bond angles

  1-2-3  118.44375943   1-2-4  118.44375943   2-3-5  111.94558337   2-3-7  111.52358867

  2- 3- 9  112.24140213   2- 4- 6  111.94558337   2- 4- 8  111.52358867   2- 4-10  112.24140213

  3-2-4  121.29758064   5-3-7  108.01204745   5-3-9  106.73207413   6-4-8  108.01204745

  6- 4-10  106.73207413   7- 3- 9  106.05262855   8- 4-10  106.05262855

 NUCLEAR CHARGE:                   25
 NUMBER OF PRIMITIVE AOS:         124
 NUMBER OF SYMMETRY AOS:          121
 NUMBER OF CONTRACTIONS:           77   (  77A   )
 NUMBER OF CORE ORBITALS:           3   (   3A   )
 NUMBER OF VALENCE ORBITALS:       19   (  19A   )


 NUCLEAR REPULSION ENERGY   75.20704826


 Eigenvalues of metric

         1 0.402E-02 0.537E-02 0.229E-01 0.265E-01 0.266E-01 0.379E-01 0.436E-01 0.492E-01


 Contracted 2-electron integrals neglected if value below      1.0D-11
 AO integral compression algorithm  1   Integral accuracy      1.0D-11

     19.923 MB (compressed) written to integral file ( 49.4%)


 NUMBER OF SORTED TWO-ELECTRON INTEGRALS:    4510506.     BUFFER LENGTH:  32768
 NUMBER OF SEGMENTS:   1  SEGMENT LENGTH:    4510506      RECORD LENGTH: 524288

 Memory used in sort:       5.07 MW

 SORT1 READ     5074366. AND WROTE     4244391. INTEGRALS IN     13 RECORDS. CPU TIME:     0.06 SEC, REAL TIME:     0.23 SEC
 SORT2 READ     4244391. AND WROTE     4510506. INTEGRALS IN     76 RECORDS. CPU TIME:     0.15 SEC, REAL TIME:     0.30 SEC

 FILE SIZES:   FILE 1:    50.3 MBYTE,  FILE 4:    54.6 MBYTE,   TOTAL:    104.8 MBYTE

 OPERATOR DM      FOR CENTER  0  COORDINATES:    0.000000    0.000000    0.000000


 **********************************************************************************************************************************
 DATASETS  * FILE   NREC   LENGTH (MB)   RECORD NAMES
              1      19       47.44       500      610      700      900      950      970     1000      129      960     1100   
                                          VAR    BASINP    GEOM    SYMINP    ZMAT    AOBASIS   BASIS     P2S    ABASIS      S 
                                         1400     1410     1200     1210     1080     1600     1650     1300     1700   
                                           T        V       H0       H01     AOSYM     SMH    MOLCAS    ERIS     OPER   

 PROGRAMS   *        TOTAL       INT
 CPU TIMES  *         1.19      1.04
 REAL TIME  *         2.46 SEC
 DISK USED  *       105.25 MB      
 **********************************************************************************************************************************

 Density functional group MM05=M05X+M05C
 Functional: M05X(Automatically generated (new) M05X)                          Gradient terms: 2
 Functional: M05C(Automatically generated (new) M05C)                          Gradient terms: 2
 Use grid at  1800.2


 Exact exchange will be calculated, factor:  0.2800

 Functional: M05X                      Factor:  0.7200
 Functional: M05C                      Factor:  1.0000

 Generated new metagrid on record  1800.2 with target accuracy 1.0D-06 and 32470 points in CPU time    0.8
 Computed new grid on record 1800.1 in CPU time    0.8
  123858 words reserved for DFT integration

 PROGRAM * RKS-SCF (Restricted open shell Kohn-Sham)     Authors: W. Meyer, H.-J. Werner, P.J. Knowles, 1993

 NUMBER OF ELECTRONS:      13+   12-    SPACE SYMMETRY=1    SPIN SYMMETRY: Doublet 
 CONVERGENCE THRESHOLDS:    1.00E-05 (Density)    1.00E-06 (Energy)
 MAX. NUMBER OF ITERATIONS:       60
 INTERPOLATION TYPE:            DIIS
 INTERPOLATION STEPS:              2 (START)      1 (STEP)
 LEVEL SHIFTS:                 -0.60 (CLOSED) -0.30 (OPEN) 



 Use fine grid record 1800.2 for energy threshold  1.0D-06
 Orbital guess generated from atomic densities. Full valence occupancy:   13

 Molecular orbital dump at record        2100.2

 Initial alpha occupancy:  13
 Initial beta  occupancy:  12
 Wave function symmetry:    1

 ITERATION    DDIFF          GRAD             ENERGY        2-EL.EN.            DIPOLE MOMENTS         DIIS   ORB.
    1      0.000D+00      0.000D+00      -118.16253058    260.505587    0.21065   -0.26547    0.00000    0    start
    2      0.000D+00      0.104D-01      -118.26976644    251.828970    0.04882   -0.10008   -0.00000    1    diag,B
    3      0.102D-01      0.307D-02      -118.27749804    253.177860    0.04662   -0.11136   -0.00000    2    diag,B
    4      0.287D-02      0.684D-03      -118.27876577    253.036486    0.03313   -0.09743   -0.00000    3    diag,B
    5      0.173D-02      0.256D-03      -118.27898089    253.006449    0.02936   -0.09349   -0.00000    4    diag,B
    6      0.874D-03      0.620D-04      -118.27899207    252.995451    0.02826   -0.09198   -0.00000    5    diag,B
    7      0.190D-03      0.188D-04      -118.27899314    252.996554    0.02875   -0.09220   -0.00000    6    fixocc
    8      0.649D-04      0.621D-05      -118.27899329    252.996766    0.02891   -0.09225   -0.00000    7    diag,B
    9      0.276D-04      0.179D-05      -118.27899330    252.996715    0.02893   -0.09228   -0.00000    8    diag,B
   10      0.773D-05      0.538D-06      -118.27899330    252.996700    0.02893   -0.09227   -0.00000    0    orth

 Final alpha occupancy:  13
 Final beta  occupancy:  12

 !RKS STATE 1.1 Energy               -118.278993302314
 Nuclear energy                        75.20704826
 One-electron energy                 -306.29031671
 Two-electron energy                  126.49834981
 Density functional                   -13.69407467     M05X=-17.94779416 M05C= -0.77166287
 Virial quotient                       -1.01189861
 !RKS STATE 1.1 Dipole moment           0.02892531    -0.09227333    -0.00000000
 Dipole moment /Debye                   0.07351598    -0.23452004    -0.00000000

 Orbital energies:

         1.1          2.1          3.1          4.1          5.1          6.1          7.1          8.1          9.1         10.1
    -10.212497   -10.211727   -10.211703    -0.783269    -0.699990    -0.566869    -0.457855    -0.425940    -0.415340    -0.390418

        11.1         12.1         13.1         14.1         15.1
     -0.362152    -0.352678    -0.193758     0.071629     0.102090

 HOMO     13.1    -0.193758 =      -5.2724eV
 LUMO     14.1     0.071629 =       1.9491eV
 LUMO-HOMO         0.265387 =       7.2215eV


 **********************************************************************************************************************************
 DATASETS  * FILE   NREC   LENGTH (MB)   RECORD NAMES
              1      20       48.47       500      610      700      900      950      970     1000      129      960     1100   
                                          VAR    BASINP    GEOM    SYMINP    ZMAT    AOBASIS   BASIS     P2S    ABASIS      S 
                                         1400     1410     1200     1210     1080     1600     1650     1300     1700     1800   
                                           T        V       H0       H01     AOSYM     SMH    MOLCAS    ERIS     OPER     GRID   

              2       5        3.08       700     1000      520     1800     2100   
                                         GEOM     BASIS   MCVARS    GRID      RKS  

 PROGRAMS   *        TOTAL        KS       INT
 CPU TIMES  *        30.77     29.58      1.04
 REAL TIME  *        46.18 SEC
 DISK USED  *       105.25 MB      
 **********************************************************************************************************************************


 PROGRAM * Intrinsic Basis Bonding Analysis (IBBA)          Author: G. Knizia

 Molecular orbitals read from record     2100.2  Type=RKS/CANONICAL (state 1.1)
 Fock matrix read from record            2100.2  Type=RKS/TOTAL (state 1.1)
 Orbital energies read from record       2100.2  Type=RKS/CANONICAL (state 1.1)
 Density matrix read from record         2100.2  Type=RKS/CHARGE (state 1.1)

 Number of core orbitals:           3 (   3 )
 Number of closed-shell orbitals:   9 (   9 )
 Number of active  orbitals:        1 (   1 )

 Basis set MINAO-AUTO-PP generated.      Number of basis functions:   22 

 Polarized AO type:                A = (O Ot + (1-O)(1-Ot)) P12
 Orthogonalization method:         Symmetric (Loewdin)
 Localization functional:          L = sum[A,i] <i|n_A|i>^4 -> max

 Localization group 1:  12 orbitals, occupancy  2.000
 Iterative localization: IB/PM,    7 iter; Final gradient 0.37E-08

 Bond order analysis:       [THRPRINT= 0.020]

   CEN ATOM   CEN ATOM     WIBERG.BO      RENORM.BO
     1   H  -   2   C       0.954664       0.968555

     2   C  -   4   C       1.094540       1.495719
     2   C  -   3   C       1.094540       1.495719
     2   C  -   1   H       0.954664       0.968555
     2   C  -   9   H       0.038253       0.309753
     2   C  -  10   H       0.038253       0.309753

     3   C  -   2   C       1.094540       1.495719
     3   C  -   5   H       0.957344       0.989159
     3   C  -   7   H       0.949199       0.987980
     3   C  -   9   H       0.921138       0.998257

     4   C  -   2   C       1.094540       1.495719
     4   C  -   6   H       0.957344       0.989159
     4   C  -   8   H       0.949199       0.987980
     4   C  -  10   H       0.921138       0.998257

     5   H  -   3   C       0.957344       0.989159

     6   H  -   4   C       0.957344       0.989159

     7   H  -   3   C       0.949199       0.987980

     8   H  -   4   C       0.949199       0.987980

     9   H  -   3   C       0.921138       0.998257
     9   H  -   2   C       0.038253       0.309753

    10   H  -   4   C       0.921138       0.998257
    10   H  -   2   C       0.038253       0.309753


 Valency analysis:

   CEN ATOM   TOT.VALENCE
     1   H       0.983832
     2   C       3.255556
     3   C       3.939996
     4   C       3.939996
     5   H       0.978837
     6   H       0.978837
     7   H       0.977909
     8   H       0.977909
     9   H       0.968286
    10   H       0.968286
 Localization group 2:   1 orbitals, occupancy  1.000
 Iterative localization: IB/PM,    1 iter; Final gradient 0.00E+00

 Bond order analysis:       [THRPRINT= 0.020]

   CEN ATOM   CEN ATOM     WIBERG.BO      RENORM.BO

     2   C  -   9   H       0.078178       0.500000
     2   C  -  10   H       0.078178       0.500000
     2   C  -   7   H       0.024561       0.500000
     2   C  -   8   H       0.024561       0.500000





     7   H  -   2   C       0.024561       0.500000

     8   H  -   2   C       0.024561       0.500000

     9   H  -   2   C       0.078178       0.500000

    10   H  -   2   C       0.078178       0.500000


 Valency analysis:

   CEN ATOM   TOT.VALENCE
     1   H       0.000750
     2   C       0.228181
     3   C       0.003218
     4   C       0.003218
     5   H       0.009425
     6   H       0.009425
     7   H       0.027874
     8   H       0.027874
     9   H       0.085948
    10   H       0.085948

 Total charge composition:

   CEN ATOM         s          p       ELECTRONS ->P.CHARGE
     1   H       0.87322                 0.87322    0.12678
     2   C       3.00641    3.12323      6.12964   -0.12964
     3   C       3.01899    3.38790      6.40689   -0.40689
     4   C       3.01899    3.38790      6.40689   -0.40689
     5   H       0.85926                 0.85926    0.14074
     6   H       0.85926                 0.85926    0.14074
     7   H       0.86551                 0.86551    0.13449
     8   H       0.86551                 0.86551    0.13449
     9   H       0.86691                 0.86691    0.13309
    10   H       0.86691                 0.86691    0.13309

 Total charge composition, AO contributions:

   CEN ATOM SHL      SPHERICAL COMPONENTS
     1   H  1s       0.87322

     2   C  1s       1.99228
     2   C  2s       1.01413
     2   C  2p       1.10193    1.01489    1.00642

     3   C  1s       1.99063
     3   C  2s       1.02836
     3   C  2p       1.14159    1.15013    1.09618

     4   C  1s       1.99063
     4   C  2s       1.02836
     4   C  2p       1.14159    1.15013    1.09618

     5   H  1s       0.85926

     6   H  1s       0.85926

     7   H  1s       0.86551

     8   H  1s       0.86551

     9   H  1s       0.86691

    10   H  1s       0.86691

 Active orbital charges:

   CEN ATOM         s          p       ELECTRONS ->SPIN.DEN
     1   H       0.00038                 0.00038    0.00038
     2   C       0.00760    0.86106      0.86866    0.86866
     3   C       0.00008    0.00153      0.00161    0.00161
     4   C       0.00008    0.00153      0.00161    0.00161
     5   H       0.00473                 0.00473    0.00473
     6   H       0.00473                 0.00473    0.00473
     7   H       0.01414                 0.01414    0.01414
     8   H       0.01414                 0.01414    0.01414
     9   H       0.04500                 0.04500    0.04500
    10   H       0.04500                 0.04500    0.04500

 Active orbital charges, AO contributions:

   CEN ATOM SHL      SPHERICAL COMPONENTS
     1   H  1s       0.00038

     2   C  1s       0.00001
     2   C  2s       0.00760
     2   C  2p       0.03514    0.82592    0.00000

     3   C  1s       0.00000
     3   C  2s       0.00008
     3   C  2p       0.00001    0.00144    0.00008

     4   C  1s       0.00000
     4   C  2s       0.00008
     4   C  2p       0.00001    0.00144    0.00008

     5   H  1s       0.00473

     6   H  1s       0.00473

     7   H  1s       0.01414

     8   H  1s       0.01414

     9   H  1s       0.04500

    10   H  1s       0.04500

 Summary of localized orbital composition:   [THRPRINT= 0.020]

   ORB  GRP  ORB.ENERGY      CENTERS/CHARGES
     1   1   -10.112432      C  2   2.000
     2   1   -10.094779      C  4   2.000
     3   1   -10.094779      C  3   2.000
     4   1    -0.611821      C  3   1.007   C  2   0.986
     5   1    -0.611821      C  4   1.007   C  2   0.986
     6   1    -0.525496      C  2   1.124   H  1   0.863
     7   1    -0.508820      C  4   1.127   H 10   0.819   C  2   0.052
     8   1    -0.508820      C  3   1.127   H  9   0.819   C  2   0.052
     9   1    -0.505751      C  4   1.129   H  8   0.846   (other: 0.024)
    10   1    -0.505751      C  3   1.129   H  7   0.846   (other: 0.024)
    11   1    -0.505085      C  4   1.135   H  6   0.849
    12   1    -0.505085      C  3   1.135   H  5   0.849
    13   2    -0.104620      C  2   0.869   H  9   0.045   H 10   0.045   (other: 0.041)

 Localized orbitals saved to record      2100.2  (orbital set 2)


 **********************************************************************************************************************************
 DATASETS  * FILE   NREC   LENGTH (MB)   RECORD NAMES
              1      20       48.47       500      610      700      900      950      970     1000      129      960     1100   
                                          VAR    BASINP    GEOM    SYMINP    ZMAT    AOBASIS   BASIS     P2S    ABASIS      S 
                                         1400     1410     1200     1210     1080     1600     1650     1300     1700     1800   
                                           T        V       H0       H01     AOSYM     SMH    MOLCAS    ERIS     OPER     GRID   

              2       5        3.13       700     1000      520     1800     2100   
                                         GEOM     BASIS   MCVARS    GRID      RKS  

 PROGRAMS   *        TOTAL      IBBA        KS       INT
 CPU TIMES  *        30.80      0.03     29.58      1.04
 REAL TIME  *        46.30 SEC
 DISK USED  *       105.25 MB      
 **********************************************************************************************************************************
 Molecular orbitals read from record     2100.2  Type=RKS/LOCAL(IBO)  
 Occupation numbers read from record     2100.2  Type=RKS/LOCAL(IBO)  
 Orbital energies read from record       2100.2  Type=RKS/LOCAL(IBO)  
 Redundancy group numbers read from rec  2100.2  Type=RKS/LOCAL(IBO)  

 IBBA/SVP energy=      0.000000000000

        KS-SCF  
   -118.27899330
 **********************************************************************************************************************************
 Molpro calculation terminated
