
 Primary working directories    : /tmp/sb13343
 Secondary working directories  : /tmp/sb13343
 Wavefunction directory         : /panfs/panasas01/chem/sb13343/wfu/
 Main file repository           : /tmp/sb13343/

 SHA1      : b4a5b34a9e711420743f49e6833241d17c61fb3c
 NAME      : 2099.9.b4a5b34
 ARCHNAME  : linux/x86_64_openmp
 FC        : /cm/shared/languages/GCC-6.1/bin/gfortran
 BLASLIB   : -lblas
 id        : simonbennie

 Nodes     nprocs
 node32-018    1

 Using customized tuning parameters: mindgm=1; mindgv=20; mindgc=4; mindgr=1; noblas=0; minvec=7
 default implementation of scratch files=df  

 memory,500,m
 geomtyp=xyz
 nosym
 noorient
 geometry={
 H         -1.57413        0.33845        0.00000
 C         -0.49500        0.20144        0.00000
 C          0.18857       -0.05954       -1.30114
 C          0.18857       -0.05954        1.30114
 H         -0.33790        0.40751       -2.14134
 H         -0.33790        0.40751        2.14134
 H          1.22176        0.31596       -1.29638
 H          1.22176        0.31596        1.29638
 H          0.25678       -1.13976       -1.52896
 H          0.25678       -1.13976        1.52896
 }
 basis={ default,sto-3g }
 {ks,MM06,direct;wf,25,1,1}
 {ibba,bonds=1}

 Variables initialized (895), CPU time= 0.00 sec
 Commands  initialized (725), CPU time= 0.01 sec, 591 directives.
 Default parameters read. Elapsed time= 0.08 sec

 Checking input...
 Passed
1


                                         ***  PROGRAM SYSTEM MOLPRO  ***
                                       Copyright, TTI GmbH Stuttgart, 2015
                                    Version 2099.9 linked May 26 2017 16:03:21


 **********************************************************************************************************************************
 LABEL *                                                                                 
  64 bit serial version                                                                  DATE: 08-Jun-17          TIME: 15:08:33  
 **********************************************************************************************************************************

 SHA1:             b4a5b34a9e711420743f49e6833241d17c61fb3c
 **********************************************************************************************************************************
 SETTING GEOMTYP        =    XYZ

 Variable memory set to  500000000 words,  buffer space 

 ZSYMEL=NOSYM

 SETTING BASIS          =    STO-3G


 Recomputing integrals since basis changed


 Using spherical harmonics

 Library entry H      S STO-3G               selected for orbital group  1
 Library entry C      S STO-3G               selected for orbital group  2
 Library entry C      P STO-3G               selected for orbital group  2


 PROGRAM * SEWARD (Integral evaluation for generally contracted gaussian basis sets)     Author: Roland Lindh, 1990

 Geometry written to block  1 of record 700


 Point group  C1  



 ATOMIC COORDINATES

 NR  ATOM    CHARGE       X              Y              Z

   1  H       1.00   -2.974674584    0.639577807    0.000000000
   2  C       6.00   -0.935414432    0.380666431    0.000000000
   3  C       6.00    0.356345655   -0.112514293   -2.458798250
   4  C       6.00    0.356345655   -0.112514293    2.458798250
   5  H       1.00   -0.638538457    0.770082293   -4.046546140
   6  H       1.00   -0.638538457    0.770082293    4.046546140
   7  H       1.00    2.308791790    0.597077866   -2.449803153
   8  H       1.00    2.308791790    0.597077866    2.449803153
   9  H       1.00    0.485243874   -2.153834248   -2.889315655
  10  H       1.00    0.485243874   -2.153834248    2.889315655

 Bond lengths in Bohr (Angstrom)

 1-2  2.055630578  2-3  2.820914777  2-4  2.820914777  3-5  2.071162595  3-7  2.077413742
     ( 1.087792856)     ( 1.492763814)     ( 1.492763814)     ( 1.096012045)     ( 1.099320010)

  3- 9  2.090202656   4- 6  2.071162595   4- 8  2.077413742   4-10  2.090202656
       ( 1.106087612)       ( 1.096012045)       ( 1.099320010)       ( 1.106087612)

 Bond angles

  1-2-3  118.44375943   1-2-4  118.44375943   2-3-5  111.94558337   2-3-7  111.52358867

  2- 3- 9  112.24140213   2- 4- 6  111.94558337   2- 4- 8  111.52358867   2- 4-10  112.24140213

  3-2-4  121.29758064   5-3-7  108.01204745   5-3-9  106.73207413   6-4-8  108.01204745

  6- 4-10  106.73207413   7- 3- 9  106.05262855   8- 4-10  106.05262855

 NUCLEAR CHARGE:                   25
 NUMBER OF PRIMITIVE AOS:          66
 NUMBER OF SYMMETRY AOS:           66
 NUMBER OF CONTRACTIONS:           22   (  22A   )
 NUMBER OF CORE ORBITALS:           3   (   3A   )
 NUMBER OF VALENCE ORBITALS:       19   (  19A   )


 NUCLEAR REPULSION ENERGY   75.20704826


 Eigenvalues of metric

         1 0.213E+00 0.225E+00 0.288E+00 0.342E+00 0.359E+00 0.374E+00 0.380E+00 0.402E+00


 Contracted 2-electron integrals neglected if value below      1.0D-11
 AO integral compression algorithm  1   Integral accuracy      1.0D-11

     0.524 MB (compressed) written to integral file ( 89.6%)


 NUMBER OF SORTED TWO-ELECTRON INTEGRALS:      32131.     BUFFER LENGTH:  32768
 NUMBER OF SEGMENTS:   1  SEGMENT LENGTH:      32131      RECORD LENGTH: 524288

 Memory used in sort:       0.59 MW

 SORT1 READ       38209. AND WROTE       30689. INTEGRALS IN      1 RECORDS. CPU TIME:     0.00 SEC, REAL TIME:     0.01 SEC
 SORT2 READ       30689. AND WROTE       32131. INTEGRALS IN      2 RECORDS. CPU TIME:     0.00 SEC, REAL TIME:     0.01 SEC

 FILE SIZES:   FILE 1:    30.6 MBYTE,  FILE 4:     4.2 MBYTE,   TOTAL:     34.9 MBYTE

 OPERATOR DM      FOR CENTER  0  COORDINATES:    0.000000    0.000000    0.000000


 **********************************************************************************************************************************
 DATASETS  * FILE   NREC   LENGTH (MB)   RECORD NAMES
              1      19       30.27       500      610      700      900      950      970     1000      129      960     1100   
                                          VAR    BASINP    GEOM    SYMINP    ZMAT    AOBASIS   BASIS     P2S    ABASIS      S 
                                         1400     1410     1200     1210     1080     1600     1650     1300     1700   
                                           T        V       H0       H01     AOSYM     SMH    MOLCAS    ERIS     OPER   

 PROGRAMS   *        TOTAL       INT
 CPU TIMES  *         0.37      0.23
 REAL TIME  *         0.66 SEC
 DISK USED  *        35.29 MB      
 **********************************************************************************************************************************

 Density functional group MM06=M06X+M06C
 Functional: M06X(Automatically generated (new) M06X)                          Gradient terms: 2
 Functional: M06C(Automatically generated (new) M06C)                          Gradient terms: 2
 Use grid at  1800.2


 Exact exchange will be calculated, factor:  0.2700

 Functional: M06X                      Factor:  0.7300
 Functional: M06C                      Factor:  1.0000

 Generated new metagrid on record  1800.2 with target accuracy 1.0D-06 and 32470 points in CPU time    0.7
 Computed new grid on record 1800.1 in CPU time    0.8
   38486 words reserved for DFT integration

 PROGRAM * RKS-SCF (Restricted open shell Kohn-Sham)     Authors: W. Meyer, H.-J. Werner, P.J. Knowles, 1993

 NUMBER OF ELECTRONS:      13+   12-    SPACE SYMMETRY=1    SPIN SYMMETRY: Doublet 
 CONVERGENCE THRESHOLDS:    1.00E-05 (Density)    1.00E-06 (Energy)
 MAX. NUMBER OF ITERATIONS:       60
 INTERPOLATION TYPE:            DIIS
 INTERPOLATION STEPS:              2 (START)      1 (STEP)
 LEVEL SHIFTS:                 -0.60 (CLOSED) -0.30 (OPEN) 



 Use fine grid record 1800.2 for energy threshold  1.0D-06
 Orbital guess generated from atomic densities. Full valence occupancy:   13

 Molecular orbital dump at record        2100.2

 Initial alpha occupancy:  13
 Initial beta  occupancy:  12
 Wave function symmetry:    1

 ITERATION    DDIFF          GRAD             ENERGY        2-EL.EN.            DIPOLE MOMENTS         DIIS   ORB.
    1      0.000D+00      0.000D+00      -113.30366535    259.842262    0.20148   -0.29253    0.00000    0    start
    2      0.000D+00      0.257D-01      -113.42573783    253.363328    0.02939   -0.05286    0.00000    1    diag,B
    3      0.489D-01      0.225D-02      -113.42696955    253.657646    0.03758   -0.06843    0.00000    2    diag,B
    4      0.357D-02      0.608D-03      -113.42725148    253.645575    0.03658   -0.06788    0.00000    3    diag,B
    5      0.145D-02      0.199D-03      -113.42729360    253.642170    0.03462   -0.06495    0.00000    4    diag,B
    6      0.640D-03      0.436D-04      -113.42729513    253.641657    0.03423   -0.06406    0.00000    5    diag,B
    7      0.108D-03      0.143D-04      -113.42729529    253.641882    0.03417   -0.06379    0.00000    6    fixocc
    8      0.433D-04      0.285D-05      -113.42729530    253.641882    0.03422   -0.06381    0.00000    7    diag,B
    9      0.947D-05      0.546D-06      -113.42729530    253.641883    0.03421   -0.06380    0.00000    0    orth

 Final alpha occupancy:  13
 Final beta  occupancy:  12

 !RKS STATE 1.1 Energy               -113.427295298327
 Nuclear energy                        75.20704826
 One-electron energy                 -305.08022851
 Two-electron energy                  126.82094130
 Density functional                   -10.37505635     M06X=-12.90585271 M06C= -0.95378388
 Virial quotient                       -0.98772469
 !RKS STATE 1.1 Dipole moment           0.03421253    -0.06379944     0.00000000
 Dipole moment /Debye                   0.08695387    -0.16215138     0.00000000

 Orbital energies:

         1.1          2.1          3.1          4.1          5.1          6.1          7.1          8.1          9.1         10.1
     -9.678021    -9.678019    -9.630616    -0.646077    -0.569343    -0.437576    -0.334049    -0.305224    -0.288789    -0.269249

        11.1         12.1         13.1         14.1         15.1
     -0.227664    -0.221696    -0.018948     0.485209     0.534734

 HOMO     13.1    -0.018948 =      -0.5156eV
 LUMO     14.1     0.485209 =      13.2032eV
 LUMO-HOMO         0.504157 =      13.7188eV


 **********************************************************************************************************************************
 DATASETS  * FILE   NREC   LENGTH (MB)   RECORD NAMES
              1      20       31.31       500      610      700      900      950      970     1000      129      960     1100   
                                          VAR    BASINP    GEOM    SYMINP    ZMAT    AOBASIS   BASIS     P2S    ABASIS      S 
                                         1400     1410     1200     1210     1080     1600     1650     1300     1700     1800   
                                           T        V       H0       H01     AOSYM     SMH    MOLCAS    ERIS     OPER     GRID   

              2       5        2.92       700     1000      520     1800     2100   
                                         GEOM     BASIS   MCVARS    GRID      RKS  

 PROGRAMS   *        TOTAL        KS       INT
 CPU TIMES  *         5.04      4.67      0.23
 REAL TIME  *         5.54 SEC
 DISK USED  *        35.29 MB      
 **********************************************************************************************************************************


 PROGRAM * Intrinsic Basis Bonding Analysis (IBBA)          Author: G. Knizia

 Molecular orbitals read from record     2100.2  Type=RKS/CANONICAL (state 1.1)
 Fock matrix read from record            2100.2  Type=RKS/TOTAL (state 1.1)
 Orbital energies read from record       2100.2  Type=RKS/CANONICAL (state 1.1)
 Density matrix read from record         2100.2  Type=RKS/CHARGE (state 1.1)

 Number of core orbitals:           3 (   3 )
 Number of closed-shell orbitals:   9 (   9 )
 Number of active  orbitals:        1 (   1 )

 Basis set MINAO-AUTO-PP generated.      Number of basis functions:   22 

 Polarized AO type:                A = (O Ot + (1-O)(1-Ot)) P12
 Orthogonalization method:         Symmetric (Loewdin)
 Localization functional:          L = sum[A,i] <i|n_A|i>^4 -> max

 Localization group 1:  12 orbitals, occupancy  2.000
 Iterative localization: IB/PM,    7 iter; Final gradient 0.11E-08

 Bond order analysis:       [THRPRINT= 0.020]

   CEN ATOM   CEN ATOM     WIBERG.BO      RENORM.BO
     1   H  -   2   C       0.964898       0.972818

     2   C  -   4   C       1.079304       1.499585
     2   C  -   3   C       1.079304       1.499585
     2   C  -   1   H       0.964898       0.972818
     2   C  -   9   H       0.034571       0.304038
     2   C  -  10   H       0.034571       0.304038

     3   C  -   2   C       1.079304       1.499585
     3   C  -   5   H       0.961775       0.990280
     3   C  -   7   H       0.955096       0.990870
     3   C  -   9   H       0.930209       0.998631

     4   C  -   2   C       1.079304       1.499585
     4   C  -   6   H       0.961775       0.990280
     4   C  -   8   H       0.955096       0.990870
     4   C  -  10   H       0.930209       0.998631

     5   H  -   3   C       0.961775       0.990280

     6   H  -   4   C       0.961775       0.990280

     7   H  -   3   C       0.955096       0.990870

     8   H  -   4   C       0.955096       0.990870

     9   H  -   3   C       0.930209       0.998631
     9   H  -   2   C       0.034571       0.304038

    10   H  -   4   C       0.930209       0.998631
    10   H  -   2   C       0.034571       0.304038


 Valency analysis:

   CEN ATOM   TOT.VALENCE
     1   H       0.990270
     2   C       3.228094
     3   C       3.941228
     4   C       3.941228
     5   H       0.984289
     6   H       0.984289
     7   H       0.983439
     8   H       0.983439
     9   H       0.976017
    10   H       0.976017
 Localization group 2:   1 orbitals, occupancy  1.000
 Iterative localization: IB/PM,    1 iter; Final gradient 0.00E+00

 Bond order analysis:       [THRPRINT= 0.020]

   CEN ATOM   CEN ATOM     WIBERG.BO      RENORM.BO

     2   C  -   9   H       0.070081       0.500000
     2   C  -  10   H       0.070081       0.500000
     2   C  -   7   H       0.023197       0.500000
     2   C  -   8   H       0.023197       0.500000





     7   H  -   2   C       0.023197       0.500000

     8   H  -   2   C       0.023197       0.500000

     9   H  -   2   C       0.070081       0.500000

    10   H  -   2   C       0.070081       0.500000


 Valency analysis:

   CEN ATOM   TOT.VALENCE
     1   H       0.000457
     2   C       0.213778
     3   C       0.004985
     4   C       0.004985
     5   H       0.010219
     6   H       0.010219
     7   H       0.026062
     8   H       0.026062
     9   H       0.076608
    10   H       0.076608

 Total charge composition:

   CEN ATOM         s          p       ELECTRONS ->P.CHARGE
     1   H       0.90159                 0.90159    0.09841
     2   C       2.97968    3.10025      6.07994   -0.07994
     3   C       2.96482    3.39508      6.35990   -0.35990
     4   C       2.96482    3.39508      6.35990   -0.35990
     5   H       0.87979                 0.87979    0.12021
     6   H       0.87979                 0.87979    0.12021
     7   H       0.88451                 0.88451    0.11549
     8   H       0.88451                 0.88451    0.11549
     9   H       0.88503                 0.88503    0.11497
    10   H       0.88503                 0.88503    0.11497

 Total charge composition, AO contributions:

   CEN ATOM SHL      SPHERICAL COMPONENTS
     1   H  1s       0.90159

     2   C  1s       1.99416
     2   C  2s       0.98552
     2   C  2p       1.08930    1.00460    1.00635

     3   C  1s       1.99302
     3   C  2s       0.97180
     3   C  2p       1.14261    1.15066    1.10180

     4   C  1s       1.99302
     4   C  2s       0.97180
     4   C  2p       1.14261    1.15066    1.10180

     5   H  1s       0.87979

     6   H  1s       0.87979

     7   H  1s       0.88451

     8   H  1s       0.88451

     9   H  1s       0.88503

    10   H  1s       0.88503

 Active orbital charges:

   CEN ATOM         s          p       ELECTRONS ->SPIN.DEN
     1   H       0.00023                 0.00023    0.00023
     2   C       0.00903    0.86927      0.87830    0.87830
     3   C       0.00005    0.00244      0.00250    0.00250
     4   C       0.00005    0.00244      0.00250    0.00250
     5   H       0.00514                 0.00514    0.00514
     6   H       0.00514                 0.00514    0.00514
     7   H       0.01321                 0.01321    0.01321
     8   H       0.01321                 0.01321    0.01321
     9   H       0.03990                 0.03990    0.03990
    10   H       0.03990                 0.03990    0.03990

 Active orbital charges, AO contributions:

   CEN ATOM SHL      SPHERICAL COMPONENTS
     1   H  1s       0.00023

     2   C  1s       0.00000
     2   C  2s       0.00903
     2   C  2p       0.03631    0.83296    0.00000

     3   C  1s       0.00000
     3   C  2s       0.00005
     3   C  2p       0.00000    0.00234    0.00010

     4   C  1s       0.00000
     4   C  2s       0.00005
     4   C  2p       0.00000    0.00234    0.00010

     5   H  1s       0.00514

     6   H  1s       0.00514

     7   H  1s       0.01321

     8   H  1s       0.01321

     9   H  1s       0.03990

    10   H  1s       0.03990

 Summary of localized orbital composition:   [THRPRINT= 0.020]

   ORB  GRP  ORB.ENERGY      CENTERS/CHARGES
     1   1    -9.569801      C  4   2.000
     2   1    -9.569801      C  3   2.000
     3   1    -9.534420      C  2   2.000
     4   1    -0.460627      C  3   1.012   C  2   0.980
     5   1    -0.460627      C  4   1.012   C  2   0.980
     6   1    -0.393296      C  2   1.097   H  1   0.893
     7   1    -0.384802      C  3   1.111   H  9   0.841   C  2   0.045
     8   1    -0.384802      C  4   1.111   H 10   0.841   C  2   0.045
     9   1    -0.382307      C  3   1.117   H  5   0.868
    10   1    -0.382307      C  4   1.117   H  6   0.868
    11   1    -0.381766      C  3   1.112   H  7   0.866   (other: 0.022)
    12   1    -0.381766      C  4   1.112   H  8   0.866   (other: 0.022)
    13   2     0.072747      C  2   0.878   H  9   0.040   H 10   0.040   (other: 0.042)

 Localized orbitals saved to record      2100.2  (orbital set 2)


 **********************************************************************************************************************************
 DATASETS  * FILE   NREC   LENGTH (MB)   RECORD NAMES
              1      20       31.31       500      610      700      900      950      970     1000      129      960     1100   
                                          VAR    BASINP    GEOM    SYMINP    ZMAT    AOBASIS   BASIS     P2S    ABASIS      S 
                                         1400     1410     1200     1210     1080     1600     1650     1300     1700     1800   
                                           T        V       H0       H01     AOSYM     SMH    MOLCAS    ERIS     OPER     GRID   

              2       5        2.92       700     1000      520     1800     2100   
                                         GEOM     BASIS   MCVARS    GRID      RKS  

 PROGRAMS   *        TOTAL      IBBA        KS       INT
 CPU TIMES  *         5.07      0.02      4.67      0.23
 REAL TIME  *         5.62 SEC
 DISK USED  *        35.29 MB      
 **********************************************************************************************************************************
 Molecular orbitals read from record     2100.2  Type=RKS/LOCAL(IBO)  
 Occupation numbers read from record     2100.2  Type=RKS/LOCAL(IBO)  
 Orbital energies read from record       2100.2  Type=RKS/LOCAL(IBO)  
 Redundancy group numbers read from rec  2100.2  Type=RKS/LOCAL(IBO)  

 IBBA/STO-3G energy=      0.000000000000

        KS-SCF  
   -113.42729530
 **********************************************************************************************************************************
 Molpro calculation terminated
