
 Primary working directories    : /tmp/sb13343
 Secondary working directories  : /tmp/sb13343
 Wavefunction directory         : /panfs/panasas01/chem/sb13343/wfu/
 Main file repository           : /tmp/sb13343/

 SHA1      : b4a5b34a9e711420743f49e6833241d17c61fb3c
 NAME      : 2099.9.b4a5b34
 ARCHNAME  : linux/x86_64_openmp
 FC        : /cm/shared/languages/GCC-6.1/bin/gfortran
 BLASLIB   : -lblas
 id        : simonbennie

 Nodes     nprocs
 node32-017    1

 Using customized tuning parameters: mindgm=1; mindgv=20; mindgc=4; mindgr=1; noblas=0; minvec=7
 default implementation of scratch files=df  

 memory,500,m
 geomtyp=xyz
 nosym
 noorient
 geometry={
 H         -1.57413        0.33845        0.00000
 C         -0.49500        0.20144        0.00000
 C          0.18857       -0.05954       -1.30114
 C          0.18857       -0.05954        1.30114
 H         -0.33790        0.40751       -2.14134
 H         -0.33790        0.40751        2.14134
 H          1.22176        0.31596       -1.29638
 H          1.22176        0.31596        1.29638
 H          0.25678       -1.13976       -1.52896
 H          0.25678       -1.13976        1.52896
 }
 basis={ default,svp }
 {ks,MM06-2X,direct;wf,25,1,1}
 {ibba,bonds=1}

 Variables initialized (895), CPU time= 0.01 sec
 Commands  initialized (725), CPU time= 0.01 sec, 591 directives.
 Default parameters read. Elapsed time= 0.09 sec

 Checking input...
 Passed
1


                                         ***  PROGRAM SYSTEM MOLPRO  ***
                                       Copyright, TTI GmbH Stuttgart, 2015
                                    Version 2099.9 linked May 26 2017 16:03:21


 **********************************************************************************************************************************
 LABEL *                                                                                 
  64 bit serial version                                                                  DATE: 08-Jun-17          TIME: 15:30:26  
 **********************************************************************************************************************************

 SHA1:             b4a5b34a9e711420743f49e6833241d17c61fb3c
 **********************************************************************************************************************************
 SETTING GEOMTYP        =    XYZ

 Variable memory set to  500000000 words,  buffer space 

 ZSYMEL=NOSYM

 SETTING BASIS          =    SVP


 Recomputing integrals since basis changed


 Using spherical harmonics

 Library entry H      S def2-SVP             selected for orbital group  1
 Library entry H      P def2-SVP             selected for orbital group  1
 Library entry C      S def2-SVP             selected for orbital group  2
 Library entry C      P def2-SVP             selected for orbital group  2
 Library entry C      D def2-SVP             selected for orbital group  2


 PROGRAM * SEWARD (Integral evaluation for generally contracted gaussian basis sets)     Author: Roland Lindh, 1990

 Geometry written to block  1 of record 700


 Point group  C1  



 ATOMIC COORDINATES

 NR  ATOM    CHARGE       X              Y              Z

   1  H       1.00   -2.974674584    0.639577807    0.000000000
   2  C       6.00   -0.935414432    0.380666431    0.000000000
   3  C       6.00    0.356345655   -0.112514293   -2.458798250
   4  C       6.00    0.356345655   -0.112514293    2.458798250
   5  H       1.00   -0.638538457    0.770082293   -4.046546140
   6  H       1.00   -0.638538457    0.770082293    4.046546140
   7  H       1.00    2.308791790    0.597077866   -2.449803153
   8  H       1.00    2.308791790    0.597077866    2.449803153
   9  H       1.00    0.485243874   -2.153834248   -2.889315655
  10  H       1.00    0.485243874   -2.153834248    2.889315655

 Bond lengths in Bohr (Angstrom)

 1-2  2.055630578  2-3  2.820914777  2-4  2.820914777  3-5  2.071162595  3-7  2.077413742
     ( 1.087792856)     ( 1.492763814)     ( 1.492763814)     ( 1.096012045)     ( 1.099320010)

  3- 9  2.090202656   4- 6  2.071162595   4- 8  2.077413742   4-10  2.090202656
       ( 1.106087612)       ( 1.096012045)       ( 1.099320010)       ( 1.106087612)

 Bond angles

  1-2-3  118.44375943   1-2-4  118.44375943   2-3-5  111.94558337   2-3-7  111.52358867

  2- 3- 9  112.24140213   2- 4- 6  111.94558337   2- 4- 8  111.52358867   2- 4-10  112.24140213

  3-2-4  121.29758064   5-3-7  108.01204745   5-3-9  106.73207413   6-4-8  108.01204745

  6- 4-10  106.73207413   7- 3- 9  106.05262855   8- 4-10  106.05262855

 NUCLEAR CHARGE:                   25
 NUMBER OF PRIMITIVE AOS:         124
 NUMBER OF SYMMETRY AOS:          121
 NUMBER OF CONTRACTIONS:           77   (  77A   )
 NUMBER OF CORE ORBITALS:           3   (   3A   )
 NUMBER OF VALENCE ORBITALS:       19   (  19A   )


 NUCLEAR REPULSION ENERGY   75.20704826


 Eigenvalues of metric

         1 0.402E-02 0.537E-02 0.229E-01 0.265E-01 0.266E-01 0.379E-01 0.436E-01 0.492E-01


 Contracted 2-electron integrals neglected if value below      1.0D-11
 AO integral compression algorithm  1   Integral accuracy      1.0D-11

     19.923 MB (compressed) written to integral file ( 49.4%)


 NUMBER OF SORTED TWO-ELECTRON INTEGRALS:    4510506.     BUFFER LENGTH:  32768
 NUMBER OF SEGMENTS:   1  SEGMENT LENGTH:    4510506      RECORD LENGTH: 524288

 Memory used in sort:       5.07 MW

 SORT1 READ     5074366. AND WROTE     4244391. INTEGRALS IN     13 RECORDS. CPU TIME:     0.06 SEC, REAL TIME:     0.12 SEC
 SORT2 READ     4244391. AND WROTE     4510506. INTEGRALS IN     76 RECORDS. CPU TIME:     0.15 SEC, REAL TIME:     0.18 SEC

 FILE SIZES:   FILE 1:    50.3 MBYTE,  FILE 4:    54.6 MBYTE,   TOTAL:    104.8 MBYTE

 OPERATOR DM      FOR CENTER  0  COORDINATES:    0.000000    0.000000    0.000000


 **********************************************************************************************************************************
 DATASETS  * FILE   NREC   LENGTH (MB)   RECORD NAMES
              1      19       47.44       500      610      700      900      950      970     1000      129      960     1100   
                                          VAR    BASINP    GEOM    SYMINP    ZMAT    AOBASIS   BASIS     P2S    ABASIS      S 
                                         1400     1410     1200     1210     1080     1600     1650     1300     1700   
                                           T        V       H0       H01     AOSYM     SMH    MOLCAS    ERIS     OPER   

 PROGRAMS   *        TOTAL       INT
 CPU TIMES  *         1.22      1.07
 REAL TIME  *         1.70 SEC
 DISK USED  *       105.25 MB      
 **********************************************************************************************************************************

 Density functional group MM06-2X=M062XX+M062XC
 Functional: M062XX(Automatically generated (new) M062XX)                      Gradient terms: 2
 Functional: M062XC(Automatically generated (new) M062XC)                      Gradient terms: 2
 Use grid at  1800.2


 Exact exchange will be calculated, factor:  0.5400

 Functional: M062XX                    Factor:  0.4600
 Functional: M062XC                    Factor:  1.0000

 Generated new metagrid on record  1800.2 with target accuracy 1.0D-06 and 32470 points in CPU time    0.7
 Computed new grid on record 1800.1 in CPU time    0.8
  123858 words reserved for DFT integration

 PROGRAM * RKS-SCF (Restricted open shell Kohn-Sham)     Authors: W. Meyer, H.-J. Werner, P.J. Knowles, 1993

 NUMBER OF ELECTRONS:      13+   12-    SPACE SYMMETRY=1    SPIN SYMMETRY: Doublet 
 CONVERGENCE THRESHOLDS:    1.00E-05 (Density)    1.00E-06 (Energy)
 MAX. NUMBER OF ITERATIONS:       60
 INTERPOLATION TYPE:            DIIS
 INTERPOLATION STEPS:              2 (START)      1 (STEP)
 LEVEL SHIFTS:                 -0.60 (CLOSED) -0.30 (OPEN) 



 Use fine grid record 1800.2 for energy threshold  1.0D-06
 Orbital guess generated from atomic densities. Full valence occupancy:   13

 Molecular orbital dump at record        2100.2

 Initial alpha occupancy:  13
 Initial beta  occupancy:  12
 Wave function symmetry:    1

 ITERATION    DDIFF          GRAD             ENERGY        2-EL.EN.            DIPOLE MOMENTS         DIIS   ORB.
    1      0.000D+00      0.000D+00      -113.87406528    243.736788    0.18433   -0.24415    0.00000    0    start
    2      0.000D+00      0.507D-02      -113.90228168    240.082380    0.07033   -0.12929   -0.00000    1    diag,B
    3      0.450D-02      0.140D-02      -113.90473560    240.525794    0.04871   -0.11790   -0.00000    2    diag,B
    4      0.129D-02      0.538D-03      -113.90576964    240.428042    0.02640   -0.09967   -0.00000    3    diag,B
    5      0.121D-02      0.158D-03      -113.90587975    240.413182    0.02221   -0.09531   -0.00000    4    diag,B
    6      0.520D-03      0.406D-04      -113.90588730    240.406671    0.02176   -0.09434   -0.00000    5    diag,B
    7      0.146D-03      0.143D-04      -113.90588829    240.406504    0.02198   -0.09424   -0.00000    6    fixocc
    8      0.532D-04      0.446D-05      -113.90588840    240.406498    0.02205   -0.09420   -0.00000    7    diag,B
    9      0.182D-04      0.150D-05      -113.90588841    240.406590    0.02207   -0.09422   -0.00000    8    diag,B
   10      0.826D-05      0.393D-06      -113.90588841    240.406596    0.02207   -0.09422   -0.00000    0    orth

 Final alpha occupancy:  13
 Final beta  occupancy:  12

 !RKS STATE 1.1 Energy               -113.905888414632
 Nuclear energy                        75.20704826
 One-electron energy                 -304.76107777
 Two-electron energy                  120.20329782
 Density functional                    -4.55515672     M062XX=-8.10075273 M062XC=-0.82881046
 Virial quotient                       -0.98907038
 !RKS STATE 1.1 Dipole moment           0.02207399    -0.09422255    -0.00000000
 Dipole moment /Debye                   0.05610282    -0.23947416    -0.00000000

 Orbital energies:

         1.1          2.1          3.1          4.1          5.1          6.1          7.1          8.1          9.1         10.1
    -10.154979   -10.153951   -10.153904    -0.789768    -0.697410    -0.556840    -0.450208    -0.415239    -0.400793    -0.372121

        11.1         12.1         13.1         14.1         15.1
     -0.341888    -0.331121    -0.161160     0.149697     0.183865

 HOMO     13.1    -0.161160 =      -4.3854eV
 LUMO     14.1     0.149697 =       4.0735eV
 LUMO-HOMO         0.310857 =       8.4588eV


 **********************************************************************************************************************************
 DATASETS  * FILE   NREC   LENGTH (MB)   RECORD NAMES
              1      20       48.47       500      610      700      900      950      970     1000      129      960     1100   
                                          VAR    BASINP    GEOM    SYMINP    ZMAT    AOBASIS   BASIS     P2S    ABASIS      S 
                                         1400     1410     1200     1210     1080     1600     1650     1300     1700     1800   
                                           T        V       H0       H01     AOSYM     SMH    MOLCAS    ERIS     OPER     GRID   

              2       5        3.08       700     1000      520     1800     2100   
                                         GEOM     BASIS   MCVARS    GRID      RKS  

 PROGRAMS   *        TOTAL        KS       INT
 CPU TIMES  *        26.76     25.54      1.07
 REAL TIME  *        27.33 SEC
 DISK USED  *       105.25 MB      
 **********************************************************************************************************************************


 PROGRAM * Intrinsic Basis Bonding Analysis (IBBA)          Author: G. Knizia

 Molecular orbitals read from record     2100.2  Type=RKS/CANONICAL (state 1.1)
 Fock matrix read from record            2100.2  Type=RKS/TOTAL (state 1.1)
 Orbital energies read from record       2100.2  Type=RKS/CANONICAL (state 1.1)
 Density matrix read from record         2100.2  Type=RKS/CHARGE (state 1.1)

 Number of core orbitals:           3 (   3 )
 Number of closed-shell orbitals:   9 (   9 )
 Number of active  orbitals:        1 (   1 )

 Basis set MINAO-AUTO-PP generated.      Number of basis functions:   22 

 Polarized AO type:                A = (O Ot + (1-O)(1-Ot)) P12
 Orthogonalization method:         Symmetric (Loewdin)
 Localization functional:          L = sum[A,i] <i|n_A|i>^4 -> max

 Localization group 1:  12 orbitals, occupancy  2.000
 Iterative localization: IB/PM,    7 iter; Final gradient 0.57E-08

 Bond order analysis:       [THRPRINT= 0.020]

   CEN ATOM   CEN ATOM     WIBERG.BO      RENORM.BO
     1   H  -   2   C       0.958520       0.968387

     2   C  -   4   C       1.101005       1.494350
     2   C  -   3   C       1.101005       1.494350
     2   C  -   1   H       0.958520       0.968387
     2   C  -   9   H       0.043147       0.301868
     2   C  -  10   H       0.043147       0.301868

     3   C  -   2   C       1.101005       1.494350
     3   C  -   5   H       0.959205       0.988796
     3   C  -   7   H       0.949928       0.987120
     3   C  -   9   H       0.919006       0.998189

     4   C  -   2   C       1.101005       1.494350
     4   C  -   6   H       0.959205       0.988796
     4   C  -   8   H       0.949928       0.987120
     4   C  -  10   H       0.919006       0.998189

     5   H  -   3   C       0.959205       0.988796

     6   H  -   4   C       0.959205       0.988796

     7   H  -   3   C       0.949928       0.987120

     8   H  -   4   C       0.949928       0.987120

     9   H  -   3   C       0.919006       0.998189
     9   H  -   2   C       0.043147       0.301868

    10   H  -   4   C       0.919006       0.998189
    10   H  -   2   C       0.043147       0.301868


 Valency analysis:

   CEN ATOM   TOT.VALENCE
     1   H       0.989465
     2   C       3.288927
     3   C       3.949016
     4   C       3.949016
     5   H       0.984528
     6   H       0.984528
     7   H       0.983910
     8   H       0.983910
     9   H       0.974743
    10   H       0.974743
 Localization group 2:   1 orbitals, occupancy  1.000
 Iterative localization: IB/PM,    1 iter; Final gradient 0.00E+00

 Bond order analysis:       [THRPRINT= 0.020]

   CEN ATOM   CEN ATOM     WIBERG.BO      RENORM.BO

     2   C  -   9   H       0.082993       0.500000
     2   C  -  10   H       0.082993       0.500000
     2   C  -   7   H       0.026183       0.500000
     2   C  -   8   H       0.026183       0.500000





     7   H  -   2   C       0.026183       0.500000

     8   H  -   2   C       0.026183       0.500000

     9   H  -   2   C       0.082993       0.500000

    10   H  -   2   C       0.082993       0.500000


 Valency analysis:

   CEN ATOM   TOT.VALENCE
     1   H       0.000753
     2   C       0.242757
     3   C       0.003936
     4   C       0.003936
     5   H       0.009843
     6   H       0.009843
     7   H       0.030028
     8   H       0.030028
     9   H       0.091985
    10   H       0.091985

 Total charge composition:

   CEN ATOM         s          p       ELECTRONS ->P.CHARGE
     1   H       0.89774                 0.89774    0.10226
     2   C       2.97538    3.13145      6.10683   -0.10683
     3   C       2.97175    3.36761      6.33935   -0.33935
     4   C       2.97175    3.36761      6.33935   -0.33935
     5   H       0.88056                 0.88056    0.11944
     6   H       0.88056                 0.88056    0.11944
     7   H       0.88840                 0.88840    0.11160
     8   H       0.88840                 0.88840    0.11160
     9   H       0.88940                 0.88940    0.11060
    10   H       0.88940                 0.88940    0.11060

 Total charge composition, AO contributions:

   CEN ATOM SHL      SPHERICAL COMPONENTS
     1   H  1s       0.89774

     2   C  1s       1.99359
     2   C  2s       0.98178
     2   C  2p       1.09638    1.02239    1.01268

     3   C  1s       1.99222
     3   C  2s       0.97953
     3   C  2p       1.13259    1.13691    1.09810

     4   C  1s       1.99222
     4   C  2s       0.97953
     4   C  2p       1.13259    1.13691    1.09810

     5   H  1s       0.88056

     6   H  1s       0.88056

     7   H  1s       0.88840

     8   H  1s       0.88840

     9   H  1s       0.88940

    10   H  1s       0.88940

 Active orbital charges:

   CEN ATOM         s          p       ELECTRONS ->SPIN.DEN
     1   H       0.00038                 0.00038    0.00038
     2   C       0.00834    0.85030      0.85864    0.85864
     3   C       0.00011    0.00186      0.00197    0.00197
     4   C       0.00011    0.00186      0.00197    0.00197
     5   H       0.00495                 0.00495    0.00495
     6   H       0.00495                 0.00495    0.00495
     7   H       0.01525                 0.01525    0.01525
     8   H       0.01525                 0.01525    0.01525
     9   H       0.04833                 0.04833    0.04833
    10   H       0.04833                 0.04833    0.04833

 Active orbital charges, AO contributions:

   CEN ATOM SHL      SPHERICAL COMPONENTS
     1   H  1s       0.00038

     2   C  1s       0.00000
     2   C  2s       0.00833
     2   C  2p       0.03369    0.81661    0.00000

     3   C  1s       0.00000
     3   C  2s       0.00011
     3   C  2p       0.00001    0.00180    0.00005

     4   C  1s       0.00000
     4   C  2s       0.00011
     4   C  2p       0.00001    0.00180    0.00005

     5   H  1s       0.00495

     6   H  1s       0.00495

     7   H  1s       0.01525

     8   H  1s       0.01525

     9   H  1s       0.04833

    10   H  1s       0.04833

 Summary of localized orbital composition:   [THRPRINT= 0.020]

   ORB  GRP  ORB.ENERGY      CENTERS/CHARGES
     1   1   -10.058602      C  2   2.000
     2   1   -10.043552      C  3   2.000
     3   1   -10.043552      C  4   2.000
     4   1    -0.604931      C  3   1.009   C  2   0.983
     5   1    -0.604931      C  4   1.009   C  2   0.983
     6   1    -0.509709      C  2   1.099   H  1   0.887
     7   1    -0.494480      C  4   1.102   H 10   0.837   C  2   0.058
     8   1    -0.494480      C  3   1.102   H  9   0.837   C  2   0.058
     9   1    -0.491600      C  3   1.106   H  7   0.867   C  2   0.021
    10   1    -0.491600      C  4   1.106   H  8   0.867   C  2   0.021
    11   1    -0.490392      C  4   1.113   H  6   0.869
    12   1    -0.490392      C  3   1.113   H  5   0.869
    13   2    -0.045084      C  2   0.859   H  9   0.048   H 10   0.048   (other: 0.045)

 Localized orbitals saved to record      2100.2  (orbital set 2)


 **********************************************************************************************************************************
 DATASETS  * FILE   NREC   LENGTH (MB)   RECORD NAMES
              1      20       48.47       500      610      700      900      950      970     1000      129      960     1100   
                                          VAR    BASINP    GEOM    SYMINP    ZMAT    AOBASIS   BASIS     P2S    ABASIS      S 
                                         1400     1410     1200     1210     1080     1600     1650     1300     1700     1800   
                                           T        V       H0       H01     AOSYM     SMH    MOLCAS    ERIS     OPER     GRID   

              2       5        3.13       700     1000      520     1800     2100   
                                         GEOM     BASIS   MCVARS    GRID      RKS  

 PROGRAMS   *        TOTAL      IBBA        KS       INT
 CPU TIMES  *        26.79      0.03     25.54      1.07
 REAL TIME  *        27.42 SEC
 DISK USED  *       105.25 MB      
 **********************************************************************************************************************************
 Molecular orbitals read from record     2100.2  Type=RKS/LOCAL(IBO)  
 Occupation numbers read from record     2100.2  Type=RKS/LOCAL(IBO)  
 Orbital energies read from record       2100.2  Type=RKS/LOCAL(IBO)  
 Redundancy group numbers read from rec  2100.2  Type=RKS/LOCAL(IBO)  

 IBBA/SVP energy=      0.000000000000

        KS-SCF  
   -113.90588841
 **********************************************************************************************************************************
 Molpro calculation terminated
