
 Primary working directories    : /tmp/sb13343
 Secondary working directories  : /tmp/sb13343
 Wavefunction directory         : /panfs/panasas01/chem/sb13343/wfu/
 Main file repository           : /tmp/sb13343/

 SHA1      : b4a5b34a9e711420743f49e6833241d17c61fb3c
 NAME      : 2099.9.b4a5b34
 ARCHNAME  : linux/x86_64_openmp
 FC        : /cm/shared/languages/GCC-6.1/bin/gfortran
 BLASLIB   : -lblas
 id        : simonbennie

 Nodes     nprocs
 node32-002    1

 Using customized tuning parameters: mindgm=1; mindgv=20; mindgc=4; mindgr=1; noblas=0; minvec=7
 default implementation of scratch files=df  

 memory,500,m
 geomtyp=xyz
 nosym
 noorient
 geometry={
 H         -1.57413        0.33845        0.00000
 C         -0.49500        0.20144        0.00000
 C          0.18857       -0.05954       -1.30114
 C          0.18857       -0.05954        1.30114
 H         -0.33790        0.40751       -2.14134
 H         -0.33790        0.40751        2.14134
 H          1.22176        0.31596       -1.29638
 H          1.22176        0.31596        1.29638
 H          0.25678       -1.13976       -1.52896
 H          0.25678       -1.13976        1.52896
 }
 basis={ default,sto-3g }
 {ks,MM05-2X,direct;wf,25,1,1}
 {ibba,bonds=1}

 Variables initialized (895), CPU time= 0.00 sec
 Commands  initialized (725), CPU time= 0.02 sec, 591 directives.
 Default parameters read. Elapsed time= 0.13 sec

 Checking input...
 Passed
1


                                         ***  PROGRAM SYSTEM MOLPRO  ***
                                       Copyright, TTI GmbH Stuttgart, 2015
                                    Version 2099.9 linked May 26 2017 16:03:21


 **********************************************************************************************************************************
 LABEL *                                                                                 
  64 bit serial version                                                                  DATE: 08-Jun-17          TIME: 15:08:33  
 **********************************************************************************************************************************

 SHA1:             b4a5b34a9e711420743f49e6833241d17c61fb3c
 **********************************************************************************************************************************
 SETTING GEOMTYP        =    XYZ

 Variable memory set to  500000000 words,  buffer space 

 ZSYMEL=NOSYM

 SETTING BASIS          =    STO-3G


 Recomputing integrals since basis changed


 Using spherical harmonics

 Library entry H      S STO-3G               selected for orbital group  1
 Library entry C      S STO-3G               selected for orbital group  2
 Library entry C      P STO-3G               selected for orbital group  2


 PROGRAM * SEWARD (Integral evaluation for generally contracted gaussian basis sets)     Author: Roland Lindh, 1990

 Geometry written to block  1 of record 700


 Point group  C1  



 ATOMIC COORDINATES

 NR  ATOM    CHARGE       X              Y              Z

   1  H       1.00   -2.974674584    0.639577807    0.000000000
   2  C       6.00   -0.935414432    0.380666431    0.000000000
   3  C       6.00    0.356345655   -0.112514293   -2.458798250
   4  C       6.00    0.356345655   -0.112514293    2.458798250
   5  H       1.00   -0.638538457    0.770082293   -4.046546140
   6  H       1.00   -0.638538457    0.770082293    4.046546140
   7  H       1.00    2.308791790    0.597077866   -2.449803153
   8  H       1.00    2.308791790    0.597077866    2.449803153
   9  H       1.00    0.485243874   -2.153834248   -2.889315655
  10  H       1.00    0.485243874   -2.153834248    2.889315655

 Bond lengths in Bohr (Angstrom)

 1-2  2.055630578  2-3  2.820914777  2-4  2.820914777  3-5  2.071162595  3-7  2.077413742
     ( 1.087792856)     ( 1.492763814)     ( 1.492763814)     ( 1.096012045)     ( 1.099320010)

  3- 9  2.090202656   4- 6  2.071162595   4- 8  2.077413742   4-10  2.090202656
       ( 1.106087612)       ( 1.096012045)       ( 1.099320010)       ( 1.106087612)

 Bond angles

  1-2-3  118.44375943   1-2-4  118.44375943   2-3-5  111.94558337   2-3-7  111.52358867

  2- 3- 9  112.24140213   2- 4- 6  111.94558337   2- 4- 8  111.52358867   2- 4-10  112.24140213

  3-2-4  121.29758064   5-3-7  108.01204745   5-3-9  106.73207413   6-4-8  108.01204745

  6- 4-10  106.73207413   7- 3- 9  106.05262855   8- 4-10  106.05262855

 NUCLEAR CHARGE:                   25
 NUMBER OF PRIMITIVE AOS:          66
 NUMBER OF SYMMETRY AOS:           66
 NUMBER OF CONTRACTIONS:           22   (  22A   )
 NUMBER OF CORE ORBITALS:           3   (   3A   )
 NUMBER OF VALENCE ORBITALS:       19   (  19A   )


 NUCLEAR REPULSION ENERGY   75.20704826


 Eigenvalues of metric

         1 0.213E+00 0.225E+00 0.288E+00 0.342E+00 0.359E+00 0.374E+00 0.380E+00 0.402E+00


 Contracted 2-electron integrals neglected if value below      1.0D-11
 AO integral compression algorithm  1   Integral accuracy      1.0D-11

     0.524 MB (compressed) written to integral file ( 89.6%)


 NUMBER OF SORTED TWO-ELECTRON INTEGRALS:      32131.     BUFFER LENGTH:  32768
 NUMBER OF SEGMENTS:   1  SEGMENT LENGTH:      32131      RECORD LENGTH: 524288

 Memory used in sort:       0.59 MW

 SORT1 READ       38209. AND WROTE       30689. INTEGRALS IN      1 RECORDS. CPU TIME:     0.00 SEC, REAL TIME:     0.02 SEC
 SORT2 READ       30689. AND WROTE       32131. INTEGRALS IN      2 RECORDS. CPU TIME:     0.01 SEC, REAL TIME:     0.01 SEC

 FILE SIZES:   FILE 1:    30.6 MBYTE,  FILE 4:     4.2 MBYTE,   TOTAL:     34.9 MBYTE

 OPERATOR DM      FOR CENTER  0  COORDINATES:    0.000000    0.000000    0.000000


 **********************************************************************************************************************************
 DATASETS  * FILE   NREC   LENGTH (MB)   RECORD NAMES
              1      19       30.27       500      610      700      900      950      970     1000      129      960     1100   
                                          VAR    BASINP    GEOM    SYMINP    ZMAT    AOBASIS   BASIS     P2S    ABASIS      S 
                                         1400     1410     1200     1210     1080     1600     1650     1300     1700   
                                           T        V       H0       H01     AOSYM     SMH    MOLCAS    ERIS     OPER   

 PROGRAMS   *        TOTAL       INT
 CPU TIMES  *         0.50      0.35
 REAL TIME  *         1.29 SEC
 DISK USED  *        35.29 MB      
 **********************************************************************************************************************************

 Density functional group MM05-2X=M052XX+M052XC
 Functional: M052XX(Automatically generated (new) M052XX)                      Gradient terms: 2
 Functional: M052XC(Automatically generated (new) M052XC)                      Gradient terms: 2
 Use grid at  1800.2


 Exact exchange will be calculated, factor:  0.5600

 Functional: M052XX                    Factor:  0.4400
 Functional: M052XC                    Factor:  1.0000

 Generated new metagrid on record  1800.2 with target accuracy 1.0D-06 and 32470 points in CPU time    0.8
 Computed new grid on record 1800.1 in CPU time    0.9
   38486 words reserved for DFT integration

 PROGRAM * RKS-SCF (Restricted open shell Kohn-Sham)     Authors: W. Meyer, H.-J. Werner, P.J. Knowles, 1993

 NUMBER OF ELECTRONS:      13+   12-    SPACE SYMMETRY=1    SPIN SYMMETRY: Doublet 
 CONVERGENCE THRESHOLDS:    1.00E-05 (Density)    1.00E-06 (Energy)
 MAX. NUMBER OF ITERATIONS:       60
 INTERPOLATION TYPE:            DIIS
 INTERPOLATION STEPS:              2 (START)      1 (STEP)
 LEVEL SHIFTS:                 -0.60 (CLOSED) -0.30 (OPEN) 



 Use fine grid record 1800.2 for energy threshold  1.0D-06
 Orbital guess generated from atomic densities. Full valence occupancy:   13

 Molecular orbital dump at record        2100.2

 Initial alpha occupancy:  13
 Initial beta  occupancy:  12
 Wave function symmetry:    1

 ITERATION    DDIFF          GRAD             ENERGY        2-EL.EN.            DIPOLE MOMENTS         DIIS   ORB.
    1      0.000D+00      0.000D+00      -116.98521405    249.695033    0.21098   -0.29839    0.00000    0    start
    2      0.000D+00      0.238D-01      -117.09499817    244.267495    0.05332   -0.08777    0.00000    1    diag,B
    3      0.409D-01      0.240D-02      -117.09742254    243.956043    0.03336   -0.07093    0.00000    2    diag,B
    4      0.368D-02      0.930D-03      -117.09802288    243.935005    0.02654   -0.06828    0.00000    3    diag,B
    5      0.233D-02      0.213D-03      -117.09806222    243.933265    0.02526   -0.06728    0.00000    4    diag,B
    6      0.620D-03      0.456D-04      -117.09806356    243.932919    0.02529   -0.06693    0.00000    5    diag,B
    7      0.119D-03      0.650D-05      -117.09806358    243.933126    0.02533   -0.06693    0.00000    6    fixocc
    8      0.161D-04      0.178D-05      -117.09806359    243.933112    0.02533   -0.06693    0.00000    7    diag,B
    9      0.577D-05      0.347D-06      -117.09806359    243.933113    0.02533   -0.06693    0.00000    0    orth

 Final alpha occupancy:  13
 Final beta  occupancy:  12

 !RKS STATE 1.1 Energy               -117.098063586929
 Nuclear energy                        75.20704826
 One-electron energy                 -305.44731239
 Two-electron energy                  121.96655642
 Density functional                    -8.82435587     M052XX=-18.16824834 M052XC= -0.83032660
 Virial quotient                       -1.01523707
 !RKS STATE 1.1 Dipole moment           0.02533300    -0.06693055     0.00000000
 Dipole moment /Debye                   0.06438586    -0.17010934     0.00000000

 Orbital energies:

         1.1          2.1          3.1          4.1          5.1          6.1          7.1          8.1          9.1         10.1
    -10.401790   -10.401769   -10.364598    -0.830200    -0.746320    -0.605379    -0.484927    -0.451205    -0.437154    -0.415694

        11.1         12.1         13.1         14.1         15.1
     -0.373737    -0.368773    -0.188483     0.455210     0.486812

 HOMO     13.1    -0.188483 =      -5.1289eV
 LUMO     14.1     0.455210 =      12.3869eV
 LUMO-HOMO         0.643693 =      17.5158eV


 **********************************************************************************************************************************
 DATASETS  * FILE   NREC   LENGTH (MB)   RECORD NAMES
              1      20       31.31       500      610      700      900      950      970     1000      129      960     1100   
                                          VAR    BASINP    GEOM    SYMINP    ZMAT    AOBASIS   BASIS     P2S    ABASIS      S 
                                         1400     1410     1200     1210     1080     1600     1650     1300     1700     1800   
                                           T        V       H0       H01     AOSYM     SMH    MOLCAS    ERIS     OPER     GRID   

              2       5        2.92       700     1000      520     1800     2100   
                                         GEOM     BASIS   MCVARS    GRID      RKS  

 PROGRAMS   *        TOTAL        KS       INT
 CPU TIMES  *         5.85      5.35      0.35
 REAL TIME  *         9.74 SEC
 DISK USED  *        35.29 MB      
 **********************************************************************************************************************************


 PROGRAM * Intrinsic Basis Bonding Analysis (IBBA)          Author: G. Knizia

 Molecular orbitals read from record     2100.2  Type=RKS/CANONICAL (state 1.1)
 Fock matrix read from record            2100.2  Type=RKS/TOTAL (state 1.1)
 Orbital energies read from record       2100.2  Type=RKS/CANONICAL (state 1.1)
 Density matrix read from record         2100.2  Type=RKS/CHARGE (state 1.1)

 Number of core orbitals:           3 (   3 )
 Number of closed-shell orbitals:   9 (   9 )
 Number of active  orbitals:        1 (   1 )

 Basis set MINAO-AUTO-PP generated.      Number of basis functions:   22 

 Polarized AO type:                A = (O Ot + (1-O)(1-Ot)) P12
 Orthogonalization method:         Symmetric (Loewdin)
 Localization functional:          L = sum[A,i] <i|n_A|i>^4 -> max

 Localization group 1:  12 orbitals, occupancy  2.000
 Iterative localization: IB/PM,    7 iter; Final gradient 0.81E-09

 Bond order analysis:       [THRPRINT= 0.020]

   CEN ATOM   CEN ATOM     WIBERG.BO      RENORM.BO
     1   H  -   2   C       0.963049       0.974774

     2   C  -   4   C       1.065879       1.499411
     2   C  -   3   C       1.065879       1.499411
     2   C  -   1   H       0.963049       0.974774
     2   C  -   9   H       0.028659       0.314803
     2   C  -  10   H       0.028659       0.314803

     3   C  -   2   C       1.065879       1.499411
     3   C  -   5   H       0.960762       0.991292
     3   C  -   7   H       0.955850       0.991731
     3   C  -   9   H       0.936313       0.998809

     4   C  -   2   C       1.065879       1.499411
     4   C  -   6   H       0.960762       0.991292
     4   C  -   8   H       0.955850       0.991731
     4   C  -  10   H       0.936313       0.998809

     5   H  -   3   C       0.960762       0.991292

     6   H  -   4   C       0.960762       0.991292

     7   H  -   3   C       0.955850       0.991731

     8   H  -   4   C       0.955850       0.991731

     9   H  -   3   C       0.936313       0.998809
     9   H  -   2   C       0.028659       0.314803

    10   H  -   4   C       0.936313       0.998809
    10   H  -   2   C       0.028659       0.314803


 Valency analysis:

   CEN ATOM   TOT.VALENCE
     1   H       0.986107
     2   C       3.180732
     3   C       3.932067
     4   C       3.932067
     5   H       0.980272
     6   H       0.980272
     7   H       0.979763
     8   H       0.979763
     9   H       0.973663
    10   H       0.973663
 Localization group 2:   1 orbitals, occupancy  1.000
 Iterative localization: IB/PM,    1 iter; Final gradient 0.00E+00

 Bond order analysis:       [THRPRINT= 0.020]

   CEN ATOM   CEN ATOM     WIBERG.BO      RENORM.BO

     2   C  -  10   H       0.059521       0.500000
     2   C  -   9   H       0.059521       0.500000







     9   H  -   2   C       0.059521       0.500000

    10   H  -   2   C       0.059521       0.500000


 Valency analysis:

   CEN ATOM   TOT.VALENCE
     1   H       0.000703
     2   C       0.180733
     3   C       0.004783
     4   C       0.004783
     5   H       0.008001
     6   H       0.008001
     7   H       0.020887
     8   H       0.020887
     9   H       0.063979
    10   H       0.063979

 Total charge composition:

   CEN ATOM         s          p       ELECTRONS ->P.CHARGE
     1   H       0.88248                 0.88248    0.11752
     2   C       2.99785    3.10204      6.09989   -0.09989
     3   C       2.98454    3.42162      6.40616   -0.40616
     4   C       2.98454    3.42162      6.40616   -0.40616
     5   H       0.86356                 0.86356    0.13644
     6   H       0.86356                 0.86356    0.13644
     7   H       0.86830                 0.86830    0.13170
     8   H       0.86830                 0.86830    0.13170
     9   H       0.87080                 0.87080    0.12920
    10   H       0.87080                 0.87080    0.12920

 Total charge composition, AO contributions:

   CEN ATOM SHL      SPHERICAL COMPONENTS
     1   H  1s       0.88248

     2   C  1s       1.99272
     2   C  2s       1.00514
     2   C  2p       1.09905    1.00000    1.00299

     3   C  1s       1.99128
     3   C  2s       0.99326
     3   C  2p       1.15360    1.16329    1.10473

     4   C  1s       1.99128
     4   C  2s       0.99326
     4   C  2p       1.15360    1.16329    1.10473

     5   H  1s       0.86356

     6   H  1s       0.86356

     7   H  1s       0.86830

     8   H  1s       0.86830

     9   H  1s       0.87080

    10   H  1s       0.87080

 Active orbital charges:

   CEN ATOM         s          p       ELECTRONS ->SPIN.DEN
     1   H       0.00035                 0.00035    0.00035
     2   C       0.00952    0.89003      0.89954    0.89954
     3   C       0.00009    0.00231      0.00240    0.00240
     4   C       0.00009    0.00231      0.00240    0.00240
     5   H       0.00402                 0.00402    0.00402
     6   H       0.00402                 0.00402    0.00402
     7   H       0.01056                 0.01056    0.01056
     8   H       0.01056                 0.01056    0.01056
     9   H       0.03308                 0.03308    0.03308
    10   H       0.03308                 0.03308    0.03308

 Active orbital charges, AO contributions:

   CEN ATOM SHL      SPHERICAL COMPONENTS
     1   H  1s       0.00035

     2   C  1s       0.00001
     2   C  2s       0.00951
     2   C  2p       0.03692    0.85310    0.00000

     3   C  1s       0.00000
     3   C  2s       0.00009
     3   C  2p       0.00000    0.00213    0.00018

     4   C  1s       0.00000
     4   C  2s       0.00009
     4   C  2p       0.00000    0.00213    0.00018

     5   H  1s       0.00402

     6   H  1s       0.00402

     7   H  1s       0.01056

     8   H  1s       0.01056

     9   H  1s       0.03308

    10   H  1s       0.03308

 Summary of localized orbital composition:   [THRPRINT= 0.020]

   ORB  GRP  ORB.ENERGY      CENTERS/CHARGES
     1   1   -10.284371      C  4   2.000
     2   1   -10.284371      C  3   2.000
     3   1   -10.261112      C  2   2.000
     4   1    -0.627820      C  3   1.010   C  2   0.983
     5   1    -0.627820      C  4   1.010   C  2   0.983
     6   1    -0.557619      C  2   1.117   H  1   0.874
     7   1    -0.540447      C  3   1.126   H  9   0.834   C  2   0.037
     8   1    -0.540447      C  4   1.126   H 10   0.834   C  2   0.037
     9   1    -0.540398      C  3   1.133   H  5   0.854
    10   1    -0.540398      C  4   1.133   H  6   0.854
    11   1    -0.538373      C  3   1.129   H  7   0.853
    12   1    -0.538373      C  4   1.129   H  8   0.853
    13   2    -0.022402      C  2   0.900   H 10   0.033   H  9   0.033   (other: 0.034)

 Localized orbitals saved to record      2100.2  (orbital set 2)


 **********************************************************************************************************************************
 DATASETS  * FILE   NREC   LENGTH (MB)   RECORD NAMES
              1      20       31.31       500      610      700      900      950      970     1000      129      960     1100   
                                          VAR    BASINP    GEOM    SYMINP    ZMAT    AOBASIS   BASIS     P2S    ABASIS      S 
                                         1400     1410     1200     1210     1080     1600     1650     1300     1700     1800   
                                           T        V       H0       H01     AOSYM     SMH    MOLCAS    ERIS     OPER     GRID   

              2       5        2.92       700     1000      520     1800     2100   
                                         GEOM     BASIS   MCVARS    GRID      RKS  

 PROGRAMS   *        TOTAL      IBBA        KS       INT
 CPU TIMES  *         5.87      0.02      5.35      0.35
 REAL TIME  *         9.86 SEC
 DISK USED  *        35.29 MB      
 **********************************************************************************************************************************
 Molecular orbitals read from record     2100.2  Type=RKS/LOCAL(IBO)  
 Occupation numbers read from record     2100.2  Type=RKS/LOCAL(IBO)  
 Orbital energies read from record       2100.2  Type=RKS/LOCAL(IBO)  
 Redundancy group numbers read from rec  2100.2  Type=RKS/LOCAL(IBO)  

 IBBA/STO-3G energy=      0.000000000000

        KS-SCF  
   -117.09806359
 **********************************************************************************************************************************
 Molpro calculation terminated
