
 Primary working directories    : /tmp/sb13343
 Secondary working directories  : /tmp/sb13343
 Wavefunction directory         : /panfs/panasas01/chem/sb13343/wfu/
 Main file repository           : /tmp/sb13343/

 SHA1      : b4a5b34a9e711420743f49e6833241d17c61fb3c
 NAME      : 2099.9.b4a5b34
 ARCHNAME  : linux/x86_64_openmp
 FC        : /cm/shared/languages/GCC-6.1/bin/gfortran
 BLASLIB   : -lblas
 id        : simonbennie

 Nodes     nprocs
 node32-018    1

 Using customized tuning parameters: mindgm=1; mindgv=20; mindgc=4; mindgr=1; noblas=0; minvec=7
 default implementation of scratch files=df  

 memory,500,m
 geomtyp=xyz
 nosym
 noorient
 geometry={
 H         -1.57413        0.33845        0.00000
 C         -0.49500        0.20144        0.00000
 C          0.18857       -0.05954       -1.30114
 C          0.18857       -0.05954        1.30114
 H         -0.33790        0.40751       -2.14134
 H         -0.33790        0.40751        2.14134
 H          1.22176        0.31596       -1.29638
 H          1.22176        0.31596        1.29638
 H          0.25678       -1.13976       -1.52896
 H          0.25678       -1.13976        1.52896
 }
 basis={ default,svp }
 {ks,SOGGA,direct;wf,25,1,1}
 {ibba,bonds=1}

 Variables initialized (895), CPU time= 0.00 sec
 Commands  initialized (725), CPU time= 0.02 sec, 591 directives.
 Default parameters read. Elapsed time= 0.09 sec

 Checking input...
 Passed
1


                                         ***  PROGRAM SYSTEM MOLPRO  ***
                                       Copyright, TTI GmbH Stuttgart, 2015
                                    Version 2099.9 linked May 26 2017 16:03:21


 **********************************************************************************************************************************
 LABEL *                                                                                 
  64 bit serial version                                                                  DATE: 08-Jun-17          TIME: 15:34:41  
 **********************************************************************************************************************************

 SHA1:             b4a5b34a9e711420743f49e6833241d17c61fb3c
 **********************************************************************************************************************************
 SETTING GEOMTYP        =    XYZ

 Variable memory set to  500000000 words,  buffer space 

 ZSYMEL=NOSYM

 SETTING BASIS          =    SVP


 Recomputing integrals since basis changed


 Using spherical harmonics

 Library entry H      S def2-SVP             selected for orbital group  1
 Library entry H      P def2-SVP             selected for orbital group  1
 Library entry C      S def2-SVP             selected for orbital group  2
 Library entry C      P def2-SVP             selected for orbital group  2
 Library entry C      D def2-SVP             selected for orbital group  2


 PROGRAM * SEWARD (Integral evaluation for generally contracted gaussian basis sets)     Author: Roland Lindh, 1990

 Geometry written to block  1 of record 700


 Point group  C1  



 ATOMIC COORDINATES

 NR  ATOM    CHARGE       X              Y              Z

   1  H       1.00   -2.974674584    0.639577807    0.000000000
   2  C       6.00   -0.935414432    0.380666431    0.000000000
   3  C       6.00    0.356345655   -0.112514293   -2.458798250
   4  C       6.00    0.356345655   -0.112514293    2.458798250
   5  H       1.00   -0.638538457    0.770082293   -4.046546140
   6  H       1.00   -0.638538457    0.770082293    4.046546140
   7  H       1.00    2.308791790    0.597077866   -2.449803153
   8  H       1.00    2.308791790    0.597077866    2.449803153
   9  H       1.00    0.485243874   -2.153834248   -2.889315655
  10  H       1.00    0.485243874   -2.153834248    2.889315655

 Bond lengths in Bohr (Angstrom)

 1-2  2.055630578  2-3  2.820914777  2-4  2.820914777  3-5  2.071162595  3-7  2.077413742
     ( 1.087792856)     ( 1.492763814)     ( 1.492763814)     ( 1.096012045)     ( 1.099320010)

  3- 9  2.090202656   4- 6  2.071162595   4- 8  2.077413742   4-10  2.090202656
       ( 1.106087612)       ( 1.096012045)       ( 1.099320010)       ( 1.106087612)

 Bond angles

  1-2-3  118.44375943   1-2-4  118.44375943   2-3-5  111.94558337   2-3-7  111.52358867

  2- 3- 9  112.24140213   2- 4- 6  111.94558337   2- 4- 8  111.52358867   2- 4-10  112.24140213

  3-2-4  121.29758064   5-3-7  108.01204745   5-3-9  106.73207413   6-4-8  108.01204745

  6- 4-10  106.73207413   7- 3- 9  106.05262855   8- 4-10  106.05262855

 NUCLEAR CHARGE:                   25
 NUMBER OF PRIMITIVE AOS:         124
 NUMBER OF SYMMETRY AOS:          121
 NUMBER OF CONTRACTIONS:           77   (  77A   )
 NUMBER OF CORE ORBITALS:           3   (   3A   )
 NUMBER OF VALENCE ORBITALS:       19   (  19A   )


 NUCLEAR REPULSION ENERGY   75.20704826


 Eigenvalues of metric

         1 0.402E-02 0.537E-02 0.229E-01 0.265E-01 0.266E-01 0.379E-01 0.436E-01 0.492E-01


 Contracted 2-electron integrals neglected if value below      1.0D-11
 AO integral compression algorithm  1   Integral accuracy      1.0D-11

     19.923 MB (compressed) written to integral file ( 49.4%)


 NUMBER OF SORTED TWO-ELECTRON INTEGRALS:    4510506.     BUFFER LENGTH:  32768
 NUMBER OF SEGMENTS:   1  SEGMENT LENGTH:    4510506      RECORD LENGTH: 524288

 Memory used in sort:       5.07 MW

 SORT1 READ     5074366. AND WROTE     4244391. INTEGRALS IN     13 RECORDS. CPU TIME:     0.06 SEC, REAL TIME:     0.11 SEC
 SORT2 READ     4244391. AND WROTE     4510506. INTEGRALS IN     76 RECORDS. CPU TIME:     0.13 SEC, REAL TIME:     0.17 SEC

 FILE SIZES:   FILE 1:    50.3 MBYTE,  FILE 4:    54.6 MBYTE,   TOTAL:    104.8 MBYTE

 OPERATOR DM      FOR CENTER  0  COORDINATES:    0.000000    0.000000    0.000000


 **********************************************************************************************************************************
 DATASETS  * FILE   NREC   LENGTH (MB)   RECORD NAMES
              1      19       47.44       500      610      700      900      950      970     1000      129      960     1100   
                                          VAR    BASINP    GEOM    SYMINP    ZMAT    AOBASIS   BASIS     P2S    ABASIS      S 
                                         1400     1410     1200     1210     1080     1600     1650     1300     1700   
                                           T        V       H0       H01     AOSYM     SMH    MOLCAS    ERIS     OPER   

 PROGRAMS   *        TOTAL       INT
 CPU TIMES  *         1.02      0.88
 REAL TIME  *         1.46 SEC
 DISK USED  *       105.25 MB      
 **********************************************************************************************************************************

 Density functional group SOGGA=XC-SOGGA
 Functional: XC-SOGGA(via MFM 1.6)                                             Gradient terms: 1
 Use grid at  1800.2

 Functional: XC-SOGGA                  Factor:  1.0000

 Generated new metagrid on record  1800.2 with target accuracy 1.0D-06 and 32470 points in CPU time    0.7
 Computed new grid on record 1800.1 in CPU time    0.8
   65184 words reserved for DFT integration

 PROGRAM * RKS-SCF (Restricted open shell Kohn-Sham)     Authors: W. Meyer, H.-J. Werner, P.J. Knowles, 1993

 NUMBER OF ELECTRONS:      13+   12-    SPACE SYMMETRY=1    SPIN SYMMETRY: Doublet 
 CONVERGENCE THRESHOLDS:    1.00E-05 (Density)    1.00E-06 (Energy)
 MAX. NUMBER OF ITERATIONS:       60
 INTERPOLATION TYPE:            DIIS
 INTERPOLATION STEPS:              2 (START)      1 (STEP)
 LEVEL SHIFTS:                 -0.60 (CLOSED) -0.30 (OPEN) 



 Use fine grid record 1800.2 for energy threshold  1.0D-06
 Orbital guess generated from atomic densities. Full valence occupancy:   13

 Molecular orbital dump at record        2100.2

 Initial alpha occupancy:  13
 Initial beta  occupancy:  12
 Wave function symmetry:    1

 ITERATION    DDIFF          GRAD             ENERGY        2-EL.EN.            DIPOLE MOMENTS         DIIS   ORB.
    1      0.000D+00      0.000D+00      -117.35729780    273.068029    0.19922   -0.26821    0.00000    0    start
    2      0.000D+00      0.136D-01      -117.52163263    260.283812    0.04386   -0.08828   -0.00000    1    diag,B
    3      0.152D-01      0.529D-02      -117.54382872    263.122582    0.06025   -0.12562   -0.00000    2    diag,B
    4      0.456D-02      0.631D-03      -117.54462605    262.917642    0.05118   -0.11305   -0.00000    3    diag,B
    5      0.156D-02      0.234D-03      -117.54475407    262.898887    0.05082   -0.11305   -0.00000    4    diag,B
    6      0.712D-03      0.947D-04      -117.54477579    262.871971    0.04815   -0.11040   -0.00000    5    diag,B
    7      0.336D-03      0.278D-04      -117.54477824    262.870353    0.04850   -0.11071   -0.00000    6    fixocc
    8      0.124D-03      0.963D-05      -117.54477860    262.870408    0.04843   -0.11080   -0.00000    7    diag,B
    9      0.539D-04      0.257D-05      -117.54477862    262.870437    0.04842   -0.11088   -0.00000    8    diag,B
   10      0.119D-04      0.865D-06      -117.54477862    262.870384    0.04839   -0.11088   -0.00000    9    orth
   11      0.422D-05      0.176D-06      -117.54477862    262.870381    0.04838   -0.11088   -0.00000    0    orth

 Final alpha occupancy:  13
 Final beta  occupancy:  12

 !RKS STATE 1.1 Energy               -117.544778623413
 Nuclear energy                        75.20704826
 One-electron energy                 -306.23913442
 Two-electron energy                  131.43519072
 Density functional                   -17.94788319     XC-SOGGA=-17.94788319
 Virial quotient                       -1.00880900
 !RKS STATE 1.1 Dipole moment           0.04838246    -0.11087812    -0.00000000
 Dipole moment /Debye                   0.12296789    -0.28180561    -0.00000000

 Orbital energies:

         1.1          2.1          3.1          4.1          5.1          6.1          7.1          8.1          9.1         10.1
     -9.826863    -9.822153    -9.822139    -0.685113    -0.607333    -0.487153    -0.393059    -0.364826    -0.353109    -0.328972

        11.1         12.1         13.1         14.1         15.1
     -0.302515    -0.291640    -0.138705     0.052713     0.078335

 HOMO     13.1    -0.138705 =      -3.7744eV
 LUMO     14.1     0.052713 =       1.4344eV
 LUMO-HOMO         0.191418 =       5.2088eV


 **********************************************************************************************************************************
 DATASETS  * FILE   NREC   LENGTH (MB)   RECORD NAMES
              1      20       48.47       500      610      700      900      950      970     1000      129      960     1100   
                                          VAR    BASINP    GEOM    SYMINP    ZMAT    AOBASIS   BASIS     P2S    ABASIS      S 
                                         1400     1410     1200     1210     1080     1600     1650     1300     1700     1800   
                                           T        V       H0       H01     AOSYM     SMH    MOLCAS    ERIS     OPER     GRID   

              2       5        3.08       700     1000      520     1800     2100   
                                         GEOM     BASIS   MCVARS    GRID      RKS  

 PROGRAMS   *        TOTAL        KS       INT
 CPU TIMES  *         8.11      7.08      0.88
 REAL TIME  *         9.10 SEC
 DISK USED  *       105.25 MB      
 **********************************************************************************************************************************


 PROGRAM * Intrinsic Basis Bonding Analysis (IBBA)          Author: G. Knizia

 Molecular orbitals read from record     2100.2  Type=RKS/CANONICAL (state 1.1)
 Fock matrix read from record            2100.2  Type=RKS/TOTAL (state 1.1)
 Orbital energies read from record       2100.2  Type=RKS/CANONICAL (state 1.1)
 Density matrix read from record         2100.2  Type=RKS/CHARGE (state 1.1)

 Number of core orbitals:           3 (   3 )
 Number of closed-shell orbitals:   9 (   9 )
 Number of active  orbitals:        1 (   1 )

 Basis set MINAO-AUTO-PP generated.      Number of basis functions:   22 

 Polarized AO type:                A = (O Ot + (1-O)(1-Ot)) P12
 Orthogonalization method:         Symmetric (Loewdin)
 Localization functional:          L = sum[A,i] <i|n_A|i>^4 -> max

 Localization group 1:  12 orbitals, occupancy  2.000
 Iterative localization: IB/PM,    7 iter; Final gradient 0.70E-08

 Bond order analysis:       [THRPRINT= 0.020]

   CEN ATOM   CEN ATOM     WIBERG.BO      RENORM.BO
     1   H  -   2   C       0.950148       0.966111

     2   C  -   4   C       1.118762       1.492444
     2   C  -   3   C       1.118762       1.492444
     2   C  -   1   H       0.950148       0.966111
     2   C  -   9   H       0.046062       0.296437
     2   C  -  10   H       0.046062       0.296437

     3   C  -   2   C       1.118762       1.492444
     3   C  -   5   H       0.949704       0.987706
     3   C  -   7   H       0.939214       0.986481
     3   C  -   9   H       0.902195       0.997932

     4   C  -   2   C       1.118762       1.492444
     4   C  -   6   H       0.949704       0.987706
     4   C  -   8   H       0.939214       0.986481
     4   C  -  10   H       0.902195       0.997932

     5   H  -   3   C       0.949704       0.987706

     6   H  -   4   C       0.949704       0.987706

     7   H  -   3   C       0.939214       0.986481

     8   H  -   4   C       0.939214       0.986481

     9   H  -   3   C       0.902195       0.997932
     9   H  -   2   C       0.046062       0.296437

    10   H  -   4   C       0.902195       0.997932
    10   H  -   2   C       0.046062       0.296437


 Valency analysis:

   CEN ATOM   TOT.VALENCE
     1   H       0.982016
     2   C       3.323881
     3   C       3.931421
     4   C       3.931421
     5   H       0.975398
     6   H       0.975398
     7   H       0.974012
     8   H       0.974012
     9   H       0.961147
    10   H       0.961147
 Localization group 2:   1 orbitals, occupancy  1.000
 Iterative localization: IB/PM,    1 iter; Final gradient 0.00E+00

 Bond order analysis:       [THRPRINT= 0.020]

   CEN ATOM   CEN ATOM     WIBERG.BO      RENORM.BO

     2   C  -   9   H       0.089079       0.500000
     2   C  -  10   H       0.089079       0.500000
     2   C  -   7   H       0.027943       0.500000
     2   C  -   8   H       0.027943       0.500000





     7   H  -   2   C       0.027943       0.500000

     8   H  -   2   C       0.027943       0.500000

     9   H  -   2   C       0.089079       0.500000

    10   H  -   2   C       0.089079       0.500000


 Valency analysis:

   CEN ATOM   TOT.VALENCE
     1   H       0.000768
     2   C       0.263695
     3   C       0.006274
     4   C       0.006274
     5   H       0.010835
     6   H       0.010835
     7   H       0.032570
     8   H       0.032570
     9   H       0.100004
    10   H       0.100004

 Total charge composition:

   CEN ATOM         s          p       ELECTRONS ->P.CHARGE
     1   H       0.86628                 0.86628    0.13372
     2   C       3.00306    3.14356      6.14661   -0.14661
     3   C       3.01355    3.42038      6.43393   -0.43393
     4   C       3.01355    3.42038      6.43393   -0.43393
     5   H       0.84860                 0.84860    0.15140
     6   H       0.84860                 0.84860    0.15140
     7   H       0.85535                 0.85535    0.14465
     8   H       0.85535                 0.85535    0.14465
     9   H       0.85568                 0.85568    0.14432
    10   H       0.85568                 0.85568    0.14432

 Total charge composition, AO contributions:

   CEN ATOM SHL      SPHERICAL COMPONENTS
     1   H  1s       0.86628

     2   C  1s       1.99289
     2   C  2s       1.01016
     2   C  2p       1.10857    1.03143    1.00356

     3   C  1s       1.99135
     3   C  2s       1.02220
     3   C  2p       1.15390    1.15905    1.10743

     4   C  1s       1.99135
     4   C  2s       1.02220
     4   C  2p       1.15390    1.15905    1.10743

     5   H  1s       0.84860

     6   H  1s       0.84860

     7   H  1s       0.85535

     8   H  1s       0.85535

     9   H  1s       0.85568

    10   H  1s       0.85568

 Active orbital charges:

   CEN ATOM         s          p       ELECTRONS ->SPIN.DEN
     1   H       0.00038                 0.00038    0.00038
     2   C       0.00818    0.83556      0.84373    0.84373
     3   C       0.00011    0.00304      0.00315    0.00315
     4   C       0.00011    0.00304      0.00315    0.00315
     5   H       0.00545                 0.00545    0.00545
     6   H       0.00545                 0.00545    0.00545
     7   H       0.01656                 0.01656    0.01656
     8   H       0.01656                 0.01656    0.01656
     9   H       0.05279                 0.05279    0.05279
    10   H       0.05279                 0.05279    0.05279

 Active orbital charges, AO contributions:

   CEN ATOM SHL      SPHERICAL COMPONENTS
     1   H  1s       0.00038

     2   C  1s       0.00001
     2   C  2s       0.00817
     2   C  2p       0.03375    0.80181    0.00000

     3   C  1s       0.00000
     3   C  2s       0.00011
     3   C  2p       0.00000    0.00299    0.00005

     4   C  1s       0.00000
     4   C  2s       0.00011
     4   C  2p       0.00000    0.00299    0.00005

     5   H  1s       0.00545

     6   H  1s       0.00545

     7   H  1s       0.01656

     8   H  1s       0.01656

     9   H  1s       0.05279

    10   H  1s       0.05279

 Summary of localized orbital composition:   [THRPRINT= 0.020]

   ORB  GRP  ORB.ENERGY      CENTERS/CHARGES
     1   1    -9.730959      C  2   2.000
     2   1    -9.710639      C  3   2.000
     3   1    -9.710639      C  4   2.000
     4   1    -0.534858      C  3   1.011   C  2   0.981
     5   1    -0.534858      C  4   1.011   C  2   0.981
     6   1    -0.450303      C  2   1.131   H  1   0.855
     7   1    -0.438315      C  4   1.131   H 10   0.799   C  2   0.067
     8   1    -0.438315      C  3   1.131   H  9   0.799   C  2   0.067
     9   1    -0.434413      C  4   1.137   H  8   0.833   C  2   0.024
    10   1    -0.434413      C  3   1.137   H  7   0.833   C  2   0.024
    11   1    -0.433583      C  3   1.144   H  5   0.836
    12   1    -0.433583      C  4   1.144   H  6   0.836
    13   2    -0.102639      C  2   0.844   H  9   0.053   H 10   0.053   (other: 0.051)

 Localized orbitals saved to record      2100.2  (orbital set 2)


 **********************************************************************************************************************************
 DATASETS  * FILE   NREC   LENGTH (MB)   RECORD NAMES
              1      20       48.47       500      610      700      900      950      970     1000      129      960     1100   
                                          VAR    BASINP    GEOM    SYMINP    ZMAT    AOBASIS   BASIS     P2S    ABASIS      S 
                                         1400     1410     1200     1210     1080     1600     1650     1300     1700     1800   
                                           T        V       H0       H01     AOSYM     SMH    MOLCAS    ERIS     OPER     GRID   

              2       5        3.13       700     1000      520     1800     2100   
                                         GEOM     BASIS   MCVARS    GRID      RKS  

 PROGRAMS   *        TOTAL      IBBA        KS       INT
 CPU TIMES  *         8.13      0.03      7.08      0.88
 REAL TIME  *         9.18 SEC
 DISK USED  *       105.25 MB      
 **********************************************************************************************************************************
 Molecular orbitals read from record     2100.2  Type=RKS/LOCAL(IBO)  
 Occupation numbers read from record     2100.2  Type=RKS/LOCAL(IBO)  
 Orbital energies read from record       2100.2  Type=RKS/LOCAL(IBO)  
 Redundancy group numbers read from rec  2100.2  Type=RKS/LOCAL(IBO)  

 IBBA/SVP energy=      0.000000000000

        KS-SCF  
   -117.54477862
 **********************************************************************************************************************************
 Molpro calculation terminated
