
 Primary working directories    : /tmp/sb13343
 Secondary working directories  : /tmp/sb13343
 Wavefunction directory         : /panfs/panasas01/chem/sb13343/wfu/
 Main file repository           : /tmp/sb13343/

 SHA1      : b4a5b34a9e711420743f49e6833241d17c61fb3c
 NAME      : 2099.9.b4a5b34
 ARCHNAME  : linux/x86_64_openmp
 FC        : /cm/shared/languages/GCC-6.1/bin/gfortran
 BLASLIB   : -lblas
 id        : simonbennie

 Nodes     nprocs
 node32-017    1

 Using customized tuning parameters: mindgm=1; mindgv=20; mindgc=4; mindgr=1; noblas=0; minvec=7
 default implementation of scratch files=df  

 memory,500,m
 geomtyp=xyz
 nosym
 noorient
 geometry={
 H         -1.57413        0.33845        0.00000
 C         -0.49500        0.20144        0.00000
 C          0.18857       -0.05954       -1.30114
 C          0.18857       -0.05954        1.30114
 H         -0.33790        0.40751       -2.14134
 H         -0.33790        0.40751        2.14134
 H          1.22176        0.31596       -1.29638
 H          1.22176        0.31596        1.29638
 H          0.25678       -1.13976       -1.52896
 H          0.25678       -1.13976        1.52896
 }
 basis={ default,sto-3g }
 {ks,MM06-2X,direct;wf,25,1,1}
 {ibba,bonds=1}

 Variables initialized (895), CPU time= 0.00 sec
 Commands  initialized (725), CPU time= 0.01 sec, 591 directives.
 Default parameters read. Elapsed time= 0.08 sec

 Checking input...
 Passed
1


                                         ***  PROGRAM SYSTEM MOLPRO  ***
                                       Copyright, TTI GmbH Stuttgart, 2015
                                    Version 2099.9 linked May 26 2017 16:03:21


 **********************************************************************************************************************************
 LABEL *                                                                                 
  64 bit serial version                                                                  DATE: 08-Jun-17          TIME: 15:09:05  
 **********************************************************************************************************************************

 SHA1:             b4a5b34a9e711420743f49e6833241d17c61fb3c
 **********************************************************************************************************************************
 SETTING GEOMTYP        =    XYZ

 Variable memory set to  500000000 words,  buffer space 

 ZSYMEL=NOSYM

 SETTING BASIS          =    STO-3G


 Recomputing integrals since basis changed


 Using spherical harmonics

 Library entry H      S STO-3G               selected for orbital group  1
 Library entry C      S STO-3G               selected for orbital group  2
 Library entry C      P STO-3G               selected for orbital group  2


 PROGRAM * SEWARD (Integral evaluation for generally contracted gaussian basis sets)     Author: Roland Lindh, 1990

 Geometry written to block  1 of record 700


 Point group  C1  



 ATOMIC COORDINATES

 NR  ATOM    CHARGE       X              Y              Z

   1  H       1.00   -2.974674584    0.639577807    0.000000000
   2  C       6.00   -0.935414432    0.380666431    0.000000000
   3  C       6.00    0.356345655   -0.112514293   -2.458798250
   4  C       6.00    0.356345655   -0.112514293    2.458798250
   5  H       1.00   -0.638538457    0.770082293   -4.046546140
   6  H       1.00   -0.638538457    0.770082293    4.046546140
   7  H       1.00    2.308791790    0.597077866   -2.449803153
   8  H       1.00    2.308791790    0.597077866    2.449803153
   9  H       1.00    0.485243874   -2.153834248   -2.889315655
  10  H       1.00    0.485243874   -2.153834248    2.889315655

 Bond lengths in Bohr (Angstrom)

 1-2  2.055630578  2-3  2.820914777  2-4  2.820914777  3-5  2.071162595  3-7  2.077413742
     ( 1.087792856)     ( 1.492763814)     ( 1.492763814)     ( 1.096012045)     ( 1.099320010)

  3- 9  2.090202656   4- 6  2.071162595   4- 8  2.077413742   4-10  2.090202656
       ( 1.106087612)       ( 1.096012045)       ( 1.099320010)       ( 1.106087612)

 Bond angles

  1-2-3  118.44375943   1-2-4  118.44375943   2-3-5  111.94558337   2-3-7  111.52358867

  2- 3- 9  112.24140213   2- 4- 6  111.94558337   2- 4- 8  111.52358867   2- 4-10  112.24140213

  3-2-4  121.29758064   5-3-7  108.01204745   5-3-9  106.73207413   6-4-8  108.01204745

  6- 4-10  106.73207413   7- 3- 9  106.05262855   8- 4-10  106.05262855

 NUCLEAR CHARGE:                   25
 NUMBER OF PRIMITIVE AOS:          66
 NUMBER OF SYMMETRY AOS:           66
 NUMBER OF CONTRACTIONS:           22   (  22A   )
 NUMBER OF CORE ORBITALS:           3   (   3A   )
 NUMBER OF VALENCE ORBITALS:       19   (  19A   )


 NUCLEAR REPULSION ENERGY   75.20704826


 Eigenvalues of metric

         1 0.213E+00 0.225E+00 0.288E+00 0.342E+00 0.359E+00 0.374E+00 0.380E+00 0.402E+00


 Contracted 2-electron integrals neglected if value below      1.0D-11
 AO integral compression algorithm  1   Integral accuracy      1.0D-11

     0.524 MB (compressed) written to integral file ( 89.6%)


 NUMBER OF SORTED TWO-ELECTRON INTEGRALS:      32131.     BUFFER LENGTH:  32768
 NUMBER OF SEGMENTS:   1  SEGMENT LENGTH:      32131      RECORD LENGTH: 524288

 Memory used in sort:       0.59 MW

 SORT1 READ       38209. AND WROTE       30689. INTEGRALS IN      1 RECORDS. CPU TIME:     0.00 SEC, REAL TIME:     0.00 SEC
 SORT2 READ       30689. AND WROTE       32131. INTEGRALS IN      2 RECORDS. CPU TIME:     0.01 SEC, REAL TIME:     0.01 SEC

 FILE SIZES:   FILE 1:    30.6 MBYTE,  FILE 4:     4.2 MBYTE,   TOTAL:     34.9 MBYTE

 OPERATOR DM      FOR CENTER  0  COORDINATES:    0.000000    0.000000    0.000000


 **********************************************************************************************************************************
 DATASETS  * FILE   NREC   LENGTH (MB)   RECORD NAMES
              1      19       30.27       500      610      700      900      950      970     1000      129      960     1100   
                                          VAR    BASINP    GEOM    SYMINP    ZMAT    AOBASIS   BASIS     P2S    ABASIS      S 
                                         1400     1410     1200     1210     1080     1600     1650     1300     1700   
                                           T        V       H0       H01     AOSYM     SMH    MOLCAS    ERIS     OPER   

 PROGRAMS   *        TOTAL       INT
 CPU TIMES  *         0.53      0.39
 REAL TIME  *         0.84 SEC
 DISK USED  *        35.29 MB      
 **********************************************************************************************************************************

 Density functional group MM06-2X=M062XX+M062XC
 Functional: M062XX(Automatically generated (new) M062XX)                      Gradient terms: 2
 Functional: M062XC(Automatically generated (new) M062XC)                      Gradient terms: 2
 Use grid at  1800.2


 Exact exchange will be calculated, factor:  0.5400

 Functional: M062XX                    Factor:  0.4600
 Functional: M062XC                    Factor:  1.0000

 Generated new metagrid on record  1800.2 with target accuracy 1.0D-06 and 32470 points in CPU time    0.7
 Computed new grid on record 1800.1 in CPU time    0.8
   38486 words reserved for DFT integration

 PROGRAM * RKS-SCF (Restricted open shell Kohn-Sham)     Authors: W. Meyer, H.-J. Werner, P.J. Knowles, 1993

 NUMBER OF ELECTRONS:      13+   12-    SPACE SYMMETRY=1    SPIN SYMMETRY: Doublet 
 CONVERGENCE THRESHOLDS:    1.00E-05 (Density)    1.00E-06 (Energy)
 MAX. NUMBER OF ITERATIONS:       60
 INTERPOLATION TYPE:            DIIS
 INTERPOLATION STEPS:              2 (START)      1 (STEP)
 LEVEL SHIFTS:                 -0.60 (CLOSED) -0.30 (OPEN) 



 Use fine grid record 1800.2 for energy threshold  1.0D-06
 Orbital guess generated from atomic densities. Full valence occupancy:   13

 Molecular orbital dump at record        2100.2

 Initial alpha occupancy:  13
 Initial beta  occupancy:  12
 Wave function symmetry:    1

 ITERATION    DDIFF          GRAD             ENERGY        2-EL.EN.            DIPOLE MOMENTS         DIIS   ORB.
    1      0.000D+00      0.000D+00      -112.46594266    249.018591    0.19566   -0.27588    0.00000    0    start
    2      0.000D+00      0.226D-01      -112.56169191    243.948707    0.04791   -0.07498    0.00000    1    diag,B
    3      0.384D-01      0.202D-02      -112.56344238    243.741523    0.03429   -0.06327    0.00000    2    diag,B
    4      0.295D-02      0.811D-03      -112.56392774    243.723440    0.02889   -0.05954    0.00000    3    diag,B
    5      0.195D-02      0.215D-03      -112.56397244    243.720596    0.02713   -0.05715    0.00000    4    diag,B
    6      0.621D-03      0.510D-04      -112.56397444    243.720024    0.02690   -0.05624    0.00000    5    diag,B
    7      0.139D-03      0.866D-05      -112.56397449    243.720222    0.02694   -0.05620    0.00000    6    fixocc
    8      0.226D-04      0.278D-05      -112.56397450    243.720197    0.02695   -0.05620    0.00000    7    diag,B
    9      0.992D-05      0.544D-06      -112.56397450    243.720202    0.02695   -0.05619    0.00000    0    orth

 Final alpha occupancy:  13
 Final beta  occupancy:  12

 !RKS STATE 1.1 Energy               -112.563974500280
 Nuclear energy                        75.20704826
 One-electron energy                 -304.99510013
 Two-electron energy                  121.86010099
 Density functional                    -4.63602362     M062XX=-8.26121821 M062XC=-0.83586324
 Virial quotient                       -0.98009680
 !RKS STATE 1.1 Dipole moment           0.02695241    -0.05618989     0.00000000
 Dipole moment /Debye                   0.06850171    -0.14281110     0.00000000

 Orbital energies:

         1.1          2.1          3.1          4.1          5.1          6.1          7.1          8.1          9.1         10.1
     -9.903737    -9.903723    -9.856037    -0.719423    -0.634064    -0.491763    -0.377684    -0.345574    -0.327520    -0.306245

        11.1         12.1         13.1         14.1         15.1
     -0.260027    -0.255011    -0.059076     0.578970     0.626223

 HOMO     13.1    -0.059076 =      -1.6075eV
 LUMO     14.1     0.578970 =      15.7546eV
 LUMO-HOMO         0.638046 =      17.3621eV


 **********************************************************************************************************************************
 DATASETS  * FILE   NREC   LENGTH (MB)   RECORD NAMES
              1      20       31.31       500      610      700      900      950      970     1000      129      960     1100   
                                          VAR    BASINP    GEOM    SYMINP    ZMAT    AOBASIS   BASIS     P2S    ABASIS      S 
                                         1400     1410     1200     1210     1080     1600     1650     1300     1700     1800   
                                           T        V       H0       H01     AOSYM     SMH    MOLCAS    ERIS     OPER     GRID   

              2       5        2.92       700     1000      520     1800     2100   
                                         GEOM     BASIS   MCVARS    GRID      RKS  

 PROGRAMS   *        TOTAL        KS       INT
 CPU TIMES  *         5.19      4.66      0.39
 REAL TIME  *         5.81 SEC
 DISK USED  *        35.29 MB      
 **********************************************************************************************************************************


 PROGRAM * Intrinsic Basis Bonding Analysis (IBBA)          Author: G. Knizia

 Molecular orbitals read from record     2100.2  Type=RKS/CANONICAL (state 1.1)
 Fock matrix read from record            2100.2  Type=RKS/TOTAL (state 1.1)
 Orbital energies read from record       2100.2  Type=RKS/CANONICAL (state 1.1)
 Density matrix read from record         2100.2  Type=RKS/CHARGE (state 1.1)

 Number of core orbitals:           3 (   3 )
 Number of closed-shell orbitals:   9 (   9 )
 Number of active  orbitals:        1 (   1 )

 Basis set MINAO-AUTO-PP generated.      Number of basis functions:   22 

 Polarized AO type:                A = (O Ot + (1-O)(1-Ot)) P12
 Orthogonalization method:         Symmetric (Loewdin)
 Localization functional:          L = sum[A,i] <i|n_A|i>^4 -> max

 Localization group 1:  12 orbitals, occupancy  2.000
 Iterative localization: IB/PM,    7 iter; Final gradient 0.11E-08

 Bond order analysis:       [THRPRINT= 0.020]

   CEN ATOM   CEN ATOM     WIBERG.BO      RENORM.BO
     1   H  -   2   C       0.966949       0.974298

     2   C  -   4   C       1.071870       1.499657
     2   C  -   3   C       1.071870       1.499657
     2   C  -   1   H       0.966949       0.974298
     2   C  -   9   H       0.032385       0.308319
     2   C  -  10   H       0.032385       0.308319

     3   C  -   2   C       1.071870       1.499657
     3   C  -   5   H       0.963945       0.990869
     3   C  -   7   H       0.958059       0.991382
     3   C  -   9   H       0.935842       0.998769

     4   C  -   2   C       1.071870       1.499657
     4   C  -   6   H       0.963945       0.990869
     4   C  -   8   H       0.958059       0.991382
     4   C  -  10   H       0.935842       0.998769

     5   H  -   3   C       0.963945       0.990869

     6   H  -   4   C       0.963945       0.990869

     7   H  -   3   C       0.958059       0.991382

     8   H  -   4   C       0.958059       0.991382

     9   H  -   3   C       0.935842       0.998769
     9   H  -   2   C       0.032385       0.308319

    10   H  -   4   C       0.935842       0.998769
    10   H  -   2   C       0.032385       0.308319


 Valency analysis:

   CEN ATOM   TOT.VALENCE
     1   H       0.990962
     2   C       3.208705
     3   C       3.943605
     4   C       3.943605
     5   H       0.985538
     6   H       0.985538
     7   H       0.984923
     8   H       0.984923
     9   H       0.978708
    10   H       0.978708
 Localization group 2:   1 orbitals, occupancy  1.000
 Iterative localization: IB/PM,    1 iter; Final gradient 0.00E+00

 Bond order analysis:       [THRPRINT= 0.020]

   CEN ATOM   CEN ATOM     WIBERG.BO      RENORM.BO

     2   C  -  10   H       0.064756       0.500000
     2   C  -   9   H       0.064756       0.500000
     2   C  -   7   H       0.021048       0.500000
     2   C  -   8   H       0.021048       0.500000





     7   H  -   2   C       0.021048       0.500000

     8   H  -   2   C       0.021048       0.500000

     9   H  -   2   C       0.064756       0.500000

    10   H  -   2   C       0.064756       0.500000


 Valency analysis:

   CEN ATOM   TOT.VALENCE
     1   H       0.000519
     2   C       0.197018
     3   C       0.004859
     4   C       0.004859
     5   H       0.009115
     6   H       0.009115
     7   H       0.023390
     8   H       0.023390
     9   H       0.070172
    10   H       0.070172

 Total charge composition:

   CEN ATOM         s          p       ELECTRONS ->P.CHARGE
     1   H       0.90519                 0.90519    0.09481
     2   C       2.98026    3.09421      6.07447   -0.07447
     3   C       2.95949    3.38683      6.34631   -0.34631
     4   C       2.95949    3.38683      6.34631   -0.34631
     5   H       0.88432                 0.88432    0.11568
     6   H       0.88432                 0.88432    0.11568
     7   H       0.88905                 0.88905    0.11095
     8   H       0.88905                 0.88905    0.11095
     9   H       0.89049                 0.89049    0.10951
    10   H       0.89049                 0.89049    0.10951

 Total charge composition, AO contributions:

   CEN ATOM SHL      SPHERICAL COMPONENTS
     1   H  1s       0.90519

     2   C  1s       1.99403
     2   C  2s       0.98623
     2   C  2p       1.08696    1.00335    1.00390

     3   C  1s       1.99281
     3   C  2s       0.96667
     3   C  2p       1.13962    1.14675    1.10046

     4   C  1s       1.99281
     4   C  2s       0.96667
     4   C  2p       1.13962    1.14675    1.10046

     5   H  1s       0.88432

     6   H  1s       0.88432

     7   H  1s       0.88905

     8   H  1s       0.88905

     9   H  1s       0.89049

    10   H  1s       0.89049

 Active orbital charges:

   CEN ATOM         s          p       ELECTRONS ->SPIN.DEN
     1   H       0.00026                 0.00026    0.00026
     2   C       0.00949    0.87972      0.88922    0.88922
     3   C       0.00007    0.00236      0.00244    0.00244
     4   C       0.00007    0.00236      0.00244    0.00244
     5   H       0.00458                 0.00458    0.00458
     6   H       0.00458                 0.00458    0.00458
     7   H       0.01184                 0.01184    0.01184
     8   H       0.01184                 0.01184    0.01184
     9   H       0.03641                 0.03641    0.03641
    10   H       0.03641                 0.03641    0.03641

 Active orbital charges, AO contributions:

   CEN ATOM SHL      SPHERICAL COMPONENTS
     1   H  1s       0.00026

     2   C  1s       0.00000
     2   C  2s       0.00949
     2   C  2p       0.03639    0.84333    0.00000

     3   C  1s       0.00000
     3   C  2s       0.00007
     3   C  2p       0.00000    0.00224    0.00012

     4   C  1s       0.00000
     4   C  2s       0.00007
     4   C  2p       0.00000    0.00224    0.00012

     5   H  1s       0.00458

     6   H  1s       0.00458

     7   H  1s       0.01184

     8   H  1s       0.01184

     9   H  1s       0.03641

    10   H  1s       0.03641

 Summary of localized orbital composition:   [THRPRINT= 0.020]

   ORB  GRP  ORB.ENERGY      CENTERS/CHARGES
     1   1    -9.793169      C  4   2.000
     2   1    -9.793169      C  3   2.000
     3   1    -9.757372      C  2   2.000
     4   1    -0.510595      C  3   1.012   C  2   0.980
     5   1    -0.510595      C  4   1.012   C  2   0.980
     6   1    -0.441745      C  2   1.094   H  1   0.897
     7   1    -0.430430      C  3   1.106   H  9   0.850   C  2   0.042
     8   1    -0.430430      C  4   1.106   H 10   0.850   C  2   0.042
     9   1    -0.428820      C  3   1.112   H  5   0.874
    10   1    -0.428820      C  4   1.112   H  6   0.874
    11   1    -0.427831      C  3   1.108   H  7   0.872   (other: 0.020)
    12   1    -0.427831      C  4   1.108   H  8   0.872   (other: 0.020)
    13   2     0.089626      C  2   0.889   H 10   0.036   H  9   0.036   (other: 0.038)

 Localized orbitals saved to record      2100.2  (orbital set 2)


 **********************************************************************************************************************************
 DATASETS  * FILE   NREC   LENGTH (MB)   RECORD NAMES
              1      20       31.31       500      610      700      900      950      970     1000      129      960     1100   
                                          VAR    BASINP    GEOM    SYMINP    ZMAT    AOBASIS   BASIS     P2S    ABASIS      S 
                                         1400     1410     1200     1210     1080     1600     1650     1300     1700     1800   
                                           T        V       H0       H01     AOSYM     SMH    MOLCAS    ERIS     OPER     GRID   

              2       5        2.92       700     1000      520     1800     2100   
                                         GEOM     BASIS   MCVARS    GRID      RKS  

 PROGRAMS   *        TOTAL      IBBA        KS       INT
 CPU TIMES  *         5.22      0.03      4.66      0.39
 REAL TIME  *         5.89 SEC
 DISK USED  *        35.29 MB      
 **********************************************************************************************************************************
 Molecular orbitals read from record     2100.2  Type=RKS/LOCAL(IBO)  
 Occupation numbers read from record     2100.2  Type=RKS/LOCAL(IBO)  
 Orbital energies read from record       2100.2  Type=RKS/LOCAL(IBO)  
 Redundancy group numbers read from rec  2100.2  Type=RKS/LOCAL(IBO)  

 IBBA/STO-3G energy=      0.000000000000

        KS-SCF  
   -112.56397450
 **********************************************************************************************************************************
 Molpro calculation terminated
