
 Primary working directories    : /tmp/sb13343
 Secondary working directories  : /tmp/sb13343
 Wavefunction directory         : /panfs/panasas01/chem/sb13343/wfu/
 Main file repository           : /tmp/sb13343/

 SHA1      : b4a5b34a9e711420743f49e6833241d17c61fb3c
 NAME      : 2099.9.b4a5b34
 ARCHNAME  : linux/x86_64_openmp
 FC        : /cm/shared/languages/GCC-6.1/bin/gfortran
 BLASLIB   : -lblas
 id        : simonbennie

 Nodes     nprocs
 node32-018    1

 Using customized tuning parameters: mindgm=1; mindgv=20; mindgc=4; mindgr=1; noblas=0; minvec=7
 default implementation of scratch files=df  

 memory,500,m
 geomtyp=xyz
 nosym
 noorient
 geometry={
 H         -1.57413        0.33845        0.00000
 C         -0.49500        0.20144        0.00000
 C          0.18857       -0.05954       -1.30114
 C          0.18857       -0.05954        1.30114
 H         -0.33790        0.40751       -2.14134
 H         -0.33790        0.40751        2.14134
 H          1.22176        0.31596       -1.29638
 H          1.22176        0.31596        1.29638
 H          0.25678       -1.13976       -1.52896
 H          0.25678       -1.13976        1.52896
 }
 basis={ default,sto-3g }
 {uks,VWN,direct;wf,25,1,1}
 {ibba,bonds=1}

 Variables initialized (895), CPU time= 0.00 sec
 Commands  initialized (725), CPU time= 0.01 sec, 591 directives.
 Default parameters read. Elapsed time= 0.08 sec

 Checking input...
 Passed
1


                                         ***  PROGRAM SYSTEM MOLPRO  ***
                                       Copyright, TTI GmbH Stuttgart, 2015
                                    Version 2099.9 linked May 26 2017 16:03:21


 **********************************************************************************************************************************
 LABEL *                                                                                 
  64 bit serial version                                                                  DATE: 08-Jun-17          TIME: 15:13:21  
 **********************************************************************************************************************************

 SHA1:             b4a5b34a9e711420743f49e6833241d17c61fb3c
 **********************************************************************************************************************************
 SETTING GEOMTYP        =    XYZ

 Variable memory set to  500000000 words,  buffer space 

 ZSYMEL=NOSYM

 SETTING BASIS          =    STO-3G


 Recomputing integrals since basis changed


 Using spherical harmonics

 Library entry H      S STO-3G               selected for orbital group  1
 Library entry C      S STO-3G               selected for orbital group  2
 Library entry C      P STO-3G               selected for orbital group  2


 PROGRAM * SEWARD (Integral evaluation for generally contracted gaussian basis sets)     Author: Roland Lindh, 1990

 Geometry written to block  1 of record 700


 Point group  C1  



 ATOMIC COORDINATES

 NR  ATOM    CHARGE       X              Y              Z

   1  H       1.00   -2.974674584    0.639577807    0.000000000
   2  C       6.00   -0.935414432    0.380666431    0.000000000
   3  C       6.00    0.356345655   -0.112514293   -2.458798250
   4  C       6.00    0.356345655   -0.112514293    2.458798250
   5  H       1.00   -0.638538457    0.770082293   -4.046546140
   6  H       1.00   -0.638538457    0.770082293    4.046546140
   7  H       1.00    2.308791790    0.597077866   -2.449803153
   8  H       1.00    2.308791790    0.597077866    2.449803153
   9  H       1.00    0.485243874   -2.153834248   -2.889315655
  10  H       1.00    0.485243874   -2.153834248    2.889315655

 Bond lengths in Bohr (Angstrom)

 1-2  2.055630578  2-3  2.820914777  2-4  2.820914777  3-5  2.071162595  3-7  2.077413742
     ( 1.087792856)     ( 1.492763814)     ( 1.492763814)     ( 1.096012045)     ( 1.099320010)

  3- 9  2.090202656   4- 6  2.071162595   4- 8  2.077413742   4-10  2.090202656
       ( 1.106087612)       ( 1.096012045)       ( 1.099320010)       ( 1.106087612)

 Bond angles

  1-2-3  118.44375943   1-2-4  118.44375943   2-3-5  111.94558337   2-3-7  111.52358867

  2- 3- 9  112.24140213   2- 4- 6  111.94558337   2- 4- 8  111.52358867   2- 4-10  112.24140213

  3-2-4  121.29758064   5-3-7  108.01204745   5-3-9  106.73207413   6-4-8  108.01204745

  6- 4-10  106.73207413   7- 3- 9  106.05262855   8- 4-10  106.05262855

 NUCLEAR CHARGE:                   25
 NUMBER OF PRIMITIVE AOS:          66
 NUMBER OF SYMMETRY AOS:           66
 NUMBER OF CONTRACTIONS:           22   (  22A   )
 NUMBER OF CORE ORBITALS:           3   (   3A   )
 NUMBER OF VALENCE ORBITALS:       19   (  19A   )


 NUCLEAR REPULSION ENERGY   75.20704826


 Eigenvalues of metric

         1 0.213E+00 0.225E+00 0.288E+00 0.342E+00 0.359E+00 0.374E+00 0.380E+00 0.402E+00


 Contracted 2-electron integrals neglected if value below      1.0D-11
 AO integral compression algorithm  1   Integral accuracy      1.0D-11

     0.524 MB (compressed) written to integral file ( 89.6%)


 NUMBER OF SORTED TWO-ELECTRON INTEGRALS:      32131.     BUFFER LENGTH:  32768
 NUMBER OF SEGMENTS:   1  SEGMENT LENGTH:      32131      RECORD LENGTH: 524288

 Memory used in sort:       0.59 MW

 SORT1 READ       38209. AND WROTE       30689. INTEGRALS IN      1 RECORDS. CPU TIME:     0.00 SEC, REAL TIME:     0.01 SEC
 SORT2 READ       30689. AND WROTE       32131. INTEGRALS IN      2 RECORDS. CPU TIME:     0.01 SEC, REAL TIME:     0.01 SEC

 FILE SIZES:   FILE 1:    30.6 MBYTE,  FILE 4:     4.2 MBYTE,   TOTAL:     34.9 MBYTE

 OPERATOR DM      FOR CENTER  0  COORDINATES:    0.000000    0.000000    0.000000


 **********************************************************************************************************************************
 DATASETS  * FILE   NREC   LENGTH (MB)   RECORD NAMES
              1      19       30.27       500      610      700      900      950      970     1000      129      960     1100   
                                          VAR    BASINP    GEOM    SYMINP    ZMAT    AOBASIS   BASIS     P2S    ABASIS      S 
                                         1400     1410     1200     1210     1080     1600     1650     1300     1700   
                                           T        V       H0       H01     AOSYM     SMH    MOLCAS    ERIS     OPER   

 PROGRAMS   *        TOTAL       INT
 CPU TIMES  *         0.37      0.24
 REAL TIME  *         0.67 SEC
 DISK USED  *        35.29 MB      
 **********************************************************************************************************************************

 Density functional group VWN=VWN5
 Functional: VWN5(Automatically generated (new) VWN5)                          Gradient terms: 0
 Use grid at  1800.2

 Functional: VWN5                      Factor:  1.0000

 Generated new metagrid on record  1800.2 with target accuracy 1.0D-06 and 32470 points in CPU time    0.7
 Computed new grid on record 1800.1 in CPU time    0.8
   13340 words reserved for DFT integration

 PROGRAM * UKS-SCF (Unrestricted Kohn-Sham)     Authors: W. Meyer, H.-J. Werner, P.J. Knowles, 1993

 NUMBER OF ELECTRONS:      13+   12-    SPACE SYMMETRY=1    SPIN SYMMETRY: Doublet 
 CONVERGENCE THRESHOLDS:    1.00E-05 (Density)    1.00E-06 (Energy)
 MAX. NUMBER OF ITERATIONS:       60
 INTERPOLATION TYPE:            DIIS
 INTERPOLATION STEPS:              2 (START)      1 (STEP)
 LEVEL SHIFTS:                 -0.20 (ALPHA)  -0.20 (BETA) 



 Use fine grid record 1800.2 for energy threshold  1.0D-06
 Orbital guess generated from atomic densities. Full valence occupancy:   13

 Molecular orbital dump at record        2200.2

 Initial alpha occupation  13
 Initial beta  occupation  12

 ITERATION    DDIFF          GRAD             ENERGY        2-EL.EN.            DIPOLE MOMENTS         DIIS
    1      0.000D+00      0.000D+00       -99.74213614    263.615171    0.15692   -0.21304    0.00000    0
    2      0.323D-01      0.114D-01       -99.77597092    259.553794    0.05657   -0.03740    0.00000    1
    3      0.864D-02      0.410D-02       -99.78053155    260.612527    0.06283   -0.06644    0.00000    2
    4      0.759D-03      0.350D-03       -99.78057644    260.585605    0.05959   -0.06576    0.00000    3
    5      0.292D-03      0.150D-03       -99.78058782    260.590659    0.05743   -0.06389    0.00000    4
    6      0.202D-03      0.685D-04       -99.78059062    260.588314    0.05645   -0.06324    0.00000    5
    7      0.227D-04      0.838D-05       -99.78059067    260.588548    0.05638   -0.06328    0.00000    6
    8      0.532D-05      0.137D-05       -99.78059067    260.588533    0.05639   -0.06325    0.00000    5
    9      0.133D-05      0.342D-06       -99.78059067    260.588569    0.05639   -0.06327    0.00000    6

 Final alpha occupancy:  13
 Final beta  occupancy:  12

 !UKS STATE 1.1 Energy                -99.780590671734
 Nuclear energy                        75.20704826
 One-electron energy                 -303.75085628
 Two-electron energy                  130.29428432
 Density functional                    -1.53106697     VWN5=-1.53106697
 Virial quotient                       -0.88433973
 !UKS STATE 1.1 Dipole moment           0.05639150    -0.06326621     0.00000000
 Dipole moment /Debye                   0.14332350    -0.16079612     0.00000000

 Orbital energies for positive spin:

         1.1          2.1          3.1          4.1          5.1          6.1          7.1          8.1          9.1         10.1
     -7.748253    -7.748059    -7.660291    -0.186196    -0.117763     0.001981     0.072790     0.090791     0.121087     0.136701

        11.1         12.1         13.1         14.1         15.1
      0.195290     0.198662     0.428105     0.793069     0.851677

 Orbital energies for negative spin:

         1.1          2.1          3.1          4.1          5.1          6.1          7.1          8.1          9.1         10.1
     -7.748309    -7.748104    -7.662727    -0.190014    -0.119178    -0.002779     0.070833     0.086871     0.119316     0.134997

        11.1         12.1         13.1         14.1         15.1
      0.192858     0.196108     0.407728     0.791304     0.849549

 HOMO     13.1     0.428105 =      11.6493eV
 LUMO    -13.1     0.407728 =      11.0949eV
 LUMO-HOMO        -0.020377 =      -0.5545eV

 EXPECTATION VALUE OF S**2:             0.75010354

 Occupation number threshold for canonical orbitals:  1.999000 (occupied),  0.001000 (virtual)

 Number of pseudo-canonical orbitals per symmetry:   12
 Number of active natural orbitals per symmetry:      1

 Natural orbitals saved to record    2200.2 (Orbital set 3)

 Orbital spaces for UNO-CAS (Min. occupation: 0.020  Max. occupation: 1.980):

 Closed:       12
 Active:        1


 **********************************************************************************************************************************
 DATASETS  * FILE   NREC   LENGTH (MB)   RECORD NAMES
              1      20       31.31       500      610      700      900      950      970     1000      129      960     1100   
                                          VAR    BASINP    GEOM    SYMINP    ZMAT    AOBASIS   BASIS     P2S    ABASIS      S 
                                         1400     1410     1200     1210     1080     1600     1650     1300     1700     1800   
                                           T        V       H0       H01     AOSYM     SMH    MOLCAS    ERIS     OPER     GRID   

              2       5        2.93       700     1000      520     1800     2200   
                                         GEOM     BASIS   MCVARS    GRID      UKS  

 PROGRAMS   *        TOTAL       UKS       INT
 CPU TIMES  *         2.18      1.81      0.24
 REAL TIME  *         2.56 SEC
 DISK USED  *        35.29 MB      
 **********************************************************************************************************************************


 PROGRAM * Intrinsic Basis Bonding Analysis (IBBA)          Author: G. Knizia

 Molecular orbitals read from record     2200.2  Type=UKS/ALPHA (state 1.1)
 Fock matrix read from record            2200.2  Type=UKS/TOTAL (state 1.1)
 Orbital energies read from record       2200.2  Type=UKS/ALPHA (state 1.1)
 Density matrix read from record         2200.2  Type=UKS/CHARGE (state 1.1)

 Number of core orbitals:           3 (   3 )
 Number of closed-shell orbitals:   9 (   9 )
 Number of active  orbitals:        1 (   1 )

 Basis set MINAO-AUTO-PP generated.      Number of basis functions:   22 

 Polarized AO type:                A = (O Ot + (1-O)(1-Ot)) P12
 Orthogonalization method:         Symmetric (Loewdin)
 Localization functional:          L = sum[A,i] <i|n_A|i>^4 -> max

 Localization group 1:  12 orbitals, occupancy  2.000
 Iterative localization: IB/PM,    7 iter; Final gradient 0.74E-08

 Bond order analysis:       [THRPRINT= 0.020]

   CEN ATOM   CEN ATOM     WIBERG.BO      RENORM.BO
     1   H  -   2   C       0.967628       0.970133

     2   C  -   4   C       1.115270       1.498913
     2   C  -   3   C       1.115270       1.498913
     2   C  -   1   H       0.967628       0.970133
     2   C  -   9   H       0.054628       0.279967
     2   C  -  10   H       0.054628       0.279967

     3   C  -   2   C       1.115270       1.498913
     3   C  -   5   H       0.959812       0.987595
     3   C  -   7   H       0.947850       0.988349
     3   C  -   9   H       0.905537       0.997862

     4   C  -   2   C       1.115270       1.498913
     4   C  -   6   H       0.959812       0.987595
     4   C  -   8   H       0.947850       0.988349
     4   C  -  10   H       0.905537       0.997862

     5   H  -   3   C       0.959812       0.987595

     6   H  -   4   C       0.959812       0.987595

     7   H  -   3   C       0.947850       0.988349

     8   H  -   4   C       0.947850       0.988349

     9   H  -   3   C       0.905537       0.997862
     9   H  -   2   C       0.054628       0.279967

    10   H  -   4   C       0.905537       0.997862
    10   H  -   2   C       0.054628       0.279967


 Valency analysis:

   CEN ATOM   TOT.VALENCE
     1   H       0.998823
     2   C       3.367912
     3   C       3.949307
     4   C       3.949307
     5   H       0.994055
     6   H       0.994055
     7   H       0.992775
     8   H       0.992775
     9   H       0.984289
    10   H       0.984289
 Localization group 2:   1 orbitals, occupancy  1.000
 Iterative localization: IB/PM,    1 iter; Final gradient 0.00E+00

 Bond order analysis:       [THRPRINT= 0.020]

   CEN ATOM   CEN ATOM     WIBERG.BO      RENORM.BO

     2   C  -   9   H       0.099210       0.500000
     2   C  -  10   H       0.099210       0.500000
     2   C  -   7   H       0.033557       0.500000
     2   C  -   8   H       0.033557       0.500000





     7   H  -   2   C       0.033557       0.500000

     8   H  -   2   C       0.033557       0.500000

     9   H  -   2   C       0.099210       0.500000

    10   H  -   2   C       0.099210       0.500000


 Valency analysis:

   CEN ATOM   TOT.VALENCE
     1   H       0.000335
     2   C       0.304241
     3   C       0.006961
     4   C       0.006961
     5   H       0.016517
     6   H       0.016517
     7   H       0.040430
     8   H       0.040430
     9   H       0.114603
    10   H       0.114603

 Total charge composition:

   CEN ATOM         s          p       ELECTRONS ->P.CHARGE
     1   H       0.96586                 0.96586    0.03414
     2   C       2.91068    3.08347      5.99415    0.00585
     3   C       2.88209    3.33536      6.21745   -0.21745
     4   C       2.88209    3.33536      6.21745   -0.21745
     5   H       0.93122                 0.93122    0.06878
     6   H       0.93122                 0.93122    0.06878
     7   H       0.93564                 0.93564    0.06436
     8   H       0.93564                 0.93564    0.06436
     9   H       0.93568                 0.93568    0.06432
    10   H       0.93568                 0.93568    0.06432

 Total charge composition, AO contributions:

   CEN ATOM SHL      SPHERICAL COMPONENTS
     1   H  1s       0.96586

     2   C  1s       1.99836
     2   C  2s       0.91232
     2   C  2p       1.05703    1.02248    1.00396

     3   C  1s       1.99798
     3   C  2s       0.88411
     3   C  2p       1.11718    1.10973    1.10845

     4   C  1s       1.99798
     4   C  2s       0.88411
     4   C  2p       1.11718    1.10973    1.10845

     5   H  1s       0.93122

     6   H  1s       0.93122

     7   H  1s       0.93564

     8   H  1s       0.93564

     9   H  1s       0.93568

    10   H  1s       0.93568

 Active orbital charges:

   CEN ATOM         s          p       ELECTRONS ->SPIN.DEN
     1   H       0.00017                 0.00017    0.00017
     2   C       0.00686    0.80600      0.81286    0.81286
     3   C       0.00005    0.00344      0.00349    0.00349
     4   C       0.00005    0.00344      0.00349    0.00349
     5   H       0.00833                 0.00833    0.00833
     6   H       0.00833                 0.00833    0.00833
     7   H       0.02064                 0.02064    0.02064
     8   H       0.02064                 0.02064    0.02064
     9   H       0.06103                 0.06103    0.06103
    10   H       0.06103                 0.06103    0.06103

 Active orbital charges, AO contributions:

   CEN ATOM SHL      SPHERICAL COMPONENTS
     1   H  1s       0.00017

     2   C  1s       0.00000
     2   C  2s       0.00685
     2   C  2p       0.03244    0.77357    0.00000

     3   C  1s       0.00000
     3   C  2s       0.00005
     3   C  2p       0.00001    0.00338    0.00005

     4   C  1s       0.00000
     4   C  2s       0.00005
     4   C  2p       0.00001    0.00338    0.00005

     5   H  1s       0.00833

     6   H  1s       0.00833

     7   H  1s       0.02064

     8   H  1s       0.02064

     9   H  1s       0.06103

    10   H  1s       0.06103

 Summary of localized orbital composition:   [THRPRINT= 0.020]

   ORB  GRP  ORB.ENERGY      CENTERS/CHARGES
     1   1    -7.663015      C  3   2.000
     2   1    -7.663015      C  4   2.000
     3   1    -7.582972      C  2   2.000
     4   1    -0.000115      C  4   1.031   C  2   0.959
     5   1    -0.000115      C  3   1.031   C  2   0.959
     6   1     0.029146      C  3   1.053   H  9   0.867   C  2   0.075
     7   1     0.029146      C  4   1.053   H 10   0.867   C  2   0.075
     8   1     0.036707      C  3   1.059   H  7   0.907   C  2   0.027
     9   1     0.036707      C  4   1.059   H  8   0.907   C  2   0.027
    10   1     0.038736      C  4   1.064   H  6   0.915   (other: 0.021)
    11   1     0.038736      C  3   1.064   H  5   0.915   (other: 0.021)
    12   1     0.043468      C  2   1.031   H  1   0.956
    13   2     0.417889      C  2   0.813   H  9   0.061   H 10   0.061   H  7   0.021   H  8   0.021   (other: 0.024)

 Localized orbitals saved to record      2200.2  (orbital set 4)


 **********************************************************************************************************************************
 DATASETS  * FILE   NREC   LENGTH (MB)   RECORD NAMES
              1      20       31.31       500      610      700      900      950      970     1000      129      960     1100   
                                          VAR    BASINP    GEOM    SYMINP    ZMAT    AOBASIS   BASIS     P2S    ABASIS      S 
                                         1400     1410     1200     1210     1080     1600     1650     1300     1700     1800   
                                           T        V       H0       H01     AOSYM     SMH    MOLCAS    ERIS     OPER     GRID   

              2       5        2.94       700     1000      520     1800     2200   
                                         GEOM     BASIS   MCVARS    GRID      UKS  

 PROGRAMS   *        TOTAL      IBBA       UKS       INT
 CPU TIMES  *         2.21      0.02      1.81      0.24
 REAL TIME  *         2.64 SEC
 DISK USED  *        35.29 MB      
 **********************************************************************************************************************************
 Molecular orbitals read from record     2200.2  Type=UKS/LOCAL(IBO)  
 Occupation numbers read from record     2200.2  Type=UKS/LOCAL(IBO)  
 Orbital energies read from record       2200.2  Type=UKS/LOCAL(IBO)  
 Redundancy group numbers read from rec  2200.2  Type=UKS/BETA (state 1.1)

 IBBA/STO-3G energy=      0.000000000000

        UKS-SCF 
    -99.78059067
 **********************************************************************************************************************************
 Molpro calculation terminated
