
 Primary working directories    : /tmp/sb13343
 Secondary working directories  : /tmp/sb13343
 Wavefunction directory         : /panfs/panasas01/chem/sb13343/wfu/
 Main file repository           : /tmp/sb13343/

 SHA1      : b4a5b34a9e711420743f49e6833241d17c61fb3c
 NAME      : 2099.9.b4a5b34
 ARCHNAME  : linux/x86_64_openmp
 FC        : /cm/shared/languages/GCC-6.1/bin/gfortran
 BLASLIB   : -lblas
 id        : simonbennie

 Nodes     nprocs
 node32-017    1

 Using customized tuning parameters: mindgm=1; mindgv=20; mindgc=4; mindgr=1; noblas=0; minvec=7
 default implementation of scratch files=df  

 memory,500,m
 geomtyp=xyz
 nosym
 noorient
 geometry={
 H         -1.57413        0.33845        0.00000
 C         -0.49500        0.20144        0.00000
 C          0.18857       -0.05954       -1.30114
 C          0.18857       -0.05954        1.30114
 H         -0.33790        0.40751       -2.14134
 H         -0.33790        0.40751        2.14134
 H          1.22176        0.31596       -1.29638
 H          1.22176        0.31596        1.29638
 H          0.25678       -1.13976       -1.52896
 H          0.25678       -1.13976        1.52896
 }
 basis={ default,svp }
 {uks,VWN,direct;wf,25,1,1}
 {ibba,bonds=1}

 Variables initialized (895), CPU time= 0.01 sec
 Commands  initialized (725), CPU time= 0.01 sec, 591 directives.
 Default parameters read. Elapsed time= 0.08 sec

 Checking input...
 Passed
1


                                         ***  PROGRAM SYSTEM MOLPRO  ***
                                       Copyright, TTI GmbH Stuttgart, 2015
                                    Version 2099.9 linked May 26 2017 16:03:21


 **********************************************************************************************************************************
 LABEL *                                                                                 
  64 bit serial version                                                                  DATE: 08-Jun-17          TIME: 15:31:29  
 **********************************************************************************************************************************

 SHA1:             b4a5b34a9e711420743f49e6833241d17c61fb3c
 **********************************************************************************************************************************
 SETTING GEOMTYP        =    XYZ

 Variable memory set to  500000000 words,  buffer space 

 ZSYMEL=NOSYM

 SETTING BASIS          =    SVP


 Recomputing integrals since basis changed


 Using spherical harmonics

 Library entry H      S def2-SVP             selected for orbital group  1
 Library entry H      P def2-SVP             selected for orbital group  1
 Library entry C      S def2-SVP             selected for orbital group  2
 Library entry C      P def2-SVP             selected for orbital group  2
 Library entry C      D def2-SVP             selected for orbital group  2


 PROGRAM * SEWARD (Integral evaluation for generally contracted gaussian basis sets)     Author: Roland Lindh, 1990

 Geometry written to block  1 of record 700


 Point group  C1  



 ATOMIC COORDINATES

 NR  ATOM    CHARGE       X              Y              Z

   1  H       1.00   -2.974674584    0.639577807    0.000000000
   2  C       6.00   -0.935414432    0.380666431    0.000000000
   3  C       6.00    0.356345655   -0.112514293   -2.458798250
   4  C       6.00    0.356345655   -0.112514293    2.458798250
   5  H       1.00   -0.638538457    0.770082293   -4.046546140
   6  H       1.00   -0.638538457    0.770082293    4.046546140
   7  H       1.00    2.308791790    0.597077866   -2.449803153
   8  H       1.00    2.308791790    0.597077866    2.449803153
   9  H       1.00    0.485243874   -2.153834248   -2.889315655
  10  H       1.00    0.485243874   -2.153834248    2.889315655

 Bond lengths in Bohr (Angstrom)

 1-2  2.055630578  2-3  2.820914777  2-4  2.820914777  3-5  2.071162595  3-7  2.077413742
     ( 1.087792856)     ( 1.492763814)     ( 1.492763814)     ( 1.096012045)     ( 1.099320010)

  3- 9  2.090202656   4- 6  2.071162595   4- 8  2.077413742   4-10  2.090202656
       ( 1.106087612)       ( 1.096012045)       ( 1.099320010)       ( 1.106087612)

 Bond angles

  1-2-3  118.44375943   1-2-4  118.44375943   2-3-5  111.94558337   2-3-7  111.52358867

  2- 3- 9  112.24140213   2- 4- 6  111.94558337   2- 4- 8  111.52358867   2- 4-10  112.24140213

  3-2-4  121.29758064   5-3-7  108.01204745   5-3-9  106.73207413   6-4-8  108.01204745

  6- 4-10  106.73207413   7- 3- 9  106.05262855   8- 4-10  106.05262855

 NUCLEAR CHARGE:                   25
 NUMBER OF PRIMITIVE AOS:         124
 NUMBER OF SYMMETRY AOS:          121
 NUMBER OF CONTRACTIONS:           77   (  77A   )
 NUMBER OF CORE ORBITALS:           3   (   3A   )
 NUMBER OF VALENCE ORBITALS:       19   (  19A   )


 NUCLEAR REPULSION ENERGY   75.20704826


 Eigenvalues of metric

         1 0.402E-02 0.537E-02 0.229E-01 0.265E-01 0.266E-01 0.379E-01 0.436E-01 0.492E-01


 Contracted 2-electron integrals neglected if value below      1.0D-11
 AO integral compression algorithm  1   Integral accuracy      1.0D-11

     19.923 MB (compressed) written to integral file ( 49.4%)


 NUMBER OF SORTED TWO-ELECTRON INTEGRALS:    4510506.     BUFFER LENGTH:  32768
 NUMBER OF SEGMENTS:   1  SEGMENT LENGTH:    4510506      RECORD LENGTH: 524288

 Memory used in sort:       5.07 MW

 SORT1 READ     5074366. AND WROTE     4244391. INTEGRALS IN     13 RECORDS. CPU TIME:     0.06 SEC, REAL TIME:     0.11 SEC
 SORT2 READ     4244391. AND WROTE     4510506. INTEGRALS IN     76 RECORDS. CPU TIME:     0.14 SEC, REAL TIME:     0.19 SEC

 FILE SIZES:   FILE 1:    50.3 MBYTE,  FILE 4:    54.6 MBYTE,   TOTAL:    104.8 MBYTE

 OPERATOR DM      FOR CENTER  0  COORDINATES:    0.000000    0.000000    0.000000


 **********************************************************************************************************************************
 DATASETS  * FILE   NREC   LENGTH (MB)   RECORD NAMES
              1      19       47.44       500      610      700      900      950      970     1000      129      960     1100   
                                          VAR    BASINP    GEOM    SYMINP    ZMAT    AOBASIS   BASIS     P2S    ABASIS      S 
                                         1400     1410     1200     1210     1080     1600     1650     1300     1700   
                                           T        V       H0       H01     AOSYM     SMH    MOLCAS    ERIS     OPER   

 PROGRAMS   *        TOTAL       INT
 CPU TIMES  *         1.19      1.05
 REAL TIME  *         1.65 SEC
 DISK USED  *       105.25 MB      
 **********************************************************************************************************************************

 Density functional group VWN=VWN5
 Functional: VWN5(Automatically generated (new) VWN5)                          Gradient terms: 0
 Use grid at  1800.2

 Functional: VWN5                      Factor:  1.0000

 Generated new metagrid on record  1800.2 with target accuracy 1.0D-06 and 32470 points in CPU time    0.7
 Computed new grid on record 1800.1 in CPU time    0.8
   35847 words reserved for DFT integration

 PROGRAM * UKS-SCF (Unrestricted Kohn-Sham)     Authors: W. Meyer, H.-J. Werner, P.J. Knowles, 1993

 NUMBER OF ELECTRONS:      13+   12-    SPACE SYMMETRY=1    SPIN SYMMETRY: Doublet 
 CONVERGENCE THRESHOLDS:    1.00E-05 (Density)    1.00E-06 (Energy)
 MAX. NUMBER OF ITERATIONS:       60
 INTERPOLATION TYPE:            DIIS
 INTERPOLATION STEPS:              2 (START)      1 (STEP)
 LEVEL SHIFTS:                 -0.20 (ALPHA)  -0.20 (BETA) 



 Use fine grid record 1800.2 for energy threshold  1.0D-06
 Orbital guess generated from atomic densities. Full valence occupancy:   13

 Molecular orbital dump at record        2200.2

 Initial alpha occupation  13
 Initial beta  occupation  12

 ITERATION    DDIFF          GRAD             ENERGY        2-EL.EN.            DIPOLE MOMENTS         DIIS
    1      0.000D+00      0.000D+00      -101.48992731    243.771257   -0.13704    0.11429   -0.00000    0
    2      0.144D-01      0.498D-02      -101.52927488    252.890380   -0.00125   -0.00170   -0.00000    1
    3      0.451D-02      0.319D-02      -101.55604693    249.303044   -0.04226    0.03746   -0.00000    2
    4      0.122D-02      0.139D-03      -101.55621511    249.410925   -0.03473    0.01979   -0.00000    3
    5      0.906D-03      0.704D-04      -101.55627568    249.419374   -0.02948    0.00885   -0.00000    4
    6      0.951D-03      0.399D-04      -101.55630807    249.425448   -0.02770   -0.00475   -0.00000    5
    7      0.571D-03      0.215D-04      -101.55631851    249.430917   -0.02665   -0.01021   -0.00000    6
    8      0.340D-03      0.132D-04      -101.55632222    249.433956   -0.02736   -0.01339   -0.00000    7
    9      0.254D-03      0.733D-05      -101.55632371    249.433189   -0.02796   -0.01598   -0.00000    7
   10      0.114D-03      0.303D-05      -101.55632398    249.433258   -0.02805   -0.01640   -0.00000    7
   11      0.345D-04      0.121D-05      -101.55632402    249.433658   -0.02820   -0.01672   -0.00000    8
   12      0.163D-04      0.597D-06      -101.55632403    249.433257   -0.02822   -0.01671   -0.00000    9
   13      0.322D-05      0.161D-06      -101.55632403    249.433368   -0.02821   -0.01672   -0.00000    9
   14      0.985D-06      0.738D-07      -101.55632403    249.433321   -0.02822   -0.01671   -0.00000    9

 Final alpha occupancy:  13
 Final beta  occupancy:  12

 !UKS STATE 1.1 Energy               -101.556324026848
 Nuclear energy                        75.20704826
 One-electron energy                 -299.99490716
 Two-electron energy                  124.71666043
 Density functional                    -1.48512555     VWN5=-1.48512555
 Virial quotient                       -0.92446393
 !UKS STATE 1.1 Dipole moment          -0.02821655    -0.01671089    -0.00000000
 Dipole moment /Debye                  -0.07171462    -0.04247207    -0.00000000

 Orbital energies for positive spin:

         1.1          2.1          3.1          4.1          5.1          6.1          7.1          8.1          9.1         10.1
     -8.253409    -8.253372    -8.237830    -0.395404    -0.314755    -0.204475    -0.143291    -0.123191    -0.097397    -0.072629

        11.1         12.1         13.1         14.1         15.1
     -0.041172    -0.029671     0.123140     0.183857     0.218870

 Orbital energies for negative spin:

         1.1          2.1          3.1          4.1          5.1          6.1          7.1          8.1          9.1         10.1
     -8.253478    -8.253466    -8.239197    -0.399013    -0.316400    -0.208434    -0.145143    -0.127660    -0.099692    -0.074982

        11.1         12.1         13.1         14.1         15.1
     -0.042612    -0.032010     0.109973     0.180523     0.216391

 HOMO     13.1     0.123140 =       3.3508eV
 LUMO    -13.1     0.109973 =       2.9925eV
 LUMO-HOMO        -0.013167 =      -0.3583eV

 EXPECTATION VALUE OF S**2:             0.75018595

 Occupation number threshold for canonical orbitals:  1.999000 (occupied),  0.001000 (virtual)

 Number of pseudo-canonical orbitals per symmetry:   12
 Number of active natural orbitals per symmetry:      1

 Natural orbitals saved to record    2200.2 (Orbital set 3)

 Orbital spaces for UNO-CAS (Min. occupation: 0.020  Max. occupation: 1.980):

 Closed:       12
 Active:        1


 **********************************************************************************************************************************
 DATASETS  * FILE   NREC   LENGTH (MB)   RECORD NAMES
              1      20       48.47       500      610      700      900      950      970     1000      129      960     1100   
                                          VAR    BASINP    GEOM    SYMINP    ZMAT    AOBASIS   BASIS     P2S    ABASIS      S 
                                         1400     1410     1200     1210     1080     1600     1650     1300     1700     1800   
                                           T        V       H0       H01     AOSYM     SMH    MOLCAS    ERIS     OPER     GRID   

              2       5        3.16       700     1000      520     1800     2200   
                                         GEOM     BASIS   MCVARS    GRID      UKS  

 PROGRAMS   *        TOTAL       UKS       INT
 CPU TIMES  *         7.29      6.09      1.05
 REAL TIME  *         9.27 SEC
 DISK USED  *       105.25 MB      
 **********************************************************************************************************************************


 PROGRAM * Intrinsic Basis Bonding Analysis (IBBA)          Author: G. Knizia

 Molecular orbitals read from record     2200.2  Type=UKS/ALPHA (state 1.1)
 Fock matrix read from record            2200.2  Type=UKS/TOTAL (state 1.1)
 Orbital energies read from record       2200.2  Type=UKS/ALPHA (state 1.1)
 Density matrix read from record         2200.2  Type=UKS/CHARGE (state 1.1)

 Number of core orbitals:           3 (   3 )
 Number of closed-shell orbitals:   9 (   9 )
 Number of active  orbitals:        1 (   1 )

 Basis set MINAO-AUTO-PP generated.      Number of basis functions:   22 

 Polarized AO type:                A = (O Ot + (1-O)(1-Ot)) P12
 Orthogonalization method:         Symmetric (Loewdin)
 Localization functional:          L = sum[A,i] <i|n_A|i>^4 -> max

 Localization group 1:  12 orbitals, occupancy  2.000
 Iterative localization: IB/PM,    8 iter; Final gradient 0.21E-08

 Bond order analysis:       [THRPRINT= 0.020]

   CEN ATOM   CEN ATOM     WIBERG.BO      RENORM.BO
     1   H  -   2   C       0.946889       0.953027

     2   C  -   3   C       1.179627       1.490943
     2   C  -   4   C       1.179627       1.490943
     2   C  -   1   H       0.946889       0.953027
     2   C  -   9   H       0.074944       0.261231
     2   C  -  10   H       0.074944       0.261231
     2   C  -   7   H       0.026303       0.081949
     2   C  -   8   H       0.026303       0.081949

     3   C  -   2   C       1.179627       1.490943
     3   C  -   5   H       0.947547       0.980069
     3   C  -   7   H       0.924418       0.971642
     3   C  -   9   H       0.866360       0.994750

     4   C  -   2   C       1.179627       1.490943
     4   C  -   6   H       0.947547       0.980069
     4   C  -   8   H       0.924418       0.971642
     4   C  -  10   H       0.866360       0.994750

     5   H  -   3   C       0.947547       0.980069

     6   H  -   4   C       0.947547       0.980069

     7   H  -   3   C       0.924418       0.971642
     7   H  -   2   C       0.026303       0.081949

     8   H  -   4   C       0.924418       0.971642
     8   H  -   2   C       0.026303       0.081949

     9   H  -   3   C       0.866360       0.994750
     9   H  -   2   C       0.074944       0.261231

    10   H  -   4   C       0.866360       0.994750
    10   H  -   2   C       0.074944       0.261231


 Valency analysis:

   CEN ATOM   TOT.VALENCE
     1   H       0.999785
     2   C       3.535249
     3   C       3.960801
     4   C       3.960801
     5   H       0.995833
     6   H       0.995833
     7   H       0.993923
     8   H       0.993923
     9   H       0.979179
    10   H       0.979179
 Localization group 2:   1 orbitals, occupancy  1.000
 Iterative localization: IB/PM,    1 iter; Final gradient 0.00E+00

 Bond order analysis:       [THRPRINT= 0.020]

   CEN ATOM   CEN ATOM     WIBERG.BO      RENORM.BO

     2   C  -   9   H       0.140332       0.500000
     2   C  -  10   H       0.140332       0.500000
     2   C  -   7   H       0.044079       0.500000
     2   C  -   8   H       0.044079       0.500000





     7   H  -   2   C       0.044079       0.500000

     8   H  -   2   C       0.044079       0.500000

     9   H  -   2   C       0.140332       0.500000

    10   H  -   2   C       0.140332       0.500000


 Valency analysis:

   CEN ATOM   TOT.VALENCE
     1   H       0.000558
     2   C       0.402998
     3   C       0.006121
     4   C       0.006121
     5   H       0.017156
     6   H       0.017156
     7   H       0.059329
     8   H       0.059329
     9   H       0.175862
    10   H       0.175862

 Total charge composition:

   CEN ATOM         s          p       ELECTRONS ->P.CHARGE
     1   H       0.98562                 0.98562    0.01438
     2   C       2.89637    3.09838      5.99474    0.00526
     3   C       2.88384    3.27610      6.15994   -0.15994
     4   C       2.88384    3.27610      6.15994   -0.15994
     5   H       0.94410                 0.94410    0.05590
     6   H       0.94410                 0.94410    0.05590
     7   H       0.95265                 0.95265    0.04735
     8   H       0.95265                 0.95265    0.04735
     9   H       0.95313                 0.95313    0.04687
    10   H       0.95313                 0.95313    0.04687

 Total charge composition, AO contributions:

   CEN ATOM SHL      SPHERICAL COMPONENTS
     1   H  1s       0.98562

     2   C  1s       1.99818
     2   C  2s       0.89818
     2   C  2p       1.04231    1.04587    1.01019

     3   C  1s       1.99766
     3   C  2s       0.88618
     3   C  2p       1.09537    1.08430    1.09643

     4   C  1s       1.99766
     4   C  2s       0.88618
     4   C  2p       1.09537    1.08430    1.09643

     5   H  1s       0.94410

     6   H  1s       0.94410

     7   H  1s       0.95265

     8   H  1s       0.95265

     9   H  1s       0.95313

    10   H  1s       0.95313

 Active orbital charges:

   CEN ATOM         s          p       ELECTRONS ->SPIN.DEN
     1   H       0.00028                 0.00028    0.00028
     2   C       0.00600    0.71423      0.72023    0.72023
     3   C       0.00046    0.00261      0.00307    0.00307
     4   C       0.00046    0.00261      0.00307    0.00307
     5   H       0.00865                 0.00865    0.00865
     6   H       0.00865                 0.00865    0.00865
     7   H       0.03060                 0.03060    0.03060
     8   H       0.03060                 0.03060    0.03060
     9   H       0.09742                 0.09742    0.09742
    10   H       0.09742                 0.09742    0.09742

 Active orbital charges, AO contributions:

   CEN ATOM SHL      SPHERICAL COMPONENTS
     1   H  1s       0.00028

     2   C  1s       0.00000
     2   C  2s       0.00600
     2   C  2p       0.02644    0.68780    0.00000

     3   C  1s       0.00000
     3   C  2s       0.00046
     3   C  2p       0.00010    0.00249    0.00003

     4   C  1s       0.00000
     4   C  2s       0.00046
     4   C  2p       0.00010    0.00249    0.00003

     5   H  1s       0.00865

     6   H  1s       0.00865

     7   H  1s       0.03060

     8   H  1s       0.03060

     9   H  1s       0.09742

    10   H  1s       0.09742

 Summary of localized orbital composition:   [THRPRINT= 0.020]

   ORB  GRP  ORB.ENERGY      CENTERS/CHARGES
     1   1    -8.172272      C  4   2.000
     2   1    -8.172272      C  3   2.000
     3   1    -8.166235      C  2   2.000
     4   1    -0.249395      C  4   1.030   C  2   0.958
     5   1    -0.249395      C  3   1.030   C  2   0.958
     6   1    -0.172391      C  4   1.033   H 10   0.844   C  2   0.115
     7   1    -0.172391      C  3   1.033   H  9   0.844   C  2   0.115
     8   1    -0.167900      C  2   1.000   H  1   0.973   (other: 0.026)
     9   1    -0.166074      C  3   1.037   H  7   0.910   C  2   0.041
    10   1    -0.166074      C  4   1.037   H  8   0.910   C  2   0.041
    11   1    -0.162426      C  4   1.042   H  6   0.925   C  2   0.022
    12   1    -0.162426      C  3   1.042   H  5   0.925   C  2   0.022
    13   2     0.116550      C  2   0.720   H  9   0.097   H 10   0.097   H  7   0.031   H  8   0.031   (other: 0.024)

 Localized orbitals saved to record      2200.2  (orbital set 4)


 **********************************************************************************************************************************
 DATASETS  * FILE   NREC   LENGTH (MB)   RECORD NAMES
              1      20       48.47       500      610      700      900      950      970     1000      129      960     1100   
                                          VAR    BASINP    GEOM    SYMINP    ZMAT    AOBASIS   BASIS     P2S    ABASIS      S 
                                         1400     1410     1200     1210     1080     1600     1650     1300     1700     1800   
                                           T        V       H0       H01     AOSYM     SMH    MOLCAS    ERIS     OPER     GRID   

              2       5        3.21       700     1000      520     1800     2200   
                                         GEOM     BASIS   MCVARS    GRID      UKS  

 PROGRAMS   *        TOTAL      IBBA       UKS       INT
 CPU TIMES  *         7.31      0.02      6.09      1.05
 REAL TIME  *         9.35 SEC
 DISK USED  *       105.25 MB      
 **********************************************************************************************************************************
 Molecular orbitals read from record     2200.2  Type=UKS/LOCAL(IBO)  
 Occupation numbers read from record     2200.2  Type=UKS/LOCAL(IBO)  
 Orbital energies read from record       2200.2  Type=UKS/LOCAL(IBO)  
 Redundancy group numbers read from rec  2200.2  Type=UKS/BETA (state 1.1)

 IBBA/SVP energy=      0.000000000000

        UKS-SCF 
   -101.55632403
 **********************************************************************************************************************************
 Molpro calculation terminated
