
 Primary working directories    : /tmp/sb13343
 Secondary working directories  : /tmp/sb13343
 Wavefunction directory         : /panfs/panasas01/chem/sb13343/wfu/
 Main file repository           : /tmp/sb13343/

 SHA1      : b4a5b34a9e711420743f49e6833241d17c61fb3c
 NAME      : 2099.9.b4a5b34
 ARCHNAME  : linux/x86_64_openmp
 FC        : /cm/shared/languages/GCC-6.1/bin/gfortran
 BLASLIB   : -lblas
 id        : simonbennie

 Nodes     nprocs
 node32-018    1

 Using customized tuning parameters: mindgm=1; mindgv=20; mindgc=4; mindgr=1; noblas=0; minvec=7
 default implementation of scratch files=df  

 memory,500,m
 geomtyp=xyz
 nosym
 noorient
 geometry={
 H         -1.57413        0.33845        0.00000
 C         -0.49500        0.20144        0.00000
 C          0.18857       -0.05954       -1.30114
 C          0.18857       -0.05954        1.30114
 H         -0.33790        0.40751       -2.14134
 H         -0.33790        0.40751        2.14134
 H          1.22176        0.31596       -1.29638
 H          1.22176        0.31596        1.29638
 H          0.25678       -1.13976       -1.52896
 H          0.25678       -1.13976        1.52896
 }
 basis={ default,svp }
 {ks,M06,direct;wf,25,1,1}
 {ibba,bonds=1}

 Variables initialized (895), CPU time= 0.01 sec
 Commands  initialized (725), CPU time= 0.01 sec, 591 directives.
 Default parameters read. Elapsed time= 0.08 sec

 Checking input...
 Passed
1


                                         ***  PROGRAM SYSTEM MOLPRO  ***
                                       Copyright, TTI GmbH Stuttgart, 2015
                                    Version 2099.9 linked May 26 2017 16:03:21


 **********************************************************************************************************************************
 LABEL *                                                                                 
  64 bit serial version                                                                  DATE: 08-Jun-17          TIME: 15:32:33  
 **********************************************************************************************************************************

 SHA1:             b4a5b34a9e711420743f49e6833241d17c61fb3c
 **********************************************************************************************************************************
 SETTING GEOMTYP        =    XYZ

 Variable memory set to  500000000 words,  buffer space 

 ZSYMEL=NOSYM

 SETTING BASIS          =    SVP


 Recomputing integrals since basis changed


 Using spherical harmonics

 Library entry H      S def2-SVP             selected for orbital group  1
 Library entry H      P def2-SVP             selected for orbital group  1
 Library entry C      S def2-SVP             selected for orbital group  2
 Library entry C      P def2-SVP             selected for orbital group  2
 Library entry C      D def2-SVP             selected for orbital group  2


 PROGRAM * SEWARD (Integral evaluation for generally contracted gaussian basis sets)     Author: Roland Lindh, 1990

 Geometry written to block  1 of record 700


 Point group  C1  



 ATOMIC COORDINATES

 NR  ATOM    CHARGE       X              Y              Z

   1  H       1.00   -2.974674584    0.639577807    0.000000000
   2  C       6.00   -0.935414432    0.380666431    0.000000000
   3  C       6.00    0.356345655   -0.112514293   -2.458798250
   4  C       6.00    0.356345655   -0.112514293    2.458798250
   5  H       1.00   -0.638538457    0.770082293   -4.046546140
   6  H       1.00   -0.638538457    0.770082293    4.046546140
   7  H       1.00    2.308791790    0.597077866   -2.449803153
   8  H       1.00    2.308791790    0.597077866    2.449803153
   9  H       1.00    0.485243874   -2.153834248   -2.889315655
  10  H       1.00    0.485243874   -2.153834248    2.889315655

 Bond lengths in Bohr (Angstrom)

 1-2  2.055630578  2-3  2.820914777  2-4  2.820914777  3-5  2.071162595  3-7  2.077413742
     ( 1.087792856)     ( 1.492763814)     ( 1.492763814)     ( 1.096012045)     ( 1.099320010)

  3- 9  2.090202656   4- 6  2.071162595   4- 8  2.077413742   4-10  2.090202656
       ( 1.106087612)       ( 1.096012045)       ( 1.099320010)       ( 1.106087612)

 Bond angles

  1-2-3  118.44375943   1-2-4  118.44375943   2-3-5  111.94558337   2-3-7  111.52358867

  2- 3- 9  112.24140213   2- 4- 6  111.94558337   2- 4- 8  111.52358867   2- 4-10  112.24140213

  3-2-4  121.29758064   5-3-7  108.01204745   5-3-9  106.73207413   6-4-8  108.01204745

  6- 4-10  106.73207413   7- 3- 9  106.05262855   8- 4-10  106.05262855

 NUCLEAR CHARGE:                   25
 NUMBER OF PRIMITIVE AOS:         124
 NUMBER OF SYMMETRY AOS:          121
 NUMBER OF CONTRACTIONS:           77   (  77A   )
 NUMBER OF CORE ORBITALS:           3   (   3A   )
 NUMBER OF VALENCE ORBITALS:       19   (  19A   )


 NUCLEAR REPULSION ENERGY   75.20704826


 Eigenvalues of metric

         1 0.402E-02 0.537E-02 0.229E-01 0.265E-01 0.266E-01 0.379E-01 0.436E-01 0.492E-01


 Contracted 2-electron integrals neglected if value below      1.0D-11
 AO integral compression algorithm  1   Integral accuracy      1.0D-11

     19.923 MB (compressed) written to integral file ( 49.4%)


 NUMBER OF SORTED TWO-ELECTRON INTEGRALS:    4510506.     BUFFER LENGTH:  32768
 NUMBER OF SEGMENTS:   1  SEGMENT LENGTH:    4510506      RECORD LENGTH: 524288

 Memory used in sort:       5.07 MW

 SORT1 READ     5074366. AND WROTE     4244391. INTEGRALS IN     13 RECORDS. CPU TIME:     0.05 SEC, REAL TIME:     0.12 SEC
 SORT2 READ     4244391. AND WROTE     4510506. INTEGRALS IN     76 RECORDS. CPU TIME:     0.13 SEC, REAL TIME:     0.17 SEC

 FILE SIZES:   FILE 1:    50.3 MBYTE,  FILE 4:    54.6 MBYTE,   TOTAL:    104.8 MBYTE

 OPERATOR DM      FOR CENTER  0  COORDINATES:    0.000000    0.000000    0.000000


 **********************************************************************************************************************************
 DATASETS  * FILE   NREC   LENGTH (MB)   RECORD NAMES
              1      19       47.44       500      610      700      900      950      970     1000      129      960     1100   
                                          VAR    BASINP    GEOM    SYMINP    ZMAT    AOBASIS   BASIS     P2S    ABASIS      S 
                                         1400     1410     1200     1210     1080     1600     1650     1300     1700   
                                           T        V       H0       H01     AOSYM     SMH    MOLCAS    ERIS     OPER   

 PROGRAMS   *        TOTAL       INT
 CPU TIMES  *         1.00      0.86
 REAL TIME  *         1.44 SEC
 DISK USED  *       105.25 MB      
 **********************************************************************************************************************************

 Density functional group M06=XC-M06
 Functional: XC-M06(via MFM 1.6)                                               Gradient terms: 1
 Use grid at  1800.2


 Exact exchange will be calculated, factor:  0.2700

 Functional: XC-M06                    Factor:  1.0000

 Generated new metagrid on record  1800.2 with target accuracy 1.0D-06 and 32470 points in CPU time    0.7
 Computed new grid on record 1800.1 in CPU time    0.8
   65184 words reserved for DFT integration

 PROGRAM * RKS-SCF (Restricted open shell Kohn-Sham)     Authors: W. Meyer, H.-J. Werner, P.J. Knowles, 1993

 NUMBER OF ELECTRONS:      13+   12-    SPACE SYMMETRY=1    SPIN SYMMETRY: Doublet 
 CONVERGENCE THRESHOLDS:    1.00E-05 (Density)    1.00E-06 (Energy)
 MAX. NUMBER OF ITERATIONS:       60
 INTERPOLATION TYPE:            DIIS
 INTERPOLATION STEPS:              2 (START)      1 (STEP)
 LEVEL SHIFTS:                 -0.60 (CLOSED) -0.30 (OPEN) 



 Use fine grid record 1800.2 for energy threshold  1.0D-06
 Orbital guess generated from atomic densities. Full valence occupancy:   13

 Molecular orbital dump at record        2100.2

 Initial alpha occupancy:  13
 Initial beta  occupancy:  12
 Wave function symmetry:    1

 ITERATION    DDIFF          GRAD             ENERGY        2-EL.EN.            DIPOLE MOMENTS         DIIS   ORB.
    1      0.000D+00      0.000D+00      -118.15410798    261.246515    0.19763   -0.26015    0.00000    0    start
    2      0.000D+00      0.110D-01      -118.27076935    251.968445    0.04499   -0.09926   -0.00000    1    diag,B
    3      0.113D-01      0.314D-02      -118.27885960    253.496993    0.04809   -0.11359   -0.00000    2    diag,B
    4      0.287D-02      0.549D-03      -118.27967898    253.361213    0.03764   -0.10087   -0.00000    3    diag,B
    5      0.127D-02      0.214D-03      -118.27983788    253.338630    0.03471   -0.09710   -0.00000    4    diag,B
    6      0.643D-03      0.660D-04      -118.27985516    253.324723    0.03283   -0.09466   -0.00000    5    diag,B
    7      0.224D-03      0.197D-04      -118.27985673    253.325665    0.03299   -0.09450   -0.00000    6    fixocc
    8      0.638D-04      0.710D-05      -118.27985702    253.326360    0.03303   -0.09437   -0.00000    7    diag,B
    9      0.332D-04      0.175D-05      -118.27985704    253.326399    0.03302   -0.09433   -0.00000    8    diag,B
   10      0.798D-05      0.549D-06      -118.27985704    253.326382    0.03301   -0.09432   -0.00000    0    orth

 Final alpha occupancy:  13
 Final beta  occupancy:  12

 !RKS STATE 1.1 Energy               -118.279857036580
 Nuclear energy                        75.20704826
 One-electron energy                 -306.27890527
 Two-electron energy                  126.66319075
 Density functional                   -13.87119078     XC-M06=-13.87119078
 Virial quotient                       -1.01313998
 !RKS STATE 1.1 Dipole moment           0.03300935    -0.09431597    -0.00000000
 Dipole moment /Debye                   0.08389590    -0.23971159    -0.00000000

 Orbital energies:

         1.1          2.1          3.1          4.1          5.1          6.1          7.1          8.1          9.1         10.1
    -10.240544   -10.239991   -10.239971    -0.772382    -0.689695    -0.559931    -0.455483    -0.423468    -0.414277    -0.388475

        11.1         12.1         13.1         14.1         15.1
     -0.361908    -0.351375    -0.192568     0.076647     0.100012

 HOMO     13.1    -0.192568 =      -5.2400eV
 LUMO     14.1     0.076647 =       2.0857eV
 LUMO-HOMO         0.269215 =       7.3257eV


 **********************************************************************************************************************************
 DATASETS  * FILE   NREC   LENGTH (MB)   RECORD NAMES
              1      20       48.47       500      610      700      900      950      970     1000      129      960     1100   
                                          VAR    BASINP    GEOM    SYMINP    ZMAT    AOBASIS   BASIS     P2S    ABASIS      S 
                                         1400     1410     1200     1210     1080     1600     1650     1300     1700     1800   
                                           T        V       H0       H01     AOSYM     SMH    MOLCAS    ERIS     OPER     GRID   

              2       5        3.08       700     1000      520     1800     2100   
                                         GEOM     BASIS   MCVARS    GRID      RKS  

 PROGRAMS   *        TOTAL        KS       INT
 CPU TIMES  *        18.40     17.40      0.86
 REAL TIME  *        18.97 SEC
 DISK USED  *       105.25 MB      
 **********************************************************************************************************************************


 PROGRAM * Intrinsic Basis Bonding Analysis (IBBA)          Author: G. Knizia

 Molecular orbitals read from record     2100.2  Type=RKS/CANONICAL (state 1.1)
 Fock matrix read from record            2100.2  Type=RKS/TOTAL (state 1.1)
 Orbital energies read from record       2100.2  Type=RKS/CANONICAL (state 1.1)
 Density matrix read from record         2100.2  Type=RKS/CHARGE (state 1.1)

 Number of core orbitals:           3 (   3 )
 Number of closed-shell orbitals:   9 (   9 )
 Number of active  orbitals:        1 (   1 )

 Basis set MINAO-AUTO-PP generated.      Number of basis functions:   22 

 Polarized AO type:                A = (O Ot + (1-O)(1-Ot)) P12
 Orthogonalization method:         Symmetric (Loewdin)
 Localization functional:          L = sum[A,i] <i|n_A|i>^4 -> max

 Localization group 1:  12 orbitals, occupancy  2.000
 Iterative localization: IB/PM,    7 iter; Final gradient 0.52E-08

 Bond order analysis:       [THRPRINT= 0.020]

   CEN ATOM   CEN ATOM     WIBERG.BO      RENORM.BO
     1   H  -   2   C       0.954587       0.967986

     2   C  -   4   C       1.093725       1.496699
     2   C  -   3   C       1.093725       1.496699
     2   C  -   1   H       0.954587       0.967986
     2   C  -   9   H       0.037892       0.305670
     2   C  -  10   H       0.037892       0.305670

     3   C  -   2   C       1.093725       1.496699
     3   C  -   5   H       0.956949       0.988926
     3   C  -   7   H       0.949079       0.988222
     3   C  -   9   H       0.921488       0.998407

     4   C  -   2   C       1.093725       1.496699
     4   C  -   6   H       0.956949       0.988926
     4   C  -   8   H       0.949079       0.988222
     4   C  -  10   H       0.921488       0.998407

     5   H  -   3   C       0.956949       0.988926

     6   H  -   4   C       0.956949       0.988926

     7   H  -   3   C       0.949079       0.988222

     8   H  -   4   C       0.949079       0.988222

     9   H  -   3   C       0.921488       0.998407
     9   H  -   2   C       0.037892       0.305670

    10   H  -   4   C       0.921488       0.998407
    10   H  -   2   C       0.037892       0.305670


 Valency analysis:

   CEN ATOM   TOT.VALENCE
     1   H       0.984358
     2   C       3.254505
     3   C       3.938978
     4   C       3.938978
     5   H       0.979129
     6   H       0.979129
     7   H       0.978328
     8   H       0.978328
     9   H       0.968509
    10   H       0.968509
 Localization group 2:   1 orbitals, occupancy  1.000
 Iterative localization: IB/PM,    1 iter; Final gradient 0.00E+00

 Bond order analysis:       [THRPRINT= 0.020]

   CEN ATOM   CEN ATOM     WIBERG.BO      RENORM.BO

     2   C  -   9   H       0.078140       0.500000
     2   C  -  10   H       0.078140       0.500000
     2   C  -   7   H       0.024890       0.500000
     2   C  -   8   H       0.024890       0.500000





     7   H  -   2   C       0.024890       0.500000

     8   H  -   2   C       0.024890       0.500000

     9   H  -   2   C       0.078140       0.500000

    10   H  -   2   C       0.078140       0.500000


 Valency analysis:

   CEN ATOM   TOT.VALENCE
     1   H       0.000617
     2   C       0.228828
     3   C       0.002926
     4   C       0.002926
     5   H       0.009824
     6   H       0.009824
     7   H       0.028257
     8   H       0.028257
     9   H       0.085951
    10   H       0.085951

 Total charge composition:

   CEN ATOM         s          p       ELECTRONS ->P.CHARGE
     1   H       0.87524                 0.87524    0.12476
     2   C       2.99775    3.12878      6.12653   -0.12653
     3   C       3.01019    3.39379      6.40398   -0.40398
     4   C       3.01019    3.39379      6.40398   -0.40398
     5   H       0.86047                 0.86047    0.13953
     6   H       0.86047                 0.86047    0.13953
     7   H       0.86712                 0.86712    0.13288
     8   H       0.86712                 0.86712    0.13288
     9   H       0.86754                 0.86754    0.13246
    10   H       0.86754                 0.86754    0.13246

 Total charge composition, AO contributions:

   CEN ATOM SHL      SPHERICAL COMPONENTS
     1   H  1s       0.87524

     2   C  1s       1.99257
     2   C  2s       1.00518
     2   C  2p       1.10349    1.01414    1.01115

     3   C  1s       1.99105
     3   C  2s       1.01914
     3   C  2p       1.14214    1.15132    1.10033

     4   C  1s       1.99105
     4   C  2s       1.01914
     4   C  2p       1.14214    1.15132    1.10033

     5   H  1s       0.86047

     6   H  1s       0.86047

     7   H  1s       0.86712

     8   H  1s       0.86712

     9   H  1s       0.86754

    10   H  1s       0.86754

 Active orbital charges:

   CEN ATOM         s          p       ELECTRONS ->SPIN.DEN
     1   H       0.00031                 0.00031    0.00031
     2   C       0.00869    0.85953      0.86822    0.86822
     3   C       0.00007    0.00139      0.00146    0.00146
     4   C       0.00007    0.00139      0.00146    0.00146
     5   H       0.00494                 0.00494    0.00494
     6   H       0.00494                 0.00494    0.00494
     7   H       0.01433                 0.01433    0.01433
     8   H       0.01433                 0.01433    0.01433
     9   H       0.04500                 0.04500    0.04500
    10   H       0.04500                 0.04500    0.04500

 Active orbital charges, AO contributions:

   CEN ATOM SHL      SPHERICAL COMPONENTS
     1   H  1s       0.00031

     2   C  1s       0.00001
     2   C  2s       0.00869
     2   C  2p       0.03475    0.82478    0.00000

     3   C  1s       0.00000
     3   C  2s       0.00007
     3   C  2p       0.00001    0.00134    0.00005

     4   C  1s       0.00000
     4   C  2s       0.00007
     4   C  2p       0.00001    0.00134    0.00005

     5   H  1s       0.00494

     6   H  1s       0.00494

     7   H  1s       0.01433

     8   H  1s       0.01433

     9   H  1s       0.04500

    10   H  1s       0.04500

 Summary of localized orbital composition:   [THRPRINT= 0.020]

   ORB  GRP  ORB.ENERGY      CENTERS/CHARGES
     1   1   -10.141201      C  2   2.000
     2   1   -10.124106      C  4   2.000
     3   1   -10.124106      C  3   2.000
     4   1    -0.608632      C  3   1.007   C  2   0.986
     5   1    -0.608632      C  4   1.007   C  2   0.986
     6   1    -0.519916      C  2   1.123   H  1   0.865
     7   1    -0.503814      C  4   1.127   H 10   0.819   C  2   0.052
     8   1    -0.503814      C  3   1.127   H  9   0.819   C  2   0.052
     9   1    -0.501334      C  4   1.128   H  8   0.848   (other: 0.024)
    10   1    -0.501334      C  3   1.128   H  7   0.848   (other: 0.024)
    11   1    -0.500307      C  3   1.134   H  5   0.850
    12   1    -0.500307      C  4   1.134   H  6   0.850
    13   2    -0.104098      C  2   0.868   H  9   0.045   H 10   0.045   (other: 0.042)

 Localized orbitals saved to record      2100.2  (orbital set 2)


 **********************************************************************************************************************************
 DATASETS  * FILE   NREC   LENGTH (MB)   RECORD NAMES
              1      20       48.47       500      610      700      900      950      970     1000      129      960     1100   
                                          VAR    BASINP    GEOM    SYMINP    ZMAT    AOBASIS   BASIS     P2S    ABASIS      S 
                                         1400     1410     1200     1210     1080     1600     1650     1300     1700     1800   
                                           T        V       H0       H01     AOSYM     SMH    MOLCAS    ERIS     OPER     GRID   

              2       5        3.13       700     1000      520     1800     2100   
                                         GEOM     BASIS   MCVARS    GRID      RKS  

 PROGRAMS   *        TOTAL      IBBA        KS       INT
 CPU TIMES  *        18.44      0.04     17.40      0.86
 REAL TIME  *        19.07 SEC
 DISK USED  *       105.25 MB      
 **********************************************************************************************************************************
 Molecular orbitals read from record     2100.2  Type=RKS/LOCAL(IBO)  
 Occupation numbers read from record     2100.2  Type=RKS/LOCAL(IBO)  
 Orbital energies read from record       2100.2  Type=RKS/LOCAL(IBO)  
 Redundancy group numbers read from rec  2100.2  Type=RKS/LOCAL(IBO)  

 IBBA/SVP energy=      0.000000000000

        KS-SCF  
   -118.27985704
 **********************************************************************************************************************************
 Molpro calculation terminated
