
 Primary working directories    : /tmp/sb13343
 Secondary working directories  : /tmp/sb13343
 Wavefunction directory         : /panfs/panasas01/chem/sb13343/wfu/
 Main file repository           : /tmp/sb13343/

 SHA1      : b4a5b34a9e711420743f49e6833241d17c61fb3c
 NAME      : 2099.9.b4a5b34
 ARCHNAME  : linux/x86_64_openmp
 FC        : /cm/shared/languages/GCC-6.1/bin/gfortran
 BLASLIB   : -lblas
 id        : simonbennie

 Nodes     nprocs
 node32-017    1

 Using customized tuning parameters: mindgm=1; mindgv=20; mindgc=4; mindgr=1; noblas=0; minvec=7
 default implementation of scratch files=df  

 memory,500,m
 geomtyp=xyz
 nosym
 noorient
 geometry={
 H         -1.57413        0.33845        0.00000
 C         -0.49500        0.20144        0.00000
 C          0.18857       -0.05954       -1.30114
 C          0.18857       -0.05954        1.30114
 H         -0.33790        0.40751       -2.14134
 H         -0.33790        0.40751        2.14134
 H          1.22176        0.31596       -1.29638
 H          1.22176        0.31596        1.29638
 H          0.25678       -1.13976       -1.52896
 H          0.25678       -1.13976        1.52896
 }
 basis={ default,svp }
 {uks,B,direct;wf,25,1,1}
 {ibba,bonds=1}

 Variables initialized (895), CPU time= 0.01 sec
 Commands  initialized (725), CPU time= 0.01 sec, 591 directives.
 Default parameters read. Elapsed time= 0.08 sec

 Checking input...
 Passed
1


                                         ***  PROGRAM SYSTEM MOLPRO  ***
                                       Copyright, TTI GmbH Stuttgart, 2015
                                    Version 2099.9 linked May 26 2017 16:03:21


 **********************************************************************************************************************************
 LABEL *                                                                                 
  64 bit serial version                                                                  DATE: 08-Jun-17          TIME: 15:19:13  
 **********************************************************************************************************************************

 SHA1:             b4a5b34a9e711420743f49e6833241d17c61fb3c
 **********************************************************************************************************************************
 SETTING GEOMTYP        =    XYZ

 Variable memory set to  500000000 words,  buffer space 

 ZSYMEL=NOSYM

 SETTING BASIS          =    SVP


 Recomputing integrals since basis changed


 Using spherical harmonics

 Library entry H      S def2-SVP             selected for orbital group  1
 Library entry H      P def2-SVP             selected for orbital group  1
 Library entry C      S def2-SVP             selected for orbital group  2
 Library entry C      P def2-SVP             selected for orbital group  2
 Library entry C      D def2-SVP             selected for orbital group  2


 PROGRAM * SEWARD (Integral evaluation for generally contracted gaussian basis sets)     Author: Roland Lindh, 1990

 Geometry written to block  1 of record 700


 Point group  C1  



 ATOMIC COORDINATES

 NR  ATOM    CHARGE       X              Y              Z

   1  H       1.00   -2.974674584    0.639577807    0.000000000
   2  C       6.00   -0.935414432    0.380666431    0.000000000
   3  C       6.00    0.356345655   -0.112514293   -2.458798250
   4  C       6.00    0.356345655   -0.112514293    2.458798250
   5  H       1.00   -0.638538457    0.770082293   -4.046546140
   6  H       1.00   -0.638538457    0.770082293    4.046546140
   7  H       1.00    2.308791790    0.597077866   -2.449803153
   8  H       1.00    2.308791790    0.597077866    2.449803153
   9  H       1.00    0.485243874   -2.153834248   -2.889315655
  10  H       1.00    0.485243874   -2.153834248    2.889315655

 Bond lengths in Bohr (Angstrom)

 1-2  2.055630578  2-3  2.820914777  2-4  2.820914777  3-5  2.071162595  3-7  2.077413742
     ( 1.087792856)     ( 1.492763814)     ( 1.492763814)     ( 1.096012045)     ( 1.099320010)

  3- 9  2.090202656   4- 6  2.071162595   4- 8  2.077413742   4-10  2.090202656
       ( 1.106087612)       ( 1.096012045)       ( 1.099320010)       ( 1.106087612)

 Bond angles

  1-2-3  118.44375943   1-2-4  118.44375943   2-3-5  111.94558337   2-3-7  111.52358867

  2- 3- 9  112.24140213   2- 4- 6  111.94558337   2- 4- 8  111.52358867   2- 4-10  112.24140213

  3-2-4  121.29758064   5-3-7  108.01204745   5-3-9  106.73207413   6-4-8  108.01204745

  6- 4-10  106.73207413   7- 3- 9  106.05262855   8- 4-10  106.05262855

 NUCLEAR CHARGE:                   25
 NUMBER OF PRIMITIVE AOS:         124
 NUMBER OF SYMMETRY AOS:          121
 NUMBER OF CONTRACTIONS:           77   (  77A   )
 NUMBER OF CORE ORBITALS:           3   (   3A   )
 NUMBER OF VALENCE ORBITALS:       19   (  19A   )


 NUCLEAR REPULSION ENERGY   75.20704826


 Eigenvalues of metric

         1 0.402E-02 0.537E-02 0.229E-01 0.265E-01 0.266E-01 0.379E-01 0.436E-01 0.492E-01


 Contracted 2-electron integrals neglected if value below      1.0D-11
 AO integral compression algorithm  1   Integral accuracy      1.0D-11

     19.923 MB (compressed) written to integral file ( 49.4%)


 NUMBER OF SORTED TWO-ELECTRON INTEGRALS:    4510506.     BUFFER LENGTH:  32768
 NUMBER OF SEGMENTS:   1  SEGMENT LENGTH:    4510506      RECORD LENGTH: 524288

 Memory used in sort:       5.07 MW

 SORT1 READ     5074366. AND WROTE     4244391. INTEGRALS IN     13 RECORDS. CPU TIME:     0.06 SEC, REAL TIME:     0.12 SEC
 SORT2 READ     4244391. AND WROTE     4510506. INTEGRALS IN     76 RECORDS. CPU TIME:     0.15 SEC, REAL TIME:     0.18 SEC

 FILE SIZES:   FILE 1:    50.3 MBYTE,  FILE 4:    54.6 MBYTE,   TOTAL:    104.8 MBYTE

 OPERATOR DM      FOR CENTER  0  COORDINATES:    0.000000    0.000000    0.000000


 **********************************************************************************************************************************
 DATASETS  * FILE   NREC   LENGTH (MB)   RECORD NAMES
              1      19       47.44       500      610      700      900      950      970     1000      129      960     1100   
                                          VAR    BASINP    GEOM    SYMINP    ZMAT    AOBASIS   BASIS     P2S    ABASIS      S 
                                         1400     1410     1200     1210     1080     1600     1650     1300     1700   
                                           T        V       H0       H01     AOSYM     SMH    MOLCAS    ERIS     OPER   

 PROGRAMS   *        TOTAL       INT
 CPU TIMES  *         1.18      1.05
 REAL TIME  *         1.63 SEC
 DISK USED  *       105.25 MB      
 **********************************************************************************************************************************

 Density functional group B=B88
 Functional: B88(Automatically generated (new) B88)                            Gradient terms: 1
 Use grid at  1800.2

 Functional: B88                       Factor:  1.0000

 Generated new metagrid on record  1800.2 with target accuracy 1.0D-06 and 32470 points in CPU time    0.7
 Computed new grid on record 1800.1 in CPU time    0.8
   65184 words reserved for DFT integration

 PROGRAM * UKS-SCF (Unrestricted Kohn-Sham)     Authors: W. Meyer, H.-J. Werner, P.J. Knowles, 1993

 NUMBER OF ELECTRONS:      13+   12-    SPACE SYMMETRY=1    SPIN SYMMETRY: Doublet 
 CONVERGENCE THRESHOLDS:    1.00E-05 (Density)    1.00E-06 (Energy)
 MAX. NUMBER OF ITERATIONS:       60
 INTERPOLATION TYPE:            DIIS
 INTERPOLATION STEPS:              2 (START)      1 (STEP)
 LEVEL SHIFTS:                 -0.20 (ALPHA)  -0.20 (BETA) 



 Use fine grid record 1800.2 for energy threshold  1.0D-06
 Orbital guess generated from atomic densities. Full valence occupancy:   13

 Molecular orbital dump at record        2200.2

 Initial alpha occupation  13
 Initial beta  occupation  12

 ITERATION    DDIFF          GRAD             ENERGY        2-EL.EN.            DIPOLE MOMENTS         DIIS
    1      0.000D+00      0.000D+00      -117.34074740    272.686429    0.15963   -0.23429    0.00000    0
    2      0.164D-01      0.737D-02      -117.49509033    259.185789    0.04671   -0.08655   -0.00000    1
    3      0.517D-02      0.339D-02      -117.52760616    262.717697    0.03823   -0.10138   -0.00000    2
    4      0.154D-02      0.348D-03      -117.52849917    262.583594    0.03490   -0.09256   -0.00000    3
    5      0.763D-03      0.144D-03      -117.52868772    262.547657    0.02540   -0.08345   -0.00000    4
    6      0.304D-03      0.496D-04      -117.52872328    262.546496    0.02395   -0.08006   -0.00000    5
    7      0.671D-04      0.212D-04      -117.52872606    262.540692    0.02208   -0.07822   -0.00000    6
    8      0.262D-04      0.112D-04      -117.52872649    262.542850    0.02215   -0.07815   -0.00000    7
    9      0.860D-05      0.214D-05      -117.52872653    262.542268    0.02232   -0.07812   -0.00000    7
   10      0.311D-05      0.621D-06      -117.52872653    262.542255    0.02228   -0.07808   -0.00000    7

 Final alpha occupancy:  13
 Final beta  occupancy:  12

 !UKS STATE 1.1 Energy               -117.528726530122
 Nuclear energy                        75.20704826
 One-electron energy                 -306.04464989
 Two-electron energy                  131.27112732
 Density functional                   -17.96225222     B88=-17.96225222
 Virial quotient                       -1.00648545
 !UKS STATE 1.1 Dipole moment           0.02227855    -0.07808469    -0.00000000
 Dipole moment /Debye                   0.05662271    -0.19845848    -0.00000000

 Orbital energies for positive spin:

         1.1          2.1          3.1          4.1          5.1          6.1          7.1          8.1          9.1         10.1
     -9.888367    -9.883082    -9.883074    -0.660708    -0.576811    -0.467823    -0.365030    -0.343574    -0.325420    -0.303359

        11.1         12.1         13.1         14.1         15.1
     -0.276013    -0.269082    -0.119223     0.070308     0.097794

 Orbital energies for negative spin:

         1.1          2.1          3.1          4.1          5.1          6.1          7.1          8.1          9.1         10.1
     -9.884355    -9.884347    -9.872625    -0.642529    -0.574296    -0.446504    -0.358694    -0.327893    -0.319020    -0.298769

        11.1         12.1         13.1         14.1         15.1
     -0.271161    -0.262952    -0.019766     0.074169     0.102895

 HOMO     13.1    -0.119223 =      -3.2442eV
 LUMO    -13.1    -0.019766 =      -0.5378eV
 LUMO-HOMO         0.099458 =       2.7064eV

 EXPECTATION VALUE OF S**2:             0.75585639

 Occupation number threshold for canonical orbitals:  1.999000 (occupied),  0.001000 (virtual)

 Number of pseudo-canonical orbitals per symmetry:   11
 Number of active natural orbitals per symmetry:      3

 Natural orbitals saved to record    2200.2 (Orbital set 3)

 Orbital spaces for UNO-CAS (Min. occupation: 0.020  Max. occupation: 1.980):

 Closed:       12
 Active:        1


 **********************************************************************************************************************************
 DATASETS  * FILE   NREC   LENGTH (MB)   RECORD NAMES
              1      20       48.47       500      610      700      900      950      970     1000      129      960     1100   
                                          VAR    BASINP    GEOM    SYMINP    ZMAT    AOBASIS   BASIS     P2S    ABASIS      S 
                                         1400     1410     1200     1210     1080     1600     1650     1300     1700     1800   
                                           T        V       H0       H01     AOSYM     SMH    MOLCAS    ERIS     OPER     GRID   

              2       5        3.16       700     1000      520     1800     2200   
                                         GEOM     BASIS   MCVARS    GRID      UKS  

 PROGRAMS   *        TOTAL       UKS       INT
 CPU TIMES  *         7.47      6.28      1.05
 REAL TIME  *         8.50 SEC
 DISK USED  *       105.25 MB      
 **********************************************************************************************************************************


 PROGRAM * Intrinsic Basis Bonding Analysis (IBBA)          Author: G. Knizia

 Molecular orbitals read from record     2200.2  Type=UKS/ALPHA (state 1.1)
 Fock matrix read from record            2200.2  Type=UKS/TOTAL (state 1.1)
 Orbital energies read from record       2200.2  Type=UKS/ALPHA (state 1.1)
 Density matrix read from record         2200.2  Type=UKS/CHARGE (state 1.1)

 Number of core orbitals:           3 (   3 )
 Number of closed-shell orbitals:   9 (   9 )
 Number of active  orbitals:        1 (   1 )

 Basis set MINAO-AUTO-PP generated.      Number of basis functions:   22 

 Polarized AO type:                A = (O Ot + (1-O)(1-Ot)) P12
 Orthogonalization method:         Symmetric (Loewdin)
 Localization functional:          L = sum[A,i] <i|n_A|i>^4 -> max

 Localization group 1:  12 orbitals, occupancy  2.000
 Iterative localization: IB/PM,    7 iter; Final gradient 0.82E-08

 Bond order analysis:       [THRPRINT= 0.020]

   CEN ATOM   CEN ATOM     WIBERG.BO      RENORM.BO
     1   H  -   2   C       0.947915       0.967427

     2   C  -   3   C       1.174655       1.485230
     2   C  -   4   C       1.174655       1.485230
     2   C  -   1   H       0.947915       0.967427
     2   C  -   9   H       0.069340       0.275163
     2   C  -  10   H       0.069340       0.275163
     2   C  -   7   H       0.022213       0.081467
     2   C  -   8   H       0.022213       0.081467

     3   C  -   2   C       1.174655       1.485230
     3   C  -   5   H       0.954555       0.987970
     3   C  -   7   H       0.936196       0.986579
     3   C  -   9   H       0.871342       0.996322

     4   C  -   2   C       1.174655       1.485230
     4   C  -   6   H       0.954555       0.987970
     4   C  -   8   H       0.936196       0.986579
     4   C  -  10   H       0.871342       0.996322

     5   H  -   3   C       0.954555       0.987970

     6   H  -   4   C       0.954555       0.987970

     7   H  -   3   C       0.936196       0.986579
     7   H  -   2   C       0.022213       0.081467

     8   H  -   4   C       0.936196       0.986579
     8   H  -   2   C       0.022213       0.081467

     9   H  -   3   C       0.871342       0.996322
     9   H  -   2   C       0.069340       0.275163

    10   H  -   4   C       0.871342       0.996322
    10   H  -   2   C       0.069340       0.275163


 Valency analysis:

   CEN ATOM   TOT.VALENCE
     1   H       0.978032
     2   C       3.498697
     3   C       3.962407
     4   C       3.962407
     5   H       0.982960
     6   H       0.982960
     7   H       0.980554
     8   H       0.980554
     9   H       0.964577
    10   H       0.964577
 Localization group 2:   1 orbitals, occupancy  1.000
 Iterative localization: IB/PM,    1 iter; Final gradient 0.00E+00

 Bond order analysis:       [THRPRINT= 0.020]

   CEN ATOM   CEN ATOM     WIBERG.BO      RENORM.BO

     2   C  -   9   H       0.106829       0.500000
     2   C  -  10   H       0.106829       0.500000
     2   C  -   7   H       0.032911       0.500000
     2   C  -   8   H       0.032911       0.500000





     7   H  -   2   C       0.032911       0.500000

     8   H  -   2   C       0.032911       0.500000

     9   H  -   2   C       0.106829       0.500000

    10   H  -   2   C       0.106829       0.500000


 Valency analysis:

   CEN ATOM   TOT.VALENCE
     1   H       0.001718
     2   C       0.334858
     3   C       0.020029
     4   C       0.020029
     5   H       0.013975
     6   H       0.013975
     7   H       0.040926
     8   H       0.040926
     9   H       0.126477
    10   H       0.126477

 Total charge composition:

   CEN ATOM         s          p       ELECTRONS ->P.CHARGE
     1   H       0.85264                 0.85264    0.14736
     2   C       3.05175    3.23977      6.29151   -0.29151
     3   C       2.99737    3.29297      6.29034   -0.29034
     4   C       2.99737    3.29297      6.29034   -0.29034
     5   H       0.87650                 0.87650    0.12350
     6   H       0.87650                 0.87650    0.12350
     7   H       0.88145                 0.88145    0.11855
     8   H       0.88145                 0.88145    0.11855
     9   H       0.87963                 0.87963    0.12037
    10   H       0.87963                 0.87963    0.12037

 Total charge composition, AO contributions:

   CEN ATOM SHL      SPHERICAL COMPONENTS
     1   H  1s       0.85264

     2   C  1s       1.99248
     2   C  2s       1.05927
     2   C  2p       1.12002    1.09181    1.02794

     3   C  1s       1.99108
     3   C  2s       1.00629
     3   C  2p       1.11784    1.10617    1.06896

     4   C  1s       1.99108
     4   C  2s       1.00629
     4   C  2p       1.11784    1.10617    1.06896

     5   H  1s       0.87650

     6   H  1s       0.87650

     7   H  1s       0.88145

     8   H  1s       0.88145

     9   H  1s       0.87963

    10   H  1s       0.87963

 Active orbital charges:

   CEN ATOM         s          p       ELECTRONS ->SPIN.DEN
     1   H       0.00086                 0.00086    0.00086
     2   C       0.00578    0.78157      0.78735    0.78735
     3   C       0.00019    0.00993      0.01012    0.01012
     4   C       0.00019    0.00993      0.01012    0.01012
     5   H       0.00704                 0.00704    0.00704
     6   H       0.00704                 0.00704    0.00704
     7   H       0.02090                 0.02090    0.02090
     8   H       0.02090                 0.02090    0.02090
     9   H       0.06784                 0.06784    0.06784
    10   H       0.06784                 0.06784    0.06784

 Active orbital charges, AO contributions:

   CEN ATOM SHL      SPHERICAL COMPONENTS
     1   H  1s       0.00086

     2   C  1s       0.00001
     2   C  2s       0.00577
     2   C  2p       0.03178    0.74979    0.00000

     3   C  1s       0.00000
     3   C  2s       0.00019
     3   C  2p       0.00004    0.00977    0.00011

     4   C  1s       0.00000
     4   C  2s       0.00019
     4   C  2p       0.00004    0.00977    0.00011

     5   H  1s       0.00704

     6   H  1s       0.00704

     7   H  1s       0.02090

     8   H  1s       0.02090

     9   H  1s       0.06784

    10   H  1s       0.06784

 Summary of localized orbital composition:   [THRPRINT= 0.020]

   ORB  GRP  ORB.ENERGY      CENTERS/CHARGES
     1   1    -9.779742      C  2   2.000
     2   1    -9.772671      C  4   2.000
     3   1    -9.772671      C  3   2.000
     4   1    -0.498317      C  2   1.017   C  3   0.976
     5   1    -0.498317      C  2   1.017   C  4   0.976
     6   1    -0.425885      C  2   1.145   H  1   0.841
     7   1    -0.409673      C  4   1.080   H 10   0.805   C  2   0.109
     8   1    -0.409673      C  3   1.080   H  9   0.805   C  2   0.109
     9   1    -0.405303      C  3   1.103   H  7   0.855   C  2   0.036
    10   1    -0.405303      C  4   1.103   H  8   0.855   C  2   0.036
    11   1    -0.404948      C  4   1.113   H  6   0.864   (other: 0.024)
    12   1    -0.404948      C  3   1.113   H  5   0.864   (other: 0.024)
    13   2    -0.069102      C  2   0.787   H  9   0.068   H 10   0.068   H  7   0.021   H  8   0.021   (other: 0.035)

 Localized orbitals saved to record      2200.2  (orbital set 4)


 **********************************************************************************************************************************
 DATASETS  * FILE   NREC   LENGTH (MB)   RECORD NAMES
              1      20       48.47       500      610      700      900      950      970     1000      129      960     1100   
                                          VAR    BASINP    GEOM    SYMINP    ZMAT    AOBASIS   BASIS     P2S    ABASIS      S 
                                         1400     1410     1200     1210     1080     1600     1650     1300     1700     1800   
                                           T        V       H0       H01     AOSYM     SMH    MOLCAS    ERIS     OPER     GRID   

              2       5        3.21       700     1000      520     1800     2200   
                                         GEOM     BASIS   MCVARS    GRID      UKS  

 PROGRAMS   *        TOTAL      IBBA       UKS       INT
 CPU TIMES  *         7.50      0.03      6.28      1.05
 REAL TIME  *         8.59 SEC
 DISK USED  *       105.25 MB      
 **********************************************************************************************************************************
 Molecular orbitals read from record     2200.2  Type=UKS/LOCAL(IBO)  
 Occupation numbers read from record     2200.2  Type=UKS/LOCAL(IBO)  
 Orbital energies read from record       2200.2  Type=UKS/LOCAL(IBO)  
 Redundancy group numbers read from rec  2200.2  Type=UKS/BETA (state 1.1)

 IBBA/SVP energy=      0.000000000000

        UKS-SCF 
   -117.52872653
 **********************************************************************************************************************************
 Molpro calculation terminated
