
 Primary working directories    : /tmp/sb13343
 Secondary working directories  : /tmp/sb13343
 Wavefunction directory         : /panfs/panasas01/chem/sb13343/wfu/
 Main file repository           : /tmp/sb13343/

 SHA1      : b4a5b34a9e711420743f49e6833241d17c61fb3c
 NAME      : 2099.9.b4a5b34
 ARCHNAME  : linux/x86_64_openmp
 FC        : /cm/shared/languages/GCC-6.1/bin/gfortran
 BLASLIB   : -lblas
 id        : simonbennie

 Nodes     nprocs
 node32-018    1

 Using customized tuning parameters: mindgm=1; mindgv=20; mindgc=4; mindgr=1; noblas=0; minvec=7
 default implementation of scratch files=df  

 memory,500,m
 geomtyp=xyz
 nosym
 noorient
 geometry={
 H         -1.57413        0.33845        0.00000
 C         -0.49500        0.20144        0.00000
 C          0.18857       -0.05954       -1.30114
 C          0.18857       -0.05954        1.30114
 H         -0.33790        0.40751       -2.14134
 H         -0.33790        0.40751        2.14134
 H          1.22176        0.31596       -1.29638
 H          1.22176        0.31596        1.29638
 H          0.25678       -1.13976       -1.52896
 H          0.25678       -1.13976        1.52896
 }
 basis={ default,sto-3g }
 {uks,PBEREV,direct;wf,25,1,1}
 {ibba,bonds=1}

 Variables initialized (895), CPU time= 0.00 sec
 Commands  initialized (725), CPU time= 0.02 sec, 591 directives.
 Default parameters read. Elapsed time= 0.08 sec

 Checking input...
 Passed
1


                                         ***  PROGRAM SYSTEM MOLPRO  ***
                                       Copyright, TTI GmbH Stuttgart, 2015
                                    Version 2099.9 linked May 26 2017 16:03:21


 **********************************************************************************************************************************
 LABEL *                                                                                 
  64 bit serial version                                                                  DATE: 08-Jun-17          TIME: 15:11:13  
 **********************************************************************************************************************************

 SHA1:             b4a5b34a9e711420743f49e6833241d17c61fb3c
 **********************************************************************************************************************************
 SETTING GEOMTYP        =    XYZ

 Variable memory set to  500000000 words,  buffer space 

 ZSYMEL=NOSYM

 SETTING BASIS          =    STO-3G


 Recomputing integrals since basis changed


 Using spherical harmonics

 Library entry H      S STO-3G               selected for orbital group  1
 Library entry C      S STO-3G               selected for orbital group  2
 Library entry C      P STO-3G               selected for orbital group  2


 PROGRAM * SEWARD (Integral evaluation for generally contracted gaussian basis sets)     Author: Roland Lindh, 1990

 Geometry written to block  1 of record 700


 Point group  C1  



 ATOMIC COORDINATES

 NR  ATOM    CHARGE       X              Y              Z

   1  H       1.00   -2.974674584    0.639577807    0.000000000
   2  C       6.00   -0.935414432    0.380666431    0.000000000
   3  C       6.00    0.356345655   -0.112514293   -2.458798250
   4  C       6.00    0.356345655   -0.112514293    2.458798250
   5  H       1.00   -0.638538457    0.770082293   -4.046546140
   6  H       1.00   -0.638538457    0.770082293    4.046546140
   7  H       1.00    2.308791790    0.597077866   -2.449803153
   8  H       1.00    2.308791790    0.597077866    2.449803153
   9  H       1.00    0.485243874   -2.153834248   -2.889315655
  10  H       1.00    0.485243874   -2.153834248    2.889315655

 Bond lengths in Bohr (Angstrom)

 1-2  2.055630578  2-3  2.820914777  2-4  2.820914777  3-5  2.071162595  3-7  2.077413742
     ( 1.087792856)     ( 1.492763814)     ( 1.492763814)     ( 1.096012045)     ( 1.099320010)

  3- 9  2.090202656   4- 6  2.071162595   4- 8  2.077413742   4-10  2.090202656
       ( 1.106087612)       ( 1.096012045)       ( 1.099320010)       ( 1.106087612)

 Bond angles

  1-2-3  118.44375943   1-2-4  118.44375943   2-3-5  111.94558337   2-3-7  111.52358867

  2- 3- 9  112.24140213   2- 4- 6  111.94558337   2- 4- 8  111.52358867   2- 4-10  112.24140213

  3-2-4  121.29758064   5-3-7  108.01204745   5-3-9  106.73207413   6-4-8  108.01204745

  6- 4-10  106.73207413   7- 3- 9  106.05262855   8- 4-10  106.05262855

 NUCLEAR CHARGE:                   25
 NUMBER OF PRIMITIVE AOS:          66
 NUMBER OF SYMMETRY AOS:           66
 NUMBER OF CONTRACTIONS:           22   (  22A   )
 NUMBER OF CORE ORBITALS:           3   (   3A   )
 NUMBER OF VALENCE ORBITALS:       19   (  19A   )


 NUCLEAR REPULSION ENERGY   75.20704826


 Eigenvalues of metric

         1 0.213E+00 0.225E+00 0.288E+00 0.342E+00 0.359E+00 0.374E+00 0.380E+00 0.402E+00


 Contracted 2-electron integrals neglected if value below      1.0D-11
 AO integral compression algorithm  1   Integral accuracy      1.0D-11

     0.524 MB (compressed) written to integral file ( 89.6%)


 NUMBER OF SORTED TWO-ELECTRON INTEGRALS:      32131.     BUFFER LENGTH:  32768
 NUMBER OF SEGMENTS:   1  SEGMENT LENGTH:      32131      RECORD LENGTH: 524288

 Memory used in sort:       0.59 MW

 SORT1 READ       38209. AND WROTE       30689. INTEGRALS IN      1 RECORDS. CPU TIME:     0.00 SEC, REAL TIME:     0.00 SEC
 SORT2 READ       30689. AND WROTE       32131. INTEGRALS IN      2 RECORDS. CPU TIME:     0.00 SEC, REAL TIME:     0.01 SEC

 FILE SIZES:   FILE 1:    30.6 MBYTE,  FILE 4:     4.2 MBYTE,   TOTAL:     34.9 MBYTE

 OPERATOR DM      FOR CENTER  0  COORDINATES:    0.000000    0.000000    0.000000


 **********************************************************************************************************************************
 DATASETS  * FILE   NREC   LENGTH (MB)   RECORD NAMES
              1      19       30.27       500      610      700      900      950      970     1000      129      960     1100   
                                          VAR    BASINP    GEOM    SYMINP    ZMAT    AOBASIS   BASIS     P2S    ABASIS      S 
                                         1400     1410     1200     1210     1080     1600     1650     1300     1700   
                                           T        V       H0       H01     AOSYM     SMH    MOLCAS    ERIS     OPER   

 PROGRAMS   *        TOTAL       INT
 CPU TIMES  *         0.38      0.25
 REAL TIME  *         0.70 SEC
 DISK USED  *        35.29 MB      
 **********************************************************************************************************************************

 Density functional group PBEREV=PBEXREV+PBEC
 Functional: PBEXREV(Automatically generated (new) PBEXREV)                    Gradient terms: 1
 Functional: PBEC(Automatically generated (new) PBEC)                          Gradient terms: 1
 Use grid at  1800.2

 Functional: PBEXREV                   Factor:  1.0000
 Functional: PBEC                      Factor:  1.0000

 Generated new metagrid on record  1800.2 with target accuracy 1.0D-06 and 32470 points in CPU time    0.7
 Computed new grid on record 1800.1 in CPU time    0.8
   21722 words reserved for DFT integration

 PROGRAM * UKS-SCF (Unrestricted Kohn-Sham)     Authors: W. Meyer, H.-J. Werner, P.J. Knowles, 1993

 NUMBER OF ELECTRONS:      13+   12-    SPACE SYMMETRY=1    SPIN SYMMETRY: Doublet 
 CONVERGENCE THRESHOLDS:    1.00E-05 (Density)    1.00E-06 (Energy)
 MAX. NUMBER OF ITERATIONS:       60
 INTERPOLATION TYPE:            DIIS
 INTERPOLATION STEPS:              2 (START)      1 (STEP)
 LEVEL SHIFTS:                 -0.20 (ALPHA)  -0.20 (BETA) 



 Use fine grid record 1800.2 for energy threshold  1.0D-06
 Orbital guess generated from atomic densities. Full valence occupancy:   13

 Molecular orbital dump at record        2200.2

 Initial alpha occupation  13
 Initial beta  occupation  12

 ITERATION    DDIFF          GRAD             ENERGY        2-EL.EN.            DIPOLE MOMENTS         DIIS
    1      0.000D+00      0.000D+00      -116.86262429    271.411143    0.21751   -0.32238    0.00000    0
    2      0.646D-01      0.215D-01      -117.01535260    262.835138    0.06196   -0.07238    0.00000    1
    3      0.112D-01      0.472D-02      -117.02234054    264.175031    0.05010   -0.08043    0.00000    2
    4      0.166D-02      0.877D-03      -117.02289229    264.152179    0.04247   -0.07520    0.00000    3
    5      0.996D-03      0.545D-03      -117.02308245    264.154022    0.03582   -0.06897    0.00000    4
    6      0.320D-03      0.113D-03      -117.02309413    264.150987    0.03497   -0.06800    0.00000    5
    7      0.379D-04      0.136D-04      -117.02309430    264.150789    0.03502   -0.06797    0.00000    6
    8      0.607D-05      0.291D-05      -117.02309431    264.150814    0.03499   -0.06796    0.00000    5
    9      0.104D-05      0.579D-06      -117.02309431    264.150776    0.03500   -0.06796    0.00000    6

 Final alpha occupancy:  13
 Final beta  occupancy:  12

 !UKS STATE 1.1 Energy               -117.023094307029
 Nuclear energy                        75.20704826
 One-electron energy                 -305.42499890
 Two-electron energy                  132.07538806
 Density functional                   -18.88053173     PBEXREV=-18.07498663 PBEC= -0.80554509
 Virial quotient                       -1.01527813
 !UKS STATE 1.1 Dipole moment           0.03500209    -0.06796114     0.00000000
 Dipole moment /Debye                   0.08896061    -0.17272868     0.00000000

 Orbital energies for positive spin:

         1.1          2.1          3.1          4.1          5.1          6.1          7.1          8.1          9.1         10.1
     -9.722710    -9.722708    -9.692991    -0.664394    -0.585340    -0.472333    -0.362047    -0.338834    -0.320454    -0.301166

        11.1         12.1         13.1         14.1         15.1
     -0.265994    -0.260164    -0.070533     0.337990     0.368757

 Orbital energies for negative spin:

         1.1          2.1          3.1          4.1          5.1          6.1          7.1          8.1          9.1         10.1
     -9.723571    -9.723565    -9.680087    -0.648256    -0.583807    -0.452121    -0.356898    -0.326592    -0.316016    -0.297963

        11.1         12.1         13.1         14.1         15.1
     -0.260759    -0.254884     0.042045     0.341973     0.393030

 HOMO     13.1    -0.070533 =      -1.9193eV
 LUMO    -13.1     0.042045 =       1.1441eV
 LUMO-HOMO         0.112578 =       3.0634eV

 EXPECTATION VALUE OF S**2:             0.75365864

 Occupation number threshold for canonical orbitals:  1.999000 (occupied),  0.001000 (virtual)

 Number of pseudo-canonical orbitals per symmetry:   12
 Number of active natural orbitals per symmetry:      1

 Natural orbitals saved to record    2200.2 (Orbital set 3)

 Orbital spaces for UNO-CAS (Min. occupation: 0.020  Max. occupation: 1.980):

 Closed:       12
 Active:        1


 **********************************************************************************************************************************
 DATASETS  * FILE   NREC   LENGTH (MB)   RECORD NAMES
              1      20       31.31       500      610      700      900      950      970     1000      129      960     1100   
                                          VAR    BASINP    GEOM    SYMINP    ZMAT    AOBASIS   BASIS     P2S    ABASIS      S 
                                         1400     1410     1200     1210     1080     1600     1650     1300     1700     1800   
                                           T        V       H0       H01     AOSYM     SMH    MOLCAS    ERIS     OPER     GRID   

              2       5        2.93       700     1000      520     1800     2200   
                                         GEOM     BASIS   MCVARS    GRID      UKS  

 PROGRAMS   *        TOTAL       UKS       INT
 CPU TIMES  *         2.57      2.19      0.25
 REAL TIME  *         2.98 SEC
 DISK USED  *        35.29 MB      
 **********************************************************************************************************************************


 PROGRAM * Intrinsic Basis Bonding Analysis (IBBA)          Author: G. Knizia

 Molecular orbitals read from record     2200.2  Type=UKS/ALPHA (state 1.1)
 Fock matrix read from record            2200.2  Type=UKS/TOTAL (state 1.1)
 Orbital energies read from record       2200.2  Type=UKS/ALPHA (state 1.1)
 Density matrix read from record         2200.2  Type=UKS/CHARGE (state 1.1)

 Number of core orbitals:           3 (   3 )
 Number of closed-shell orbitals:   9 (   9 )
 Number of active  orbitals:        1 (   1 )

 Basis set MINAO-AUTO-PP generated.      Number of basis functions:   22 

 Polarized AO type:                A = (O Ot + (1-O)(1-Ot)) P12
 Orthogonalization method:         Symmetric (Loewdin)
 Localization functional:          L = sum[A,i] <i|n_A|i>^4 -> max

 Localization group 1:  12 orbitals, occupancy  2.000
 Iterative localization: IB/PM,    7 iter; Final gradient 0.14E-08

 Bond order analysis:       [THRPRINT= 0.020]

   CEN ATOM   CEN ATOM     WIBERG.BO      RENORM.BO
     1   H  -   2   C       0.952384       0.970825

     2   C  -   3   C       1.142895       1.490995
     2   C  -   4   C       1.142895       1.490995
     2   C  -   1   H       0.952384       0.970825
     2   C  -   9   H       0.057067       0.284624
     2   C  -  10   H       0.057067       0.284624

     3   C  -   2   C       1.142895       1.490995
     3   C  -   5   H       0.954629       0.989396
     3   C  -   7   H       0.940835       0.989860
     3   C  -   9   H       0.888648       0.997293

     4   C  -   2   C       1.142895       1.490995
     4   C  -   6   H       0.954629       0.989396
     4   C  -   8   H       0.940835       0.989860
     4   C  -  10   H       0.888648       0.997293

     5   H  -   3   C       0.954629       0.989396

     6   H  -   4   C       0.954629       0.989396

     7   H  -   3   C       0.940835       0.989860

     8   H  -   4   C       0.940835       0.989860

     9   H  -   3   C       0.888648       0.997293
     9   H  -   2   C       0.057067       0.284624

    10   H  -   4   C       0.888648       0.997293
    10   H  -   2   C       0.057067       0.284624


 Valency analysis:

   CEN ATOM   TOT.VALENCE
     1   H       0.978335
     2   C       3.404757
     3   C       3.946592
     4   C       3.946592
     5   H       0.980097
     6   H       0.980097
     7   H       0.978070
     8   H       0.978070
     9   H       0.965089
    10   H       0.965089
 Localization group 2:   1 orbitals, occupancy  1.000
 Iterative localization: IB/PM,    1 iter; Final gradient 0.00E+00

 Bond order analysis:       [THRPRINT= 0.020]

   CEN ATOM   CEN ATOM     WIBERG.BO      RENORM.BO

     2   C  -   9   H       0.090507       0.500000
     2   C  -  10   H       0.090507       0.500000
     2   C  -   7   H       0.029118       0.500000
     2   C  -   8   H       0.029118       0.500000





     7   H  -   2   C       0.029118       0.500000

     8   H  -   2   C       0.029118       0.500000

     9   H  -   2   C       0.090507       0.500000

    10   H  -   2   C       0.090507       0.500000


 Valency analysis:

   CEN ATOM   TOT.VALENCE
     1   H       0.001249
     2   C       0.296448
     3   C       0.020522
     4   C       0.020522
     5   H       0.013463
     6   H       0.013463
     7   H       0.034920
     8   H       0.034920
     9   H       0.104401
    10   H       0.104401

 Total charge composition:

   CEN ATOM         s          p       ELECTRONS ->P.CHARGE
     1   H       0.85343                 0.85343    0.14657
     2   C       3.04753    3.19758      6.24511   -0.24511
     3   C       2.98703    3.35990      6.34693   -0.34693
     4   C       2.98703    3.35990      6.34693   -0.34693
     5   H       0.86570                 0.86570    0.13430
     6   H       0.86570                 0.86570    0.13430
     7   H       0.86969                 0.86969    0.13031
     8   H       0.86969                 0.86969    0.13031
     9   H       0.86841                 0.86841    0.13159
    10   H       0.86841                 0.86841    0.13159

 Total charge composition, AO contributions:

   CEN ATOM SHL      SPHERICAL COMPONENTS
     1   H  1s       0.85343

     2   C  1s       1.99301
     2   C  2s       1.05452
     2   C  2p       1.11812    1.05809    1.02137

     3   C  1s       1.99179
     3   C  2s       0.99524
     3   C  2p       1.14027    1.13778    1.08186

     4   C  1s       1.99179
     4   C  2s       0.99524
     4   C  2p       1.14027    1.13778    1.08186

     5   H  1s       0.86570

     6   H  1s       0.86570

     7   H  1s       0.86969

     8   H  1s       0.86969

     9   H  1s       0.86841

    10   H  1s       0.86841

 Active orbital charges:

   CEN ATOM         s          p       ELECTRONS ->SPIN.DEN
     1   H       0.00062                 0.00062    0.00062
     2   C       0.00636    0.81266      0.81902    0.81902
     3   C       0.00011    0.01026      0.01037    0.01037
     4   C       0.00011    0.01026      0.01037    0.01037
     5   H       0.00678                 0.00678    0.00678
     6   H       0.00678                 0.00678    0.00678
     7   H       0.01778                 0.01778    0.01778
     8   H       0.01778                 0.01778    0.01778
     9   H       0.05525                 0.05525    0.05525
    10   H       0.05525                 0.05525    0.05525

 Active orbital charges, AO contributions:

   CEN ATOM SHL      SPHERICAL COMPONENTS
     1   H  1s       0.00062

     2   C  1s       0.00001
     2   C  2s       0.00636
     2   C  2p       0.03423    0.77844    0.00000

     3   C  1s       0.00000
     3   C  2s       0.00011
     3   C  2p       0.00010    0.00995    0.00021

     4   C  1s       0.00000
     4   C  2s       0.00011
     4   C  2p       0.00010    0.00995    0.00021

     5   H  1s       0.00678

     6   H  1s       0.00678

     7   H  1s       0.01778

     8   H  1s       0.01778

     9   H  1s       0.05525

    10   H  1s       0.05525

 Summary of localized orbital composition:   [THRPRINT= 0.020]

   ORB  GRP  ORB.ENERGY      CENTERS/CHARGES
     1   1    -9.612907      C  4   2.000
     2   1    -9.612907      C  3   2.000
     3   1    -9.585056      C  2   2.000
     4   1    -0.486500      C  2   1.011   C  3   0.981
     5   1    -0.486500      C  2   1.011   C  4   0.981
     6   1    -0.425780      C  2   1.145   H  1   0.844
     7   1    -0.411419      C  4   1.102   H 10   0.807   C  2   0.086
     8   1    -0.411419      C  3   1.102   H  9   0.807   C  2   0.086
     9   1    -0.408581      C  4   1.127   H  6   0.853
    10   1    -0.408581      C  3   1.127   H  5   0.853
    11   1    -0.406883      C  3   1.119   H  7   0.846   C  2   0.029
    12   1    -0.406883      C  4   1.119   H  8   0.846   C  2   0.029
    13   2    -0.015166      C  2   0.819   H  9   0.055   H 10   0.055   (other: 0.070)

 Localized orbitals saved to record      2200.2  (orbital set 4)


 **********************************************************************************************************************************
 DATASETS  * FILE   NREC   LENGTH (MB)   RECORD NAMES
              1      20       31.31       500      610      700      900      950      970     1000      129      960     1100   
                                          VAR    BASINP    GEOM    SYMINP    ZMAT    AOBASIS   BASIS     P2S    ABASIS      S 
                                         1400     1410     1200     1210     1080     1600     1650     1300     1700     1800   
                                           T        V       H0       H01     AOSYM     SMH    MOLCAS    ERIS     OPER     GRID   

              2       5        2.94       700     1000      520     1800     2200   
                                         GEOM     BASIS   MCVARS    GRID      UKS  

 PROGRAMS   *        TOTAL      IBBA       UKS       INT
 CPU TIMES  *         2.60      0.03      2.19      0.25
 REAL TIME  *         3.06 SEC
 DISK USED  *        35.29 MB      
 **********************************************************************************************************************************
 Molecular orbitals read from record     2200.2  Type=UKS/LOCAL(IBO)  
 Occupation numbers read from record     2200.2  Type=UKS/LOCAL(IBO)  
 Orbital energies read from record       2200.2  Type=UKS/LOCAL(IBO)  
 Redundancy group numbers read from rec  2200.2  Type=UKS/BETA (state 1.1)

 IBBA/STO-3G energy=      0.000000000000

        UKS-SCF 
   -117.02309431
 **********************************************************************************************************************************
 Molpro calculation terminated
