
 Primary working directories    : /tmp/sb13343
 Secondary working directories  : /tmp/sb13343
 Wavefunction directory         : /panfs/panasas01/chem/sb13343/wfu/
 Main file repository           : /tmp/sb13343/

 SHA1      : b4a5b34a9e711420743f49e6833241d17c61fb3c
 NAME      : 2099.9.b4a5b34
 ARCHNAME  : linux/x86_64_openmp
 FC        : /cm/shared/languages/GCC-6.1/bin/gfortran
 BLASLIB   : -lblas
 id        : simonbennie

 Nodes     nprocs
 node32-018    1

 Using customized tuning parameters: mindgm=1; mindgv=20; mindgc=4; mindgr=1; noblas=0; minvec=7
 default implementation of scratch files=df  

 memory,500,m
 geomtyp=xyz
 nosym
 noorient
 geometry={
 H         -1.57413        0.33845        0.00000
 C         -0.49500        0.20144        0.00000
 C          0.18857       -0.05954       -1.30114
 C          0.18857       -0.05954        1.30114
 H         -0.33790        0.40751       -2.14134
 H         -0.33790        0.40751        2.14134
 H          1.22176        0.31596       -1.29638
 H          1.22176        0.31596        1.29638
 H          0.25678       -1.13976       -1.52896
 H          0.25678       -1.13976        1.52896
 }
 basis={ default,sto-3g }
 {uks,BH-LYP,direct;wf,25,1,1}
 {ibba,bonds=1}

 Variables initialized (895), CPU time= 0.00 sec
 Commands  initialized (725), CPU time= 0.02 sec, 591 directives.
 Default parameters read. Elapsed time= 0.08 sec

 Checking input...
 Passed
1


                                         ***  PROGRAM SYSTEM MOLPRO  ***
                                       Copyright, TTI GmbH Stuttgart, 2015
                                    Version 2099.9 linked May 26 2017 16:03:21


 **********************************************************************************************************************************
 LABEL *                                                                                 
  64 bit serial version                                                                  DATE: 08-Jun-17          TIME: 15:03:13  
 **********************************************************************************************************************************

 SHA1:             b4a5b34a9e711420743f49e6833241d17c61fb3c
 **********************************************************************************************************************************
 SETTING GEOMTYP        =    XYZ

 Variable memory set to  500000000 words,  buffer space 

 ZSYMEL=NOSYM

 SETTING BASIS          =    STO-3G


 Recomputing integrals since basis changed


 Using spherical harmonics

 Library entry H      S STO-3G               selected for orbital group  1
 Library entry C      S STO-3G               selected for orbital group  2
 Library entry C      P STO-3G               selected for orbital group  2


 PROGRAM * SEWARD (Integral evaluation for generally contracted gaussian basis sets)     Author: Roland Lindh, 1990

 Geometry written to block  1 of record 700


 Point group  C1  



 ATOMIC COORDINATES

 NR  ATOM    CHARGE       X              Y              Z

   1  H       1.00   -2.974674584    0.639577807    0.000000000
   2  C       6.00   -0.935414432    0.380666431    0.000000000
   3  C       6.00    0.356345655   -0.112514293   -2.458798250
   4  C       6.00    0.356345655   -0.112514293    2.458798250
   5  H       1.00   -0.638538457    0.770082293   -4.046546140
   6  H       1.00   -0.638538457    0.770082293    4.046546140
   7  H       1.00    2.308791790    0.597077866   -2.449803153
   8  H       1.00    2.308791790    0.597077866    2.449803153
   9  H       1.00    0.485243874   -2.153834248   -2.889315655
  10  H       1.00    0.485243874   -2.153834248    2.889315655

 Bond lengths in Bohr (Angstrom)

 1-2  2.055630578  2-3  2.820914777  2-4  2.820914777  3-5  2.071162595  3-7  2.077413742
     ( 1.087792856)     ( 1.492763814)     ( 1.492763814)     ( 1.096012045)     ( 1.099320010)

  3- 9  2.090202656   4- 6  2.071162595   4- 8  2.077413742   4-10  2.090202656
       ( 1.106087612)       ( 1.096012045)       ( 1.099320010)       ( 1.106087612)

 Bond angles

  1-2-3  118.44375943   1-2-4  118.44375943   2-3-5  111.94558337   2-3-7  111.52358867

  2- 3- 9  112.24140213   2- 4- 6  111.94558337   2- 4- 8  111.52358867   2- 4-10  112.24140213

  3-2-4  121.29758064   5-3-7  108.01204745   5-3-9  106.73207413   6-4-8  108.01204745

  6- 4-10  106.73207413   7- 3- 9  106.05262855   8- 4-10  106.05262855

 NUCLEAR CHARGE:                   25
 NUMBER OF PRIMITIVE AOS:          66
 NUMBER OF SYMMETRY AOS:           66
 NUMBER OF CONTRACTIONS:           22   (  22A   )
 NUMBER OF CORE ORBITALS:           3   (   3A   )
 NUMBER OF VALENCE ORBITALS:       19   (  19A   )


 NUCLEAR REPULSION ENERGY   75.20704826


 Eigenvalues of metric

         1 0.213E+00 0.225E+00 0.288E+00 0.342E+00 0.359E+00 0.374E+00 0.380E+00 0.402E+00


 Contracted 2-electron integrals neglected if value below      1.0D-11
 AO integral compression algorithm  1   Integral accuracy      1.0D-11

     0.524 MB (compressed) written to integral file ( 89.6%)


 NUMBER OF SORTED TWO-ELECTRON INTEGRALS:      32131.     BUFFER LENGTH:  32768
 NUMBER OF SEGMENTS:   1  SEGMENT LENGTH:      32131      RECORD LENGTH: 524288

 Memory used in sort:       0.59 MW

 SORT1 READ       38209. AND WROTE       30689. INTEGRALS IN      1 RECORDS. CPU TIME:     0.00 SEC, REAL TIME:     0.01 SEC
 SORT2 READ       30689. AND WROTE       32131. INTEGRALS IN      2 RECORDS. CPU TIME:     0.00 SEC, REAL TIME:     0.01 SEC

 FILE SIZES:   FILE 1:    30.6 MBYTE,  FILE 4:     4.2 MBYTE,   TOTAL:     34.9 MBYTE

 OPERATOR DM      FOR CENTER  0  COORDINATES:    0.000000    0.000000    0.000000


 **********************************************************************************************************************************
 DATASETS  * FILE   NREC   LENGTH (MB)   RECORD NAMES
              1      19       30.27       500      610      700      900      950      970     1000      129      960     1100   
                                          VAR    BASINP    GEOM    SYMINP    ZMAT    AOBASIS   BASIS     P2S    ABASIS      S 
                                         1400     1410     1200     1210     1080     1600     1650     1300     1700   
                                           T        V       H0       H01     AOSYM     SMH    MOLCAS    ERIS     OPER   

 PROGRAMS   *        TOTAL       INT
 CPU TIMES  *         0.39      0.25
 REAL TIME  *         0.71 SEC
 DISK USED  *        35.29 MB      
 **********************************************************************************************************************************

 Density functional group BH-LYP=B88+LYP
 Functional: B88(Automatically generated (new) B88)                            Gradient terms: 1
 Functional: LYP(Automatically generated (new) LYP)                            Gradient terms: 1
 Use grid at  1800.2


 Exact exchange will be calculated, factor:  0.5000

 Functional: B88                       Factor:  0.5000
 Functional: LYP                       Factor:  1.0000

 Generated new metagrid on record  1800.2 with target accuracy 1.0D-06 and 32470 points in CPU time    0.7
 Computed new grid on record 1800.1 in CPU time    0.8
   21722 words reserved for DFT integration

 PROGRAM * UKS-SCF (Unrestricted Kohn-Sham)     Authors: W. Meyer, H.-J. Werner, P.J. Knowles, 1993

 NUMBER OF ELECTRONS:      13+   12-    SPACE SYMMETRY=1    SPIN SYMMETRY: Doublet 
 CONVERGENCE THRESHOLDS:    1.00E-05 (Density)    1.00E-06 (Energy)
 MAX. NUMBER OF ITERATIONS:       60
 INTERPOLATION TYPE:            DIIS
 INTERPOLATION STEPS:              2 (START)      1 (STEP)
 LEVEL SHIFTS:                 -0.20 (ALPHA)  -0.20 (BETA) 



 Use fine grid record 1800.2 for energy threshold  1.0D-06
 Orbital guess generated from atomic densities. Full valence occupancy:   13

 Molecular orbital dump at record        2200.2

 Initial alpha occupation  13
 Initial beta  occupation  12

 ITERATION    DDIFF          GRAD             ENERGY        2-EL.EN.            DIPOLE MOMENTS         DIIS
    1      0.000D+00      0.000D+00      -116.87055204    251.760333    0.19526   -0.28719    0.00000    0
    2      0.423D-01      0.175D-01      -116.97954889    246.185049    0.07302   -0.10824    0.00000    1
    3      0.310D-02      0.287D-02      -116.98264346    245.985295    0.04220   -0.07874    0.00000    2
    4      0.238D-02      0.137D-02      -116.98383505    245.951994    0.02669   -0.06559    0.00000    3
    5      0.980D-03      0.467D-03      -116.98399548    245.953668    0.02318   -0.06207    0.00000    4
    6      0.231D-03      0.102D-03      -116.98400374    245.952429    0.02381   -0.06200    0.00000    5
    7      0.218D-04      0.235D-04      -116.98400420    245.953216    0.02386   -0.06199    0.00000    6
    8      0.977D-05      0.730D-05      -116.98400424    245.952991    0.02384   -0.06198    0.00000    6
    9      0.191D-05      0.119D-05      -116.98400424    245.953099    0.02384   -0.06198    0.00000    6

 Final alpha occupancy:  13
 Final beta  occupancy:  12

 !UKS STATE 1.1 Energy               -116.984004237158
 Nuclear energy                        75.20704826
 One-electron energy                 -305.37264906
 Two-electron energy                  122.97654930
 Density functional                    -9.79495273     B88=-18.04509097 LYP= -0.77240725
 Virial quotient                       -1.01418364
 !UKS STATE 1.1 Dipole moment           0.02383618    -0.06198293     0.00000000
 Dipole moment /Debye                   0.06058157    -0.15753458     0.00000000

 Orbital energies for positive spin:

         1.1          2.1          3.1          4.1          5.1          6.1          7.1          8.1          9.1         10.1
    -10.406084   -10.406064   -10.377819    -0.850641    -0.751983    -0.622736    -0.484811    -0.464145    -0.436975    -0.415662

        11.1         12.1         13.1         14.1         15.1
     -0.373830    -0.368205    -0.187558     0.461505     0.493101

 Orbital energies for negative spin:

         1.1          2.1          3.1          4.1          5.1          6.1          7.1          8.1          9.1         10.1
    -10.407775   -10.407750   -10.359432    -0.824960    -0.750815    -0.590063    -0.478409    -0.439252    -0.431164    -0.408963

        11.1         12.1         13.1         14.1         15.1
     -0.368221    -0.362358     0.151399     0.465278     0.523710

 HOMO     13.1    -0.187558 =      -5.1037eV
 LUMO    -13.1     0.151399 =       4.1198eV
 LUMO-HOMO         0.338958 =       9.2235eV

 EXPECTATION VALUE OF S**2:             0.75596313

 Occupation number threshold for canonical orbitals:  1.999000 (occupied),  0.001000 (virtual)

 Number of pseudo-canonical orbitals per symmetry:   11
 Number of active natural orbitals per symmetry:      3

 Natural orbitals saved to record    2200.2 (Orbital set 3)

 Orbital spaces for UNO-CAS (Min. occupation: 0.020  Max. occupation: 1.980):

 Closed:       12
 Active:        1


 **********************************************************************************************************************************
 DATASETS  * FILE   NREC   LENGTH (MB)   RECORD NAMES
              1      20       31.31       500      610      700      900      950      970     1000      129      960     1100   
                                          VAR    BASINP    GEOM    SYMINP    ZMAT    AOBASIS   BASIS     P2S    ABASIS      S 
                                         1400     1410     1200     1210     1080     1600     1650     1300     1700     1800   
                                           T        V       H0       H01     AOSYM     SMH    MOLCAS    ERIS     OPER     GRID   

              2       5        2.93       700     1000      520     1800     2200   
                                         GEOM     BASIS   MCVARS    GRID      UKS  

 PROGRAMS   *        TOTAL       UKS       INT
 CPU TIMES  *         2.53      2.14      0.25
 REAL TIME  *         2.94 SEC
 DISK USED  *        35.29 MB      
 **********************************************************************************************************************************


 PROGRAM * Intrinsic Basis Bonding Analysis (IBBA)          Author: G. Knizia

 Molecular orbitals read from record     2200.2  Type=UKS/ALPHA (state 1.1)
 Fock matrix read from record            2200.2  Type=UKS/TOTAL (state 1.1)
 Orbital energies read from record       2200.2  Type=UKS/ALPHA (state 1.1)
 Density matrix read from record         2200.2  Type=UKS/CHARGE (state 1.1)

 Number of core orbitals:           3 (   3 )
 Number of closed-shell orbitals:   9 (   9 )
 Number of active  orbitals:        1 (   1 )

 Basis set MINAO-AUTO-PP generated.      Number of basis functions:   22 

 Polarized AO type:                A = (O Ot + (1-O)(1-Ot)) P12
 Orthogonalization method:         Symmetric (Loewdin)
 Localization functional:          L = sum[A,i] <i|n_A|i>^4 -> max

 Localization group 1:  12 orbitals, occupancy  2.000
 Iterative localization: IB/PM,    7 iter; Final gradient 0.60E-08

 Bond order analysis:       [THRPRINT= 0.020]

   CEN ATOM   CEN ATOM     WIBERG.BO      RENORM.BO
     1   H  -   2   C       0.953573       0.973980

     2   C  -   3   C       1.172469       1.483978
     2   C  -   4   C       1.172469       1.483978
     2   C  -   1   H       0.953573       0.973980
     2   C  -   9   H       0.069705       0.274347
     2   C  -  10   H       0.069705       0.274347
     2   C  -   7   H       0.021978       0.079125
     2   C  -   8   H       0.021978       0.079125

     3   C  -   2   C       1.172469       1.483978
     3   C  -   5   H       0.955016       0.990740
     3   C  -   7   H       0.936875       0.990981
     3   C  -   9   H       0.867853       0.996765

     4   C  -   2   C       1.172469       1.483978
     4   C  -   6   H       0.955016       0.990740
     4   C  -   8   H       0.936875       0.990981
     4   C  -  10   H       0.867853       0.996765

     5   H  -   3   C       0.955016       0.990740

     6   H  -   4   C       0.955016       0.990740

     7   H  -   3   C       0.936875       0.990981
     7   H  -   2   C       0.021978       0.079125

     8   H  -   4   C       0.936875       0.990981
     8   H  -   2   C       0.021978       0.079125

     9   H  -   3   C       0.867853       0.996765
     9   H  -   2   C       0.069705       0.274347

    10   H  -   4   C       0.867853       0.996765
    10   H  -   2   C       0.069705       0.274347


 Valency analysis:

   CEN ATOM   TOT.VALENCE
     1   H       0.976578
     2   C       3.500280
     3   C       3.953885
     4   C       3.953885
     5   H       0.981149
     6   H       0.981149
     7   H       0.978762
     8   H       0.978762
     9   H       0.963685
    10   H       0.963685
 Localization group 2:   1 orbitals, occupancy  1.000
 Iterative localization: IB/PM,    1 iter; Final gradient 0.00E+00

 Bond order analysis:       [THRPRINT= 0.020]

   CEN ATOM   CEN ATOM     WIBERG.BO      RENORM.BO

     2   C  -   9   H       0.092266       0.500000
     2   C  -  10   H       0.092266       0.500000
     2   C  -   3   C       0.030013       0.500000
     2   C  -   4   C       0.030013       0.500000
     2   C  -   7   H       0.029260       0.500000
     2   C  -   8   H       0.029260       0.500000

     3   C  -   2   C       0.030013       0.500000

     4   C  -   2   C       0.030013       0.500000



     7   H  -   2   C       0.029260       0.500000

     8   H  -   2   C       0.029260       0.500000

     9   H  -   2   C       0.092266       0.500000

    10   H  -   2   C       0.092266       0.500000


 Valency analysis:

   CEN ATOM   TOT.VALENCE
     1   H       0.001667
     2   C       0.326609
     3   C       0.037065
     4   C       0.037065
     5   H       0.013878
     6   H       0.013878
     7   H       0.036153
     8   H       0.036153
     9   H       0.109395
    10   H       0.109395

 Total charge composition:

   CEN ATOM         s          p       ELECTRONS ->P.CHARGE
     1   H       0.84779                 0.84779    0.15221
     2   C       3.05818    3.25314      6.31132   -0.31132
     3   C       2.97866    3.33191      6.31057   -0.31057
     4   C       2.97866    3.33191      6.31057   -0.31057
     5   H       0.86969                 0.86969    0.13031
     6   H       0.86969                 0.86969    0.13031
     7   H       0.87268                 0.87268    0.12732
     8   H       0.87268                 0.87268    0.12732
     9   H       0.86751                 0.86751    0.13249
    10   H       0.86751                 0.86751    0.13249

 Total charge composition, AO contributions:

   CEN ATOM SHL      SPHERICAL COMPONENTS
     1   H  1s       0.84779

     2   C  1s       1.99255
     2   C  2s       1.06562
     2   C  2p       1.12484    1.09991    1.02839

     3   C  1s       1.99129
     3   C  2s       0.98737
     3   C  2p       1.13484    1.12179    1.07527

     4   C  1s       1.99129
     4   C  2s       0.98737
     4   C  2p       1.13484    1.12179    1.07527

     5   H  1s       0.86969

     6   H  1s       0.86969

     7   H  1s       0.87268

     8   H  1s       0.87268

     9   H  1s       0.86751

    10   H  1s       0.86751

 Active orbital charges:

   CEN ATOM         s          p       ELECTRONS ->SPIN.DEN
     1   H       0.00083                 0.00083    0.00083
     2   C       0.00541    0.78903      0.79444    0.79444
     3   C       0.00011    0.01878      0.01889    0.01889
     4   C       0.00011    0.01878      0.01889    0.01889
     5   H       0.00699                 0.00699    0.00699
     6   H       0.00699                 0.00699    0.00699
     7   H       0.01842                 0.01842    0.01842
     8   H       0.01842                 0.01842    0.01842
     9   H       0.05807                 0.05807    0.05807
    10   H       0.05807                 0.05807    0.05807

 Active orbital charges, AO contributions:

   CEN ATOM SHL      SPHERICAL COMPONENTS
     1   H  1s       0.00083

     2   C  1s       0.00001
     2   C  2s       0.00540
     2   C  2p       0.03355    0.75548    0.00000

     3   C  1s       0.00000
     3   C  2s       0.00011
     3   C  2p       0.00029    0.01825    0.00024

     4   C  1s       0.00000
     4   C  2s       0.00011
     4   C  2p       0.00029    0.01825    0.00024

     5   H  1s       0.00699

     6   H  1s       0.00699

     7   H  1s       0.01842

     8   H  1s       0.01842

     9   H  1s       0.05807

    10   H  1s       0.05807

 Summary of localized orbital composition:   [THRPRINT= 0.020]

   ORB  GRP  ORB.ENERGY      CENTERS/CHARGES
     1   1   -10.289614      C  4   2.000
     2   1   -10.289614      C  3   2.000
     3   1   -10.259291      C  2   2.000
     4   1    -0.628673      C  2   1.021   C  4   0.973
     5   1    -0.628673      C  2   1.021   C  3   0.973
     6   1    -0.559738      C  2   1.152   H  1   0.838
     7   1    -0.539306      C  4   1.080   H 10   0.802   C  2   0.110
     8   1    -0.539306      C  3   1.080   H  9   0.802   C  2   0.110
     9   1    -0.537679      C  4   1.122   H  6   0.857   (other: 0.021)
    10   1    -0.537679      C  3   1.122   H  5   0.857   (other: 0.021)
    11   1    -0.535568      C  3   1.110   H  7   0.848   C  2   0.035
    12   1    -0.535568      C  4   1.110   H  8   0.848   C  2   0.035
    13   2    -0.025475      C  2   0.794   H  9   0.058   H 10   0.058   (other: 0.089)

 Localized orbitals saved to record      2200.2  (orbital set 4)


 **********************************************************************************************************************************
 DATASETS  * FILE   NREC   LENGTH (MB)   RECORD NAMES
              1      20       31.31       500      610      700      900      950      970     1000      129      960     1100   
                                          VAR    BASINP    GEOM    SYMINP    ZMAT    AOBASIS   BASIS     P2S    ABASIS      S 
                                         1400     1410     1200     1210     1080     1600     1650     1300     1700     1800   
                                           T        V       H0       H01     AOSYM     SMH    MOLCAS    ERIS     OPER     GRID   

              2       5        2.94       700     1000      520     1800     2200   
                                         GEOM     BASIS   MCVARS    GRID      UKS  

 PROGRAMS   *        TOTAL      IBBA       UKS       INT
 CPU TIMES  *         2.56      0.03      2.14      0.25
 REAL TIME  *         3.02 SEC
 DISK USED  *        35.29 MB      
 **********************************************************************************************************************************
 Molecular orbitals read from record     2200.2  Type=UKS/LOCAL(IBO)  
 Occupation numbers read from record     2200.2  Type=UKS/LOCAL(IBO)  
 Orbital energies read from record       2200.2  Type=UKS/LOCAL(IBO)  
 Redundancy group numbers read from rec  2200.2  Type=UKS/BETA (state 1.1)

 IBBA/STO-3G energy=      0.000000000000

        UKS-SCF 
   -116.98400424
 **********************************************************************************************************************************
 Molpro calculation terminated
