
 Primary working directories    : /tmp/sb13343
 Secondary working directories  : /tmp/sb13343
 Wavefunction directory         : /panfs/panasas01/chem/sb13343/wfu/
 Main file repository           : /tmp/sb13343/

 SHA1      : b4a5b34a9e711420743f49e6833241d17c61fb3c
 NAME      : 2099.9.b4a5b34
 ARCHNAME  : linux/x86_64_openmp
 FC        : /cm/shared/languages/GCC-6.1/bin/gfortran
 BLASLIB   : -lblas
 id        : simonbennie

 Nodes     nprocs
 node32-018    1

 Using customized tuning parameters: mindgm=1; mindgv=20; mindgc=4; mindgr=1; noblas=0; minvec=7
 default implementation of scratch files=df  

 memory,500,m
 geomtyp=xyz
 nosym
 noorient
 geometry={
 H         -1.57413        0.33845        0.00000
 C         -0.49500        0.20144        0.00000
 C          0.18857       -0.05954       -1.30114
 C          0.18857       -0.05954        1.30114
 H         -0.33790        0.40751       -2.14134
 H         -0.33790        0.40751        2.14134
 H          1.22176        0.31596       -1.29638
 H          1.22176        0.31596        1.29638
 H          0.25678       -1.13976       -1.52896
 H          0.25678       -1.13976        1.52896
 }
 basis={ default,svp }
 {ks,M08-HX,direct;wf,25,1,1}
 {ibba,bonds=1}

 Variables initialized (895), CPU time= 0.00 sec
 Commands  initialized (725), CPU time= 0.02 sec, 591 directives.
 Default parameters read. Elapsed time= 0.08 sec

 Checking input...
 Passed
1


                                         ***  PROGRAM SYSTEM MOLPRO  ***
                                       Copyright, TTI GmbH Stuttgart, 2015
                                    Version 2099.9 linked May 26 2017 16:03:21


 **********************************************************************************************************************************
 LABEL *                                                                                 
  64 bit serial version                                                                  DATE: 08-Jun-17          TIME: 15:34:09  
 **********************************************************************************************************************************

 SHA1:             b4a5b34a9e711420743f49e6833241d17c61fb3c
 **********************************************************************************************************************************
 SETTING GEOMTYP        =    XYZ

 Variable memory set to  500000000 words,  buffer space 

 ZSYMEL=NOSYM

 SETTING BASIS          =    SVP


 Recomputing integrals since basis changed


 Using spherical harmonics

 Library entry H      S def2-SVP             selected for orbital group  1
 Library entry H      P def2-SVP             selected for orbital group  1
 Library entry C      S def2-SVP             selected for orbital group  2
 Library entry C      P def2-SVP             selected for orbital group  2
 Library entry C      D def2-SVP             selected for orbital group  2


 PROGRAM * SEWARD (Integral evaluation for generally contracted gaussian basis sets)     Author: Roland Lindh, 1990

 Geometry written to block  1 of record 700


 Point group  C1  



 ATOMIC COORDINATES

 NR  ATOM    CHARGE       X              Y              Z

   1  H       1.00   -2.974674584    0.639577807    0.000000000
   2  C       6.00   -0.935414432    0.380666431    0.000000000
   3  C       6.00    0.356345655   -0.112514293   -2.458798250
   4  C       6.00    0.356345655   -0.112514293    2.458798250
   5  H       1.00   -0.638538457    0.770082293   -4.046546140
   6  H       1.00   -0.638538457    0.770082293    4.046546140
   7  H       1.00    2.308791790    0.597077866   -2.449803153
   8  H       1.00    2.308791790    0.597077866    2.449803153
   9  H       1.00    0.485243874   -2.153834248   -2.889315655
  10  H       1.00    0.485243874   -2.153834248    2.889315655

 Bond lengths in Bohr (Angstrom)

 1-2  2.055630578  2-3  2.820914777  2-4  2.820914777  3-5  2.071162595  3-7  2.077413742
     ( 1.087792856)     ( 1.492763814)     ( 1.492763814)     ( 1.096012045)     ( 1.099320010)

  3- 9  2.090202656   4- 6  2.071162595   4- 8  2.077413742   4-10  2.090202656
       ( 1.106087612)       ( 1.096012045)       ( 1.099320010)       ( 1.106087612)

 Bond angles

  1-2-3  118.44375943   1-2-4  118.44375943   2-3-5  111.94558337   2-3-7  111.52358867

  2- 3- 9  112.24140213   2- 4- 6  111.94558337   2- 4- 8  111.52358867   2- 4-10  112.24140213

  3-2-4  121.29758064   5-3-7  108.01204745   5-3-9  106.73207413   6-4-8  108.01204745

  6- 4-10  106.73207413   7- 3- 9  106.05262855   8- 4-10  106.05262855

 NUCLEAR CHARGE:                   25
 NUMBER OF PRIMITIVE AOS:         124
 NUMBER OF SYMMETRY AOS:          121
 NUMBER OF CONTRACTIONS:           77   (  77A   )
 NUMBER OF CORE ORBITALS:           3   (   3A   )
 NUMBER OF VALENCE ORBITALS:       19   (  19A   )


 NUCLEAR REPULSION ENERGY   75.20704826


 Eigenvalues of metric

         1 0.402E-02 0.537E-02 0.229E-01 0.265E-01 0.266E-01 0.379E-01 0.436E-01 0.492E-01


 Contracted 2-electron integrals neglected if value below      1.0D-11
 AO integral compression algorithm  1   Integral accuracy      1.0D-11

     19.923 MB (compressed) written to integral file ( 49.4%)


 NUMBER OF SORTED TWO-ELECTRON INTEGRALS:    4510506.     BUFFER LENGTH:  32768
 NUMBER OF SEGMENTS:   1  SEGMENT LENGTH:    4510506      RECORD LENGTH: 524288

 Memory used in sort:       5.07 MW

 SORT1 READ     5074366. AND WROTE     4244391. INTEGRALS IN     13 RECORDS. CPU TIME:     0.06 SEC, REAL TIME:     0.14 SEC
 SORT2 READ     4244391. AND WROTE     4510506. INTEGRALS IN     76 RECORDS. CPU TIME:     0.16 SEC, REAL TIME:     0.19 SEC

 FILE SIZES:   FILE 1:    50.3 MBYTE,  FILE 4:    54.6 MBYTE,   TOTAL:    104.8 MBYTE

 OPERATOR DM      FOR CENTER  0  COORDINATES:    0.000000    0.000000    0.000000


 **********************************************************************************************************************************
 DATASETS  * FILE   NREC   LENGTH (MB)   RECORD NAMES
              1      19       47.44       500      610      700      900      950      970     1000      129      960     1100   
                                          VAR    BASINP    GEOM    SYMINP    ZMAT    AOBASIS   BASIS     P2S    ABASIS      S 
                                         1400     1410     1200     1210     1080     1600     1650     1300     1700   
                                           T        V       H0       H01     AOSYM     SMH    MOLCAS    ERIS     OPER   

 PROGRAMS   *        TOTAL       INT
 CPU TIMES  *         1.09      0.95
 REAL TIME  *         1.54 SEC
 DISK USED  *       105.25 MB      
 **********************************************************************************************************************************

 Density functional group M08-HX=XC-M08-HX
 Functional: XC-M08-HX(via MFM 1.6)                                            Gradient terms: 1
 Use grid at  1800.2


 Exact exchange will be calculated, factor:  0.5223

 Functional: XC-M08-HX                 Factor:  1.0000

 Generated new metagrid on record  1800.2 with target accuracy 1.0D-06 and 32470 points in CPU time    0.8
 Computed new grid on record 1800.1 in CPU time    0.8
   65184 words reserved for DFT integration

 PROGRAM * RKS-SCF (Restricted open shell Kohn-Sham)     Authors: W. Meyer, H.-J. Werner, P.J. Knowles, 1993

 NUMBER OF ELECTRONS:      13+   12-    SPACE SYMMETRY=1    SPIN SYMMETRY: Doublet 
 CONVERGENCE THRESHOLDS:    1.00E-05 (Density)    1.00E-06 (Energy)
 MAX. NUMBER OF ITERATIONS:       60
 INTERPOLATION TYPE:            DIIS
 INTERPOLATION STEPS:              2 (START)      1 (STEP)
 LEVEL SHIFTS:                 -0.60 (CLOSED) -0.30 (OPEN) 



 Use fine grid record 1800.2 for energy threshold  1.0D-06
 Orbital guess generated from atomic densities. Full valence occupancy:   13

 Molecular orbital dump at record        2100.2

 Initial alpha occupancy:  13
 Initial beta  occupancy:  12
 Wave function symmetry:    1

 ITERATION    DDIFF          GRAD             ENERGY        2-EL.EN.            DIPOLE MOMENTS         DIIS   ORB.
    1      0.000D+00      0.000D+00      -118.29064188    248.789987    0.20695   -0.25899    0.00000    0    start
    2      0.000D+00      0.730D-02      -118.34579132    243.411024    0.07514   -0.12403   -0.00000    1    diag,B
    3      0.696D-02      0.185D-02      -118.34951868    244.024244    0.05560   -0.11882   -0.00000    2    diag,B
    4      0.166D-02      0.648D-03      -118.35093159    243.927611    0.03379   -0.10104   -0.00000    3    diag,B
    5      0.142D-02      0.191D-03      -118.35108784    243.909704    0.02887   -0.09573   -0.00000    4    diag,B
    6      0.610D-03      0.443D-04      -118.35109568    243.905884    0.02861   -0.09452   -0.00000    5    diag,B
    7      0.143D-03      0.159D-04      -118.35109691    243.906105    0.02896   -0.09430   -0.00000    6    fixocc
    8      0.639D-04      0.457D-05      -118.35109704    243.906022    0.02910   -0.09421   -0.00000    7    diag,B
    9      0.207D-04      0.158D-05      -118.35109705    243.906051    0.02915   -0.09420   -0.00000    8    diag,B
   10      0.101D-04      0.435D-06      -118.35109706    243.906058    0.02915   -0.09419   -0.00000    9    orth
   11      0.307D-05      0.146D-06      -118.35109706    243.906058    0.02915   -0.09419   -0.00000    0    orth

 Final alpha occupancy:  13
 Final beta  occupancy:  12

 !RKS STATE 1.1 Energy               -118.351097055322
 Nuclear energy                        75.20704826
 One-electron energy                 -306.11877373
 Two-electron energy                  121.95302892
 Density functional                    -9.39240050     XC-M08-HX=-9.39240050
 Virial quotient                       -1.01395407
 !RKS STATE 1.1 Dipole moment           0.02915170    -0.09418928    -0.00000000
 Dipole moment /Debye                   0.07409139    -0.23938959    -0.00000000

 Orbital energies:

         1.1          2.1          3.1          4.1          5.1          6.1          7.1          8.1          9.1         10.1
    -10.540632   -10.535821   -10.535800    -0.864337    -0.774582    -0.633777    -0.518343    -0.482177    -0.472410    -0.445184

        11.1         12.1         13.1         14.1         15.1
     -0.416036    -0.406299    -0.239215     0.083680     0.115056

 HOMO     13.1    -0.239215 =      -6.5094eV
 LUMO     14.1     0.083680 =       2.2770eV
 LUMO-HOMO         0.322895 =       8.7864eV


 **********************************************************************************************************************************
 DATASETS  * FILE   NREC   LENGTH (MB)   RECORD NAMES
              1      20       48.47       500      610      700      900      950      970     1000      129      960     1100   
                                          VAR    BASINP    GEOM    SYMINP    ZMAT    AOBASIS   BASIS     P2S    ABASIS      S 
                                         1400     1410     1200     1210     1080     1600     1650     1300     1700     1800   
                                           T        V       H0       H01     AOSYM     SMH    MOLCAS    ERIS     OPER     GRID   

              2       5        3.08       700     1000      520     1800     2100   
                                         GEOM     BASIS   MCVARS    GRID      RKS  

 PROGRAMS   *        TOTAL        KS       INT
 CPU TIMES  *        19.15     18.05      0.95
 REAL TIME  *        19.68 SEC
 DISK USED  *       105.25 MB      
 **********************************************************************************************************************************


 PROGRAM * Intrinsic Basis Bonding Analysis (IBBA)          Author: G. Knizia

 Molecular orbitals read from record     2100.2  Type=RKS/CANONICAL (state 1.1)
 Fock matrix read from record            2100.2  Type=RKS/TOTAL (state 1.1)
 Orbital energies read from record       2100.2  Type=RKS/CANONICAL (state 1.1)
 Density matrix read from record         2100.2  Type=RKS/CHARGE (state 1.1)

 Number of core orbitals:           3 (   3 )
 Number of closed-shell orbitals:   9 (   9 )
 Number of active  orbitals:        1 (   1 )

 Basis set MINAO-AUTO-PP generated.      Number of basis functions:   22 

 Polarized AO type:                A = (O Ot + (1-O)(1-Ot)) P12
 Orthogonalization method:         Symmetric (Loewdin)
 Localization functional:          L = sum[A,i] <i|n_A|i>^4 -> max

 Localization group 1:  12 orbitals, occupancy  2.000
 Iterative localization: IB/PM,    7 iter; Final gradient 0.29E-08

 Bond order analysis:       [THRPRINT= 0.020]

   CEN ATOM   CEN ATOM     WIBERG.BO      RENORM.BO
     1   H  -   2   C       0.955351       0.969886

     2   C  -   4   C       1.087094       1.496245
     2   C  -   3   C       1.087094       1.496245
     2   C  -   1   H       0.955351       0.969886
     2   C  -   9   H       0.035818       0.310732
     2   C  -  10   H       0.035818       0.310732

     3   C  -   2   C       1.087094       1.496245
     3   C  -   5   H       0.957957       0.989645
     3   C  -   7   H       0.950616       0.988786
     3   C  -   9   H       0.925463       0.998496

     4   C  -   2   C       1.087094       1.496245
     4   C  -   6   H       0.957957       0.989645
     4   C  -   8   H       0.950616       0.988786
     4   C  -  10   H       0.925463       0.998496

     5   H  -   3   C       0.957957       0.989645

     6   H  -   4   C       0.957957       0.989645

     7   H  -   3   C       0.950616       0.988786

     8   H  -   4   C       0.950616       0.988786

     9   H  -   3   C       0.925463       0.998496
     9   H  -   2   C       0.035818       0.310732

    10   H  -   4   C       0.925463       0.998496
    10   H  -   2   C       0.035818       0.310732


 Valency analysis:

   CEN ATOM   TOT.VALENCE
     1   H       0.983497
     2   C       3.235011
     3   C       3.938030
     4   C       3.938030
     5   H       0.978968
     6   H       0.978968
     7   H       0.978201
     8   H       0.978201
     9   H       0.969860
    10   H       0.969860
 Localization group 2:   1 orbitals, occupancy  1.000
 Iterative localization: IB/PM,    1 iter; Final gradient 0.00E+00

 Bond order analysis:       [THRPRINT= 0.020]

   CEN ATOM   CEN ATOM     WIBERG.BO      RENORM.BO

     2   C  -   9   H       0.074161       0.500000
     2   C  -  10   H       0.074161       0.500000
     2   C  -   7   H       0.023220       0.500000
     2   C  -   8   H       0.023220       0.500000





     7   H  -   2   C       0.023220       0.500000

     8   H  -   2   C       0.023220       0.500000

     9   H  -   2   C       0.074161       0.500000

    10   H  -   2   C       0.074161       0.500000


 Valency analysis:

   CEN ATOM   TOT.VALENCE
     1   H       0.000914
     2   C       0.215901
     3   C       0.002800
     4   C       0.002800
     5   H       0.008754
     6   H       0.008754
     7   H       0.026130
     8   H       0.026130
     9   H       0.080996
    10   H       0.080996

 Total charge composition:

   CEN ATOM         s          p       ELECTRONS ->P.CHARGE
     1   H       0.87199                 0.87199    0.12801
     2   C       3.00034    3.12770      6.12804   -0.12804
     3   C       3.00987    3.39646      6.40634   -0.40634
     4   C       3.00987    3.39646      6.40634   -0.40634
     5   H       0.85937                 0.85937    0.14063
     6   H       0.85937                 0.85937    0.14063
     7   H       0.86560                 0.86560    0.13440
     8   H       0.86560                 0.86560    0.13440
     9   H       0.86868                 0.86868    0.13132
    10   H       0.86868                 0.86868    0.13132

 Total charge composition, AO contributions:

   CEN ATOM SHL      SPHERICAL COMPONENTS
     1   H  1s       0.87199

     2   C  1s       1.99220
     2   C  2s       1.00814
     2   C  2p       1.10689    1.01146    1.00935

     3   C  1s       1.99057
     3   C  2s       1.01931
     3   C  2p       1.14447    1.15271    1.09928

     4   C  1s       1.99057
     4   C  2s       1.01931
     4   C  2p       1.14447    1.15271    1.09928

     5   H  1s       0.85937

     6   H  1s       0.85937

     7   H  1s       0.86560

     8   H  1s       0.86560

     9   H  1s       0.86868

    10   H  1s       0.86868

 Active orbital charges:

   CEN ATOM         s          p       ELECTRONS ->SPIN.DEN
     1   H       0.00046                 0.00046    0.00046
     2   C       0.00908    0.86781      0.87689    0.87689
     3   C       0.00010    0.00130      0.00140    0.00140
     4   C       0.00010    0.00130      0.00140    0.00140
     5   H       0.00440                 0.00440    0.00440
     6   H       0.00440                 0.00440    0.00440
     7   H       0.01324                 0.01324    0.01324
     8   H       0.01324                 0.01324    0.01324
     9   H       0.04229                 0.04229    0.04229
    10   H       0.04229                 0.04229    0.04229

 Active orbital charges, AO contributions:

   CEN ATOM SHL      SPHERICAL COMPONENTS
     1   H  1s       0.00046

     2   C  1s       0.00001
     2   C  2s       0.00908
     2   C  2p       0.03475    0.83306    0.00000

     3   C  1s       0.00000
     3   C  2s       0.00010
     3   C  2p       0.00002    0.00119    0.00009

     4   C  1s       0.00000
     4   C  2s       0.00010
     4   C  2p       0.00002    0.00119    0.00009

     5   H  1s       0.00440

     6   H  1s       0.00440

     7   H  1s       0.01324

     8   H  1s       0.01324

     9   H  1s       0.04229

    10   H  1s       0.04229

 Summary of localized orbital composition:   [THRPRINT= 0.020]

   ORB  GRP  ORB.ENERGY      CENTERS/CHARGES
     1   1   -10.438203      C  2   2.000
     2   1   -10.416386      C  4   2.000
     3   1   -10.416386      C  3   2.000
     4   1    -0.681290      C  3   1.007   C  2   0.986
     5   1    -0.681290      C  4   1.007   C  2   0.986
     6   1    -0.588920      C  2   1.126   H  1   0.862
     7   1    -0.568627      C  4   1.126   H 10   0.823   C  2   0.048
     8   1    -0.568627      C  3   1.126   H  9   0.823   C  2   0.048
     9   1    -0.566867      C  3   1.130   H  7   0.848   (other: 0.023)
    10   1    -0.566867      C  4   1.130   H  8   0.848   (other: 0.023)
    11   1    -0.565967      C  4   1.135   H  6   0.849
    12   1    -0.565967      C  3   1.135   H  5   0.849
    13   2    -0.110614      C  2   0.877   H  9   0.042   H 10   0.042   (other: 0.039)

 Localized orbitals saved to record      2100.2  (orbital set 2)


 **********************************************************************************************************************************
 DATASETS  * FILE   NREC   LENGTH (MB)   RECORD NAMES
              1      20       48.47       500      610      700      900      950      970     1000      129      960     1100   
                                          VAR    BASINP    GEOM    SYMINP    ZMAT    AOBASIS   BASIS     P2S    ABASIS      S 
                                         1400     1410     1200     1210     1080     1600     1650     1300     1700     1800   
                                           T        V       H0       H01     AOSYM     SMH    MOLCAS    ERIS     OPER     GRID   

              2       5        3.13       700     1000      520     1800     2100   
                                         GEOM     BASIS   MCVARS    GRID      RKS  

 PROGRAMS   *        TOTAL      IBBA        KS       INT
 CPU TIMES  *        19.18      0.04     18.05      0.95
 REAL TIME  *        19.77 SEC
 DISK USED  *       105.25 MB      
 **********************************************************************************************************************************
 Molecular orbitals read from record     2100.2  Type=RKS/LOCAL(IBO)  
 Occupation numbers read from record     2100.2  Type=RKS/LOCAL(IBO)  
 Orbital energies read from record       2100.2  Type=RKS/LOCAL(IBO)  
 Redundancy group numbers read from rec  2100.2  Type=RKS/LOCAL(IBO)  

 IBBA/SVP energy=      0.000000000000

        KS-SCF  
   -118.35109706
 **********************************************************************************************************************************
 Molpro calculation terminated
