
 Primary working directories    : /tmp/sb13343
 Secondary working directories  : /tmp/sb13343
 Wavefunction directory         : /panfs/panasas01/chem/sb13343/wfu/
 Main file repository           : /tmp/sb13343/

 SHA1      : b4a5b34a9e711420743f49e6833241d17c61fb3c
 NAME      : 2099.9.b4a5b34
 ARCHNAME  : linux/x86_64_openmp
 FC        : /cm/shared/languages/GCC-6.1/bin/gfortran
 BLASLIB   : -lblas
 id        : simonbennie

 Nodes     nprocs
 node32-018    1

 Using customized tuning parameters: mindgm=1; mindgv=20; mindgc=4; mindgr=1; noblas=0; minvec=7
 default implementation of scratch files=df  

 memory,500,m
 geomtyp=xyz
 nosym
 noorient
 geometry={
 H         -1.57413        0.33845        0.00000
 C         -0.49500        0.20144        0.00000
 C          0.18857       -0.05954       -1.30114
 C          0.18857       -0.05954        1.30114
 H         -0.33790        0.40751       -2.14134
 H         -0.33790        0.40751        2.14134
 H          1.22176        0.31596       -1.29638
 H          1.22176        0.31596        1.29638
 H          0.25678       -1.13976       -1.52896
 H          0.25678       -1.13976        1.52896
 }
 basis={ default,sto-3g }
 {ks,M06-HF,direct;wf,25,1,1}
 {ibba,bonds=1}

 Variables initialized (895), CPU time= 0.01 sec
 Commands  initialized (725), CPU time= 0.01 sec, 591 directives.
 Default parameters read. Elapsed time= 0.07 sec

 Checking input...
 Passed
1


                                         ***  PROGRAM SYSTEM MOLPRO  ***
                                       Copyright, TTI GmbH Stuttgart, 2015
                                    Version 2099.9 linked May 26 2017 16:03:21


 **********************************************************************************************************************************
 LABEL *                                                                                 
  64 bit serial version                                                                  DATE: 08-Jun-17          TIME: 15:17:37  
 **********************************************************************************************************************************

 SHA1:             b4a5b34a9e711420743f49e6833241d17c61fb3c
 **********************************************************************************************************************************
 SETTING GEOMTYP        =    XYZ

 Variable memory set to  500000000 words,  buffer space 

 ZSYMEL=NOSYM

 SETTING BASIS          =    STO-3G


 Recomputing integrals since basis changed


 Using spherical harmonics

 Library entry H      S STO-3G               selected for orbital group  1
 Library entry C      S STO-3G               selected for orbital group  2
 Library entry C      P STO-3G               selected for orbital group  2


 PROGRAM * SEWARD (Integral evaluation for generally contracted gaussian basis sets)     Author: Roland Lindh, 1990

 Geometry written to block  1 of record 700


 Point group  C1  



 ATOMIC COORDINATES

 NR  ATOM    CHARGE       X              Y              Z

   1  H       1.00   -2.974674584    0.639577807    0.000000000
   2  C       6.00   -0.935414432    0.380666431    0.000000000
   3  C       6.00    0.356345655   -0.112514293   -2.458798250
   4  C       6.00    0.356345655   -0.112514293    2.458798250
   5  H       1.00   -0.638538457    0.770082293   -4.046546140
   6  H       1.00   -0.638538457    0.770082293    4.046546140
   7  H       1.00    2.308791790    0.597077866   -2.449803153
   8  H       1.00    2.308791790    0.597077866    2.449803153
   9  H       1.00    0.485243874   -2.153834248   -2.889315655
  10  H       1.00    0.485243874   -2.153834248    2.889315655

 Bond lengths in Bohr (Angstrom)

 1-2  2.055630578  2-3  2.820914777  2-4  2.820914777  3-5  2.071162595  3-7  2.077413742
     ( 1.087792856)     ( 1.492763814)     ( 1.492763814)     ( 1.096012045)     ( 1.099320010)

  3- 9  2.090202656   4- 6  2.071162595   4- 8  2.077413742   4-10  2.090202656
       ( 1.106087612)       ( 1.096012045)       ( 1.099320010)       ( 1.106087612)

 Bond angles

  1-2-3  118.44375943   1-2-4  118.44375943   2-3-5  111.94558337   2-3-7  111.52358867

  2- 3- 9  112.24140213   2- 4- 6  111.94558337   2- 4- 8  111.52358867   2- 4-10  112.24140213

  3-2-4  121.29758064   5-3-7  108.01204745   5-3-9  106.73207413   6-4-8  108.01204745

  6- 4-10  106.73207413   7- 3- 9  106.05262855   8- 4-10  106.05262855

 NUCLEAR CHARGE:                   25
 NUMBER OF PRIMITIVE AOS:          66
 NUMBER OF SYMMETRY AOS:           66
 NUMBER OF CONTRACTIONS:           22   (  22A   )
 NUMBER OF CORE ORBITALS:           3   (   3A   )
 NUMBER OF VALENCE ORBITALS:       19   (  19A   )


 NUCLEAR REPULSION ENERGY   75.20704826


 Eigenvalues of metric

         1 0.213E+00 0.225E+00 0.288E+00 0.342E+00 0.359E+00 0.374E+00 0.380E+00 0.402E+00


 Contracted 2-electron integrals neglected if value below      1.0D-11
 AO integral compression algorithm  1   Integral accuracy      1.0D-11

     0.524 MB (compressed) written to integral file ( 89.6%)


 NUMBER OF SORTED TWO-ELECTRON INTEGRALS:      32131.     BUFFER LENGTH:  32768
 NUMBER OF SEGMENTS:   1  SEGMENT LENGTH:      32131      RECORD LENGTH: 524288

 Memory used in sort:       0.59 MW

 SORT1 READ       38209. AND WROTE       30689. INTEGRALS IN      1 RECORDS. CPU TIME:     0.00 SEC, REAL TIME:     0.00 SEC
 SORT2 READ       30689. AND WROTE       32131. INTEGRALS IN      2 RECORDS. CPU TIME:     0.01 SEC, REAL TIME:     0.01 SEC

 FILE SIZES:   FILE 1:    30.6 MBYTE,  FILE 4:     4.2 MBYTE,   TOTAL:     34.9 MBYTE

 OPERATOR DM      FOR CENTER  0  COORDINATES:    0.000000    0.000000    0.000000


 **********************************************************************************************************************************
 DATASETS  * FILE   NREC   LENGTH (MB)   RECORD NAMES
              1      19       30.27       500      610      700      900      950      970     1000      129      960     1100   
                                          VAR    BASINP    GEOM    SYMINP    ZMAT    AOBASIS   BASIS     P2S    ABASIS      S 
                                         1400     1410     1200     1210     1080     1600     1650     1300     1700   
                                           T        V       H0       H01     AOSYM     SMH    MOLCAS    ERIS     OPER   

 PROGRAMS   *        TOTAL       INT
 CPU TIMES  *         0.37      0.23
 REAL TIME  *         0.68 SEC
 DISK USED  *        35.29 MB      
 **********************************************************************************************************************************

 Density functional group M06-HF=XC-M06-HF
 Functional: XC-M06-HF(via MFM 1.6)                                            Gradient terms: 1
 Use grid at  1800.2


 Exact exchange will be calculated, factor:  1.0000

 Functional: XC-M06-HF                 Factor:  1.0000

 Generated new metagrid on record  1800.2 with target accuracy 1.0D-06 and 32470 points in CPU time    0.7
 Computed new grid on record 1800.1 in CPU time    0.8
   21722 words reserved for DFT integration

 PROGRAM * RKS-SCF (Restricted open shell Kohn-Sham)     Authors: W. Meyer, H.-J. Werner, P.J. Knowles, 1993

 NUMBER OF ELECTRONS:      13+   12-    SPACE SYMMETRY=1    SPIN SYMMETRY: Doublet 
 CONVERGENCE THRESHOLDS:    1.00E-05 (Density)    1.00E-06 (Energy)
 MAX. NUMBER OF ITERATIONS:       60
 INTERPOLATION TYPE:            DIIS
 INTERPOLATION STEPS:              2 (START)      1 (STEP)
 LEVEL SHIFTS:                 -0.60 (CLOSED) -0.30 (OPEN) 



 Use fine grid record 1800.2 for energy threshold  1.0D-06
 Orbital guess generated from atomic densities. Full valence occupancy:   13

 Molecular orbital dump at record        2100.2

 Initial alpha occupancy:  13
 Initial beta  occupancy:  12
 Wave function symmetry:    1

 ITERATION    DDIFF          GRAD             ENERGY        2-EL.EN.            DIPOLE MOMENTS         DIIS   ORB.
    1      0.000D+00      0.000D+00      -116.98647360    232.899228    0.21562   -0.28782   -0.00000    0    start
    2      0.000D+00      0.213D-01      -117.07628279    228.656397    0.07593   -0.11125   -0.00000    1    diag,B
    3      0.323D-01      0.421D-02      -117.08233270    227.842798    0.03226   -0.06412   -0.00000    2    diag,B
    4      0.700D-02      0.130D-02      -117.08350423    227.805723    0.01686   -0.05227   -0.00000    3    diag,B
    5      0.323D-02      0.314D-03      -117.08359039    227.802401    0.01547   -0.05035   -0.00000    4    diag,B
    6      0.818D-03      0.102D-03      -117.08359893    227.802405    0.01609   -0.04992   -0.00000    5    diag,B
    7      0.280D-03      0.239D-04      -117.08359942    227.802147    0.01616   -0.04981   -0.00000    6    fixocc
    8      0.684D-04      0.993D-05      -117.08359952    227.802129    0.01613   -0.04974   -0.00000    7    diag,B
    9      0.381D-04      0.264D-05      -117.08359953    227.802113    0.01612   -0.04972   -0.00000    8    diag,B
   10      0.112D-04      0.648D-06      -117.08359953    227.802112    0.01612   -0.04971   -0.00000    9    orth
   11      0.289D-05      0.107D-06      -117.08359953    227.802113    0.01612   -0.04971   -0.00000    0    orth

 Final alpha occupancy:  13
 Final beta  occupancy:  12

 !RKS STATE 1.1 Energy               -117.083599529721
 Nuclear energy                        75.20704826
 One-electron energy                 -305.34904263
 Two-electron energy                  113.90105662
 Density functional                    -0.84266178     XC-M06-HF=-0.84266178
 Virial quotient                       -1.01501718
 !RKS STATE 1.1 Dipole moment           0.01611709    -0.04970964    -0.00000000
 Dipole moment /Debye                   0.04096288    -0.12634103    -0.00000000

 Orbital energies:

         1.1          2.1          3.1          4.1          5.1          6.1          7.1          8.1          9.1         10.1
    -10.791774   -10.791744   -10.752990    -0.931530    -0.840668    -0.695980    -0.568404    -0.532434    -0.516921    -0.495246

        11.1         12.1         13.1         14.1         15.1
     -0.445982    -0.445557    -0.272203     0.534810     0.554616

 HOMO     13.1    -0.272203 =      -7.4070eV
 LUMO     14.1     0.534810 =      14.5529eV
 LUMO-HOMO         0.807013 =      21.9599eV


 **********************************************************************************************************************************
 DATASETS  * FILE   NREC   LENGTH (MB)   RECORD NAMES
              1      20       31.31       500      610      700      900      950      970     1000      129      960     1100   
                                          VAR    BASINP    GEOM    SYMINP    ZMAT    AOBASIS   BASIS     P2S    ABASIS      S 
                                         1400     1410     1200     1210     1080     1600     1650     1300     1700     1800   
                                           T        V       H0       H01     AOSYM     SMH    MOLCAS    ERIS     OPER     GRID   

              2       5        2.92       700     1000      520     1800     2100   
                                         GEOM     BASIS   MCVARS    GRID      RKS  

 PROGRAMS   *        TOTAL        KS       INT
 CPU TIMES  *         5.80      5.43      0.23
 REAL TIME  *         6.30 SEC
 DISK USED  *        35.29 MB      
 **********************************************************************************************************************************


 PROGRAM * Intrinsic Basis Bonding Analysis (IBBA)          Author: G. Knizia

 Molecular orbitals read from record     2100.2  Type=RKS/CANONICAL (state 1.1)
 Fock matrix read from record            2100.2  Type=RKS/TOTAL (state 1.1)
 Orbital energies read from record       2100.2  Type=RKS/CANONICAL (state 1.1)
 Density matrix read from record         2100.2  Type=RKS/CHARGE (state 1.1)

 Number of core orbitals:           3 (   3 )
 Number of closed-shell orbitals:   9 (   9 )
 Number of active  orbitals:        1 (   1 )

 Basis set MINAO-AUTO-PP generated.      Number of basis functions:   22 

 Polarized AO type:                A = (O Ot + (1-O)(1-Ot)) P12
 Orthogonalization method:         Symmetric (Loewdin)
 Localization functional:          L = sum[A,i] <i|n_A|i>^4 -> max

 Localization group 1:  12 orbitals, occupancy  2.000
 Iterative localization: IB/PM,    7 iter; Final gradient 0.93E-09

 Bond order analysis:       [THRPRINT= 0.020]

   CEN ATOM   CEN ATOM     WIBERG.BO      RENORM.BO
     1   H  -   2   C       0.966197       0.977829

     2   C  -   4   C       1.057120       1.499001
     2   C  -   3   C       1.057120       1.499001
     2   C  -   1   H       0.966197       0.977829
     2   C  -  10   H       0.026264       0.315387
     2   C  -   9   H       0.026264       0.315387

     3   C  -   2   C       1.057120       1.499001
     3   C  -   5   H       0.962672       0.992261
     3   C  -   7   H       0.958596       0.992679
     3   C  -   9   H       0.941877       0.999013

     4   C  -   2   C       1.057120       1.499001
     4   C  -   6   H       0.962672       0.992261
     4   C  -   8   H       0.958596       0.992679
     4   C  -  10   H       0.941877       0.999013

     5   H  -   3   C       0.962672       0.992261

     6   H  -   4   C       0.962672       0.992261

     7   H  -   3   C       0.958596       0.992679

     8   H  -   4   C       0.958596       0.992679

     9   H  -   3   C       0.941877       0.999013
     9   H  -   2   C       0.026264       0.315387

    10   H  -   4   C       0.941877       0.999013
    10   H  -   2   C       0.026264       0.315387


 Valency analysis:

   CEN ATOM   TOT.VALENCE
     1   H       0.986930
     2   C       3.160582
     3   C       3.932453
     4   C       3.932453
     5   H       0.981993
     6   H       0.981993
     7   H       0.981700
     8   H       0.981700
     9   H       0.976996
    10   H       0.976996
 Localization group 2:   1 orbitals, occupancy  1.000
 Iterative localization: IB/PM,    1 iter; Final gradient 0.00E+00

 Bond order analysis:       [THRPRINT= 0.020]

   CEN ATOM   CEN ATOM     WIBERG.BO      RENORM.BO

     2   C  -  10   H       0.053492       0.500000
     2   C  -   9   H       0.053492       0.500000







     9   H  -   2   C       0.053492       0.500000

    10   H  -   2   C       0.053492       0.500000


 Valency analysis:

   CEN ATOM   TOT.VALENCE
     1   H       0.000566
     2   C       0.162596
     3   C       0.004541
     4   C       0.004541
     5   H       0.007072
     6   H       0.007072
     7   H       0.018427
     8   H       0.018427
     9   H       0.057010
    10   H       0.057010

 Total charge composition:

   CEN ATOM         s          p       ELECTRONS ->P.CHARGE
     1   H       0.88596                 0.88596    0.11404
     2   C       2.99377    3.10081      6.09458   -0.09458
     3   C       2.96781    3.42084      6.38865   -0.38865
     4   C       2.96781    3.42084      6.38865   -0.38865
     5   H       0.86936                 0.86936    0.13064
     6   H       0.86936                 0.86936    0.13064
     7   H       0.87402                 0.87402    0.12598
     8   H       0.87402                 0.87402    0.12598
     9   H       0.87770                 0.87770    0.12230
    10   H       0.87770                 0.87770    0.12230

 Total charge composition, AO contributions:

   CEN ATOM SHL      SPHERICAL COMPONENTS
     1   H  1s       0.88596

     2   C  1s       1.99240
     2   C  2s       1.00137
     2   C  2p       1.10111    0.99930    1.00040

     3   C  1s       1.99093
     3   C  2s       0.97688
     3   C  2p       1.15334    1.16196    1.10554

     4   C  1s       1.99093
     4   C  2s       0.97688
     4   C  2p       1.15334    1.16196    1.10554

     5   H  1s       0.86936

     6   H  1s       0.86936

     7   H  1s       0.87402

     8   H  1s       0.87402

     9   H  1s       0.87770

    10   H  1s       0.87770

 Active orbital charges:

   CEN ATOM         s          p       ELECTRONS ->SPIN.DEN
     1   H       0.00028                 0.00028    0.00028
     2   C       0.01088    0.89985      0.91073    0.91073
     3   C       0.00010    0.00218      0.00228    0.00228
     4   C       0.00010    0.00218      0.00228    0.00228
     5   H       0.00355                 0.00355    0.00355
     6   H       0.00355                 0.00355    0.00355
     7   H       0.00930                 0.00930    0.00930
     8   H       0.00930                 0.00930    0.00930
     9   H       0.02937                 0.02937    0.02937
    10   H       0.02937                 0.02937    0.02937

 Active orbital charges, AO contributions:

   CEN ATOM SHL      SPHERICAL COMPONENTS
     1   H  1s       0.00028

     2   C  1s       0.00001
     2   C  2s       0.01087
     2   C  2p       0.03680    0.86305    0.00000

     3   C  1s       0.00000
     3   C  2s       0.00010
     3   C  2p       0.00000    0.00203    0.00015

     4   C  1s       0.00000
     4   C  2s       0.00010
     4   C  2p       0.00000    0.00203    0.00015

     5   H  1s       0.00355

     6   H  1s       0.00355

     7   H  1s       0.00930

     8   H  1s       0.00930

     9   H  1s       0.02937

    10   H  1s       0.02937

 Summary of localized orbital composition:   [THRPRINT= 0.020]

   ORB  GRP  ORB.ENERGY      CENTERS/CHARGES
     1   1   -10.672507      C  3   2.000
     2   1   -10.672507      C  4   2.000
     3   1   -10.646796      C  2   2.000
     4   1    -0.711233      C  4   1.010   C  2   0.982
     5   1    -0.711233      C  3   1.010   C  2   0.982
     6   1    -0.646200      C  2   1.114   H  1   0.878
     7   1    -0.626362      C  4   1.128   H  6   0.860
     8   1    -0.626362      C  3   1.128   H  5   0.860
     9   1    -0.624167      C  4   1.120   H 10   0.845   C  2   0.033
    10   1    -0.624167      C  3   1.120   H  9   0.845   C  2   0.033
    11   1    -0.623848      C  4   1.124   H  8   0.860
    12   1    -0.623848      C  3   1.124   H  7   0.860
    13   2    -0.034111      C  2   0.911   H 10   0.029   H  9   0.029   (other: 0.031)

 Localized orbitals saved to record      2100.2  (orbital set 2)


 **********************************************************************************************************************************
 DATASETS  * FILE   NREC   LENGTH (MB)   RECORD NAMES
              1      20       31.31       500      610      700      900      950      970     1000      129      960     1100   
                                          VAR    BASINP    GEOM    SYMINP    ZMAT    AOBASIS   BASIS     P2S    ABASIS      S 
                                         1400     1410     1200     1210     1080     1600     1650     1300     1700     1800   
                                           T        V       H0       H01     AOSYM     SMH    MOLCAS    ERIS     OPER     GRID   

              2       5        2.92       700     1000      520     1800     2100   
                                         GEOM     BASIS   MCVARS    GRID      RKS  

 PROGRAMS   *        TOTAL      IBBA        KS       INT
 CPU TIMES  *         5.82      0.02      5.43      0.23
 REAL TIME  *         6.38 SEC
 DISK USED  *        35.29 MB      
 **********************************************************************************************************************************
 Molecular orbitals read from record     2100.2  Type=RKS/LOCAL(IBO)  
 Occupation numbers read from record     2100.2  Type=RKS/LOCAL(IBO)  
 Orbital energies read from record       2100.2  Type=RKS/LOCAL(IBO)  
 Redundancy group numbers read from rec  2100.2  Type=RKS/LOCAL(IBO)  

 IBBA/STO-3G energy=      0.000000000000

        KS-SCF  
   -117.08359953
 **********************************************************************************************************************************
 Molpro calculation terminated
