
 Primary working directories    : /tmp/sb13343
 Secondary working directories  : /tmp/sb13343
 Wavefunction directory         : /panfs/panasas01/chem/sb13343/wfu/
 Main file repository           : /tmp/sb13343/

 SHA1      : b4a5b34a9e711420743f49e6833241d17c61fb3c
 NAME      : 2099.9.b4a5b34
 ARCHNAME  : linux/x86_64_openmp
 FC        : /cm/shared/languages/GCC-6.1/bin/gfortran
 BLASLIB   : -lblas
 id        : simonbennie

 Nodes     nprocs
 node32-017    1

 Using customized tuning parameters: mindgm=1; mindgv=20; mindgc=4; mindgr=1; noblas=0; minvec=7
 default implementation of scratch files=df  

 memory,500,m
 geomtyp=xyz
 nosym
 noorient
 geometry={
 H         -1.57413        0.33845        0.00000
 C         -0.49500        0.20144        0.00000
 C          0.18857       -0.05954       -1.30114
 C          0.18857       -0.05954        1.30114
 H         -0.33790        0.40751       -2.14134
 H         -0.33790        0.40751        2.14134
 H          1.22176        0.31596       -1.29638
 H          1.22176        0.31596        1.29638
 H          0.25678       -1.13976       -1.52896
 H          0.25678       -1.13976        1.52896
 }
 basis={ default,svp }
 {uks,M06-L,direct;wf,25,1,1}
 {ibba,bonds=1}

 Variables initialized (895), CPU time= 0.00 sec
 Commands  initialized (725), CPU time= 0.02 sec, 591 directives.
 Default parameters read. Elapsed time= 0.08 sec

 Checking input...
 Passed
1


                                         ***  PROGRAM SYSTEM MOLPRO  ***
                                       Copyright, TTI GmbH Stuttgart, 2015
                                    Version 2099.9 linked May 26 2017 16:03:21


 **********************************************************************************************************************************
 LABEL *                                                                                 
  64 bit serial version                                                                  DATE: 08-Jun-17          TIME: 15:33:37  
 **********************************************************************************************************************************

 SHA1:             b4a5b34a9e711420743f49e6833241d17c61fb3c
 **********************************************************************************************************************************
 SETTING GEOMTYP        =    XYZ

 Variable memory set to  500000000 words,  buffer space 

 ZSYMEL=NOSYM

 SETTING BASIS          =    SVP


 Recomputing integrals since basis changed


 Using spherical harmonics

 Library entry H      S def2-SVP             selected for orbital group  1
 Library entry H      P def2-SVP             selected for orbital group  1
 Library entry C      S def2-SVP             selected for orbital group  2
 Library entry C      P def2-SVP             selected for orbital group  2
 Library entry C      D def2-SVP             selected for orbital group  2


 PROGRAM * SEWARD (Integral evaluation for generally contracted gaussian basis sets)     Author: Roland Lindh, 1990

 Geometry written to block  1 of record 700


 Point group  C1  



 ATOMIC COORDINATES

 NR  ATOM    CHARGE       X              Y              Z

   1  H       1.00   -2.974674584    0.639577807    0.000000000
   2  C       6.00   -0.935414432    0.380666431    0.000000000
   3  C       6.00    0.356345655   -0.112514293   -2.458798250
   4  C       6.00    0.356345655   -0.112514293    2.458798250
   5  H       1.00   -0.638538457    0.770082293   -4.046546140
   6  H       1.00   -0.638538457    0.770082293    4.046546140
   7  H       1.00    2.308791790    0.597077866   -2.449803153
   8  H       1.00    2.308791790    0.597077866    2.449803153
   9  H       1.00    0.485243874   -2.153834248   -2.889315655
  10  H       1.00    0.485243874   -2.153834248    2.889315655

 Bond lengths in Bohr (Angstrom)

 1-2  2.055630578  2-3  2.820914777  2-4  2.820914777  3-5  2.071162595  3-7  2.077413742
     ( 1.087792856)     ( 1.492763814)     ( 1.492763814)     ( 1.096012045)     ( 1.099320010)

  3- 9  2.090202656   4- 6  2.071162595   4- 8  2.077413742   4-10  2.090202656
       ( 1.106087612)       ( 1.096012045)       ( 1.099320010)       ( 1.106087612)

 Bond angles

  1-2-3  118.44375943   1-2-4  118.44375943   2-3-5  111.94558337   2-3-7  111.52358867

  2- 3- 9  112.24140213   2- 4- 6  111.94558337   2- 4- 8  111.52358867   2- 4-10  112.24140213

  3-2-4  121.29758064   5-3-7  108.01204745   5-3-9  106.73207413   6-4-8  108.01204745

  6- 4-10  106.73207413   7- 3- 9  106.05262855   8- 4-10  106.05262855

 NUCLEAR CHARGE:                   25
 NUMBER OF PRIMITIVE AOS:         124
 NUMBER OF SYMMETRY AOS:          121
 NUMBER OF CONTRACTIONS:           77   (  77A   )
 NUMBER OF CORE ORBITALS:           3   (   3A   )
 NUMBER OF VALENCE ORBITALS:       19   (  19A   )


 NUCLEAR REPULSION ENERGY   75.20704826


 Eigenvalues of metric

         1 0.402E-02 0.537E-02 0.229E-01 0.265E-01 0.266E-01 0.379E-01 0.436E-01 0.492E-01


 Contracted 2-electron integrals neglected if value below      1.0D-11
 AO integral compression algorithm  1   Integral accuracy      1.0D-11

     19.923 MB (compressed) written to integral file ( 49.4%)


 NUMBER OF SORTED TWO-ELECTRON INTEGRALS:    4510506.     BUFFER LENGTH:  32768
 NUMBER OF SEGMENTS:   1  SEGMENT LENGTH:    4510506      RECORD LENGTH: 524288

 Memory used in sort:       5.07 MW

 SORT1 READ     5074366. AND WROTE     4244391. INTEGRALS IN     13 RECORDS. CPU TIME:     0.05 SEC, REAL TIME:     0.12 SEC
 SORT2 READ     4244391. AND WROTE     4510506. INTEGRALS IN     76 RECORDS. CPU TIME:     0.16 SEC, REAL TIME:     0.18 SEC

 FILE SIZES:   FILE 1:    50.3 MBYTE,  FILE 4:    54.6 MBYTE,   TOTAL:    104.8 MBYTE

 OPERATOR DM      FOR CENTER  0  COORDINATES:    0.000000    0.000000    0.000000


 **********************************************************************************************************************************
 DATASETS  * FILE   NREC   LENGTH (MB)   RECORD NAMES
              1      19       47.44       500      610      700      900      950      970     1000      129      960     1100   
                                          VAR    BASINP    GEOM    SYMINP    ZMAT    AOBASIS   BASIS     P2S    ABASIS      S 
                                         1400     1410     1200     1210     1080     1600     1650     1300     1700   
                                           T        V       H0       H01     AOSYM     SMH    MOLCAS    ERIS     OPER   

 PROGRAMS   *        TOTAL       INT
 CPU TIMES  *         1.19      1.05
 REAL TIME  *         1.65 SEC
 DISK USED  *       105.25 MB      
 **********************************************************************************************************************************

 Density functional group M06-L=XC-M06-L
 Functional: XC-M06-L(via MFM 1.6)                                             Gradient terms: 1
 Use grid at  1800.2

 Functional: XC-M06-L                  Factor:  1.0000

 Generated new metagrid on record  1800.2 with target accuracy 1.0D-06 and 32470 points in CPU time    0.7
 Computed new grid on record 1800.1 in CPU time    0.8
   65184 words reserved for DFT integration

 PROGRAM * UKS-SCF (Unrestricted Kohn-Sham)     Authors: W. Meyer, H.-J. Werner, P.J. Knowles, 1993

 NUMBER OF ELECTRONS:      13+   12-    SPACE SYMMETRY=1    SPIN SYMMETRY: Doublet 
 CONVERGENCE THRESHOLDS:    1.00E-05 (Density)    1.00E-06 (Energy)
 MAX. NUMBER OF ITERATIONS:       60
 INTERPOLATION TYPE:            DIIS
 INTERPOLATION STEPS:              2 (START)      1 (STEP)
 LEVEL SHIFTS:                 -0.20 (ALPHA)  -0.20 (BETA) 



 Use fine grid record 1800.2 for energy threshold  1.0D-06
 Orbital guess generated from atomic densities. Full valence occupancy:   13

 Molecular orbital dump at record        2200.2

 Initial alpha occupation  13
 Initial beta  occupation  12

 ITERATION    DDIFF          GRAD             ENERGY        2-EL.EN.            DIPOLE MOMENTS         DIIS
    1      0.000D+00      0.000D+00      -118.22141106    271.862354    0.16933   -0.24116    0.00000    0
    2      0.137D-01      0.658D-02      -118.35037127    260.538134    0.06271   -0.11157   -0.00000    1
    3      0.393D-02      0.264D-02      -118.36957455    263.211208    0.05734   -0.12082   -0.00000    2
    4      0.917D-03      0.347D-03      -118.37029799    263.084898    0.05469   -0.11184   -0.00000    3
    5      0.437D-03      0.145D-03      -118.37047601    263.063177    0.04720   -0.10400   -0.00000    4
    6      0.184D-03      0.634D-04      -118.37051616    263.054966    0.04428   -0.09907   -0.00000    5
    7      0.496D-04      0.185D-04      -118.37051871    263.060086    0.04387   -0.09859   -0.00000    6
    8      0.194D-04      0.942D-05      -118.37051912    263.057845    0.04326   -0.09790   -0.00000    7
    9      0.657D-05      0.191D-05      -118.37051915    263.057818    0.04355   -0.09798   -0.00000    7
   10      0.238D-05      0.646D-06      -118.37051915    263.057894    0.04349   -0.09795   -0.00000    7

 Final alpha occupancy:  13
 Final beta  occupancy:  12

 !UKS STATE 1.1 Energy               -118.370519149544
 Nuclear energy                        75.20704826
 One-electron energy                 -306.26510539
 Two-electron energy                  131.52894723
 Density functional                   -18.84140925     XC-M06-L=-18.84140925
 Virial quotient                       -1.01218615
 !UKS STATE 1.1 Dipole moment           0.04349221    -0.09794747    -0.00000000
 Dipole moment /Debye                   0.11053893    -0.24894132    -0.00000000

 Orbital energies for positive spin:

         1.1          2.1          3.1          4.1          5.1          6.1          7.1          8.1          9.1         10.1
    -10.059519   -10.053881   -10.053878    -0.736058    -0.644006    -0.528070    -0.412993    -0.390360    -0.372717    -0.348655

        11.1         12.1         13.1         14.1         15.1
     -0.320241    -0.311955    -0.155917     0.085821     0.100143

 Orbital energies for negative spin:

         1.1          2.1          3.1          4.1          5.1          6.1          7.1          8.1          9.1         10.1
    -10.054719   -10.054717   -10.045656    -0.715200    -0.642672    -0.501233    -0.406063    -0.372564    -0.368003    -0.343594

        11.1         12.1         13.1         14.1         15.1
     -0.318136    -0.304927    -0.046647     0.082148     0.097332

 HOMO     13.1    -0.155917 =      -4.2427eV
 LUMO    -13.1    -0.046647 =      -1.2693eV
 LUMO-HOMO         0.109270 =       2.9734eV

 EXPECTATION VALUE OF S**2:             0.75632162

 Occupation number threshold for canonical orbitals:  1.999000 (occupied),  0.001000 (virtual)

 Number of pseudo-canonical orbitals per symmetry:   11
 Number of active natural orbitals per symmetry:      3

 Natural orbitals saved to record    2200.2 (Orbital set 3)

 Orbital spaces for UNO-CAS (Min. occupation: 0.020  Max. occupation: 1.980):

 Closed:       12
 Active:        1


 **********************************************************************************************************************************
 DATASETS  * FILE   NREC   LENGTH (MB)   RECORD NAMES
              1      20       48.47       500      610      700      900      950      970     1000      129      960     1100   
                                          VAR    BASINP    GEOM    SYMINP    ZMAT    AOBASIS   BASIS     P2S    ABASIS      S 
                                         1400     1410     1200     1210     1080     1600     1650     1300     1700     1800   
                                           T        V       H0       H01     AOSYM     SMH    MOLCAS    ERIS     OPER     GRID   

              2       5        3.16       700     1000      520     1800     2200   
                                         GEOM     BASIS   MCVARS    GRID      UKS  

 PROGRAMS   *        TOTAL       UKS       INT
 CPU TIMES  *        18.88     17.69      1.05
 REAL TIME  *        19.92 SEC
 DISK USED  *       105.25 MB      
 **********************************************************************************************************************************


 PROGRAM * Intrinsic Basis Bonding Analysis (IBBA)          Author: G. Knizia

 Molecular orbitals read from record     2200.2  Type=UKS/ALPHA (state 1.1)
 Fock matrix read from record            2200.2  Type=UKS/TOTAL (state 1.1)
 Orbital energies read from record       2200.2  Type=UKS/ALPHA (state 1.1)
 Density matrix read from record         2200.2  Type=UKS/CHARGE (state 1.1)

 Number of core orbitals:           3 (   3 )
 Number of closed-shell orbitals:   9 (   9 )
 Number of active  orbitals:        1 (   1 )

 Basis set MINAO-AUTO-PP generated.      Number of basis functions:   22 

 Polarized AO type:                A = (O Ot + (1-O)(1-Ot)) P12
 Orthogonalization method:         Symmetric (Loewdin)
 Localization functional:          L = sum[A,i] <i|n_A|i>^4 -> max

 Localization group 1:  12 orbitals, occupancy  2.000
 Iterative localization: IB/PM,    8 iter; Final gradient 0.33E-09

 Bond order analysis:       [THRPRINT= 0.020]

   CEN ATOM   CEN ATOM     WIBERG.BO      RENORM.BO
     1   H  -   2   C       0.942001       0.965727

     2   C  -   3   C       1.183876       1.485015
     2   C  -   4   C       1.183876       1.485015
     2   C  -   1   H       0.942001       0.965727
     2   C  -   9   H       0.068897       0.271010
     2   C  -  10   H       0.068897       0.271010
     2   C  -   7   H       0.022177       0.080128
     2   C  -   8   H       0.022177       0.080128

     3   C  -   2   C       1.183876       1.485015
     3   C  -   5   H       0.949523       0.987421
     3   C  -   7   H       0.931066       0.987110
     3   C  -   9   H       0.861642       0.996164

     4   C  -   2   C       1.183876       1.485015
     4   C  -   6   H       0.949523       0.987421
     4   C  -   8   H       0.931066       0.987110
     4   C  -  10   H       0.861642       0.996164

     5   H  -   3   C       0.949523       0.987421

     6   H  -   4   C       0.949523       0.987421

     7   H  -   3   C       0.931066       0.987110
     7   H  -   2   C       0.022177       0.080128

     8   H  -   4   C       0.931066       0.987110
     8   H  -   2   C       0.022177       0.080128

     9   H  -   3   C       0.861642       0.996164
     9   H  -   2   C       0.068897       0.271010

    10   H  -   4   C       0.861642       0.996164
    10   H  -   2   C       0.068897       0.271010


 Valency analysis:

   CEN ATOM   TOT.VALENCE
     1   H       0.972673
     2   C       3.510120
     3   C       3.952571
     4   C       3.952571
     5   H       0.978096
     6   H       0.978096
     7   H       0.975117
     8   H       0.975117
     9   H       0.955110
    10   H       0.955110
 Localization group 2:   1 orbitals, occupancy  1.000
 Iterative localization: IB/PM,    1 iter; Final gradient 0.00E+00

 Bond order analysis:       [THRPRINT= 0.020]

   CEN ATOM   CEN ATOM     WIBERG.BO      RENORM.BO

     2   C  -   9   H       0.106602       0.500000
     2   C  -  10   H       0.106602       0.500000
     2   C  -   7   H       0.033809       0.500000
     2   C  -   8   H       0.033809       0.500000





     7   H  -   2   C       0.033809       0.500000

     8   H  -   2   C       0.033809       0.500000

     9   H  -   2   C       0.106602       0.500000

    10   H  -   2   C       0.106602       0.500000


 Valency analysis:

   CEN ATOM   TOT.VALENCE
     1   H       0.001687
     2   C       0.341518
     3   C       0.022564
     4   C       0.022564
     5   H       0.015049
     6   H       0.015049
     7   H       0.042327
     8   H       0.042327
     9   H       0.127104
    10   H       0.127104

 Total charge composition:

   CEN ATOM         s          p       ELECTRONS ->P.CHARGE
     1   H       0.83553                 0.83553    0.16447
     2   C       3.06794    3.24486      6.31280   -0.31280
     3   C       3.01957    3.32646      6.34603   -0.34603
     4   C       3.01957    3.32646      6.34603   -0.34603
     5   H       0.85958                 0.85958    0.14042
     6   H       0.85958                 0.85958    0.14042
     7   H       0.86389                 0.86389    0.13611
     8   H       0.86389                 0.86389    0.13611
     9   H       0.85633                 0.85633    0.14367
    10   H       0.85633                 0.85633    0.14367

 Total charge composition, AO contributions:

   CEN ATOM SHL      SPHERICAL COMPONENTS
     1   H  1s       0.83553

     2   C  1s       1.99209
     2   C  2s       1.07585
     2   C  2p       1.12636    1.09817    1.02033

     3   C  1s       1.99059
     3   C  2s       1.02899
     3   C  2p       1.12940    1.12175    1.07531

     4   C  1s       1.99059
     4   C  2s       1.02899
     4   C  2p       1.12940    1.12175    1.07531

     5   H  1s       0.85958

     6   H  1s       0.85958

     7   H  1s       0.86389

     8   H  1s       0.86389

     9   H  1s       0.85633

    10   H  1s       0.85633

 Active orbital charges:

   CEN ATOM         s          p       ELECTRONS ->SPIN.DEN
     1   H       0.00084                 0.00084    0.00084
     2   C       0.00539    0.77611      0.78150    0.78150
     3   C       0.00012    0.01129      0.01141    0.01141
     4   C       0.00012    0.01129      0.01141    0.01141
     5   H       0.00758                 0.00758    0.00758
     6   H       0.00758                 0.00758    0.00758
     7   H       0.02163                 0.02163    0.02163
     8   H       0.02163                 0.02163    0.02163
     9   H       0.06820                 0.06820    0.06820
    10   H       0.06820                 0.06820    0.06820

 Active orbital charges, AO contributions:

   CEN ATOM SHL      SPHERICAL COMPONENTS
     1   H  1s       0.00084

     2   C  1s       0.00001
     2   C  2s       0.00538
     2   C  2p       0.03199    0.74411    0.00000

     3   C  1s       0.00000
     3   C  2s       0.00012
     3   C  2p       0.00007    0.01108    0.00014

     4   C  1s       0.00000
     4   C  2s       0.00012
     4   C  2p       0.00007    0.01108    0.00014

     5   H  1s       0.00758

     6   H  1s       0.00758

     7   H  1s       0.02163

     8   H  1s       0.02163

     9   H  1s       0.06820

    10   H  1s       0.06820

 Summary of localized orbital composition:   [THRPRINT= 0.020]

   ORB  GRP  ORB.ENERGY      CENTERS/CHARGES
     1   1    -9.948454      C  2   2.000
     2   1    -9.938697      C  4   2.000
     3   1    -9.938697      C  3   2.000
     4   1    -0.560618      C  2   1.016   C  4   0.978
     5   1    -0.560618      C  2   1.016   C  3   0.978
     6   1    -0.479101      C  2   1.163   H  1   0.824
     7   1    -0.461070      C  3   1.100   H  9   0.781   C  2   0.113
     8   1    -0.461070      C  4   1.100   H 10   0.781   C  2   0.113
     9   1    -0.456583      C  4   1.119   H  8   0.836   C  2   0.037
    10   1    -0.456583      C  3   1.119   H  7   0.836   C  2   0.037
    11   1    -0.455769      C  3   1.129   H  5   0.846   (other: 0.025)
    12   1    -0.455769      C  4   1.129   H  6   0.846   (other: 0.025)
    13   2    -0.099284      C  2   0.781   H  9   0.068   H 10   0.068   H  7   0.022   H  8   0.022   (other: 0.039)

 Localized orbitals saved to record      2200.2  (orbital set 4)


 **********************************************************************************************************************************
 DATASETS  * FILE   NREC   LENGTH (MB)   RECORD NAMES
              1      20       48.47       500      610      700      900      950      970     1000      129      960     1100   
                                          VAR    BASINP    GEOM    SYMINP    ZMAT    AOBASIS   BASIS     P2S    ABASIS      S 
                                         1400     1410     1200     1210     1080     1600     1650     1300     1700     1800   
                                           T        V       H0       H01     AOSYM     SMH    MOLCAS    ERIS     OPER     GRID   

              2       5        3.21       700     1000      520     1800     2200   
                                         GEOM     BASIS   MCVARS    GRID      UKS  

 PROGRAMS   *        TOTAL      IBBA       UKS       INT
 CPU TIMES  *        18.91      0.03     17.69      1.05
 REAL TIME  *        20.01 SEC
 DISK USED  *       105.25 MB      
 **********************************************************************************************************************************
 Molecular orbitals read from record     2200.2  Type=UKS/LOCAL(IBO)  
 Occupation numbers read from record     2200.2  Type=UKS/LOCAL(IBO)  
 Orbital energies read from record       2200.2  Type=UKS/LOCAL(IBO)  
 Redundancy group numbers read from rec  2200.2  Type=UKS/BETA (state 1.1)

 IBBA/SVP energy=      0.000000000000

        UKS-SCF 
   -118.37051915
 **********************************************************************************************************************************
 Molpro calculation terminated
