
 Primary working directories    : /tmp/sb13343
 Secondary working directories  : /tmp/sb13343
 Wavefunction directory         : /panfs/panasas01/chem/sb13343/wfu/
 Main file repository           : /tmp/sb13343/

 SHA1      : b4a5b34a9e711420743f49e6833241d17c61fb3c
 NAME      : 2099.9.b4a5b34
 ARCHNAME  : linux/x86_64_openmp
 FC        : /cm/shared/languages/GCC-6.1/bin/gfortran
 BLASLIB   : -lblas
 id        : simonbennie

 Nodes     nprocs
 node45-002    1

 Using customized tuning parameters: mindgm=1; mindgv=20; mindgc=4; mindgr=1; noblas=0; minvec=7
 default implementation of scratch files=df  

 memory,500,m
 geomtyp=xyz
 nosym
 noorient
 geometry={
 O         -0.07179        0.79048        0.00000
 C          0.07053       -0.57065        0.00000
 H         -0.96431       -0.97345        0.00000
 H          0.55775       -0.96326        0.90880
 H          0.55775       -0.96326       -0.90880
 }
 basis={ default,sto-3g }
 {ks,LDA,direct;wf,17,1,1}
 {ibba,bonds=1}

 Variables initialized (895), CPU time= 0.00 sec
 Commands  initialized (725), CPU time= 0.02 sec, 591 directives.
 Default parameters read. Elapsed time= 0.35 sec

 Checking input...
 Passed
1


                                         ***  PROGRAM SYSTEM MOLPRO  ***
                                       Copyright, TTI GmbH Stuttgart, 2015
                                    Version 2099.9 linked May 26 2017 16:03:21


 **********************************************************************************************************************************
 LABEL *                                                                                 
  64 bit serial version                                                                  DATE: 08-Jun-17          TIME: 16:51:30  
 **********************************************************************************************************************************

 SHA1:             b4a5b34a9e711420743f49e6833241d17c61fb3c
 **********************************************************************************************************************************
 SETTING GEOMTYP        =    XYZ

 Variable memory set to  500000000 words,  buffer space 

 ZSYMEL=NOSYM

 SETTING BASIS          =    STO-3G


 Recomputing integrals since basis changed


 Using spherical harmonics

 Library entry O      S STO-3G               selected for orbital group  1
 Library entry O      P STO-3G               selected for orbital group  1
 Library entry C      S STO-3G               selected for orbital group  2
 Library entry C      P STO-3G               selected for orbital group  2
 Library entry H      S STO-3G               selected for orbital group  3


 PROGRAM * SEWARD (Integral evaluation for generally contracted gaussian basis sets)     Author: Roland Lindh, 1990

 Geometry written to block  1 of record 700


 Point group  C1  



 ATOMIC COORDINATES

 NR  ATOM    CHARGE       X              Y              Z

   1  O       8.00   -0.135663438    1.493790707    0.000000000
   2  C       6.00    0.133282384   -1.078372213    0.000000000
   3  H       1.00   -1.822281799   -1.839553896    0.000000000
   4  H       1.00    1.053994746   -1.820297587    1.717383102
   5  H       1.00    1.053994746   -1.820297587   -1.717383102

 Bond lengths in Bohr (Angstrom)

 1-2  2.586185210  2-3  2.098482506  2-4  2.085082548  2-5  2.085082548
     ( 1.368550276)     ( 1.110469120)     ( 1.103378167)     ( 1.103378167)

 Bond angles

  1-2-3  105.29875708   1-2-4  113.56671130   1-2-5  113.56671130   3-2-4  106.40524792

  3-2-5  106.40524792   4-2-5  110.90419060

 NUCLEAR CHARGE:                   17
 NUMBER OF PRIMITIVE AOS:          39
 NUMBER OF SYMMETRY AOS:           39
 NUMBER OF CONTRACTIONS:           13   (  13A   )
 NUMBER OF CORE ORBITALS:           2   (   2A   )
 NUMBER OF VALENCE ORBITALS:       11   (  11A   )


 NUCLEAR REPULSION ENERGY   34.28824494


 Eigenvalues of metric

         1 0.234E+00 0.369E+00 0.377E+00 0.408E+00 0.839E+00 0.959E+00 0.965E+00 0.968E+00


 Contracted 2-electron integrals neglected if value below      1.0D-11
 AO integral compression algorithm  1   Integral accuracy      1.0D-11

     0.262 MB (compressed) written to integral file (100.0%)


 NUMBER OF SORTED TWO-ELECTRON INTEGRALS:       4186.     BUFFER LENGTH:  32768
 NUMBER OF SEGMENTS:   1  SEGMENT LENGTH:       4186      RECORD LENGTH: 524288

 Memory used in sort:       0.56 MW

 SORT1 READ        5522. AND WROTE        3217. INTEGRALS IN      1 RECORDS. CPU TIME:     0.00 SEC, REAL TIME:     0.00 SEC
 SORT2 READ        3217. AND WROTE        4186. INTEGRALS IN      1 RECORDS. CPU TIME:     0.00 SEC, REAL TIME:     0.01 SEC

 FILE SIZES:   FILE 1:    30.3 MBYTE,  FILE 4:     4.2 MBYTE,   TOTAL:     34.5 MBYTE

 OPERATOR DM      FOR CENTER  0  COORDINATES:    0.000000    0.000000    0.000000


 **********************************************************************************************************************************
 DATASETS  * FILE   NREC   LENGTH (MB)   RECORD NAMES
              1      19       30.03       500      610      700      900      950      970     1000      129      960     1100   
                                          VAR    BASINP    GEOM    SYMINP    ZMAT    AOBASIS   BASIS     P2S    ABASIS      S 
                                         1400     1410     1200     1210     1080     1600     1650     1300     1700   
                                           T        V       H0       H01     AOSYM     SMH    MOLCAS    ERIS     OPER   

 PROGRAMS   *        TOTAL       INT
 CPU TIMES  *         0.34      0.19
 REAL TIME  *         0.94 SEC
 DISK USED  *        34.83 MB      
 **********************************************************************************************************************************

 Density functional group LDA=DIRAC+VWN5
 Functional: DIRAC(Automatically generated (new) DIRAC)                        Gradient terms: 0
 Functional: VWN5(Automatically generated (new) VWN5)                          Gradient terms: 0
 Use grid at  1800.2

 Functional: DIRAC                     Factor:  1.0000
 Functional: VWN5                      Factor:  1.0000

 Generated new metagrid on record  1800.2 with target accuracy 1.0D-06 and 19990 points in CPU time    0.5
 Computed new grid on record 1800.1 in CPU time    0.5
    9378 words reserved for DFT integration

 PROGRAM * RKS-SCF (Restricted open shell Kohn-Sham)     Authors: W. Meyer, H.-J. Werner, P.J. Knowles, 1993

 NUMBER OF ELECTRONS:       9+    8-    SPACE SYMMETRY=1    SPIN SYMMETRY: Doublet 
 CONVERGENCE THRESHOLDS:    1.00E-05 (Density)    1.00E-06 (Energy)
 MAX. NUMBER OF ITERATIONS:       60
 INTERPOLATION TYPE:            DIIS
 INTERPOLATION STEPS:              2 (START)      1 (STEP)
 LEVEL SHIFTS:                 -0.60 (CLOSED) -0.30 (OPEN) 



 Use fine grid record 1800.2 for energy threshold  1.0D-06
 Orbital guess generated from atomic densities. Full valence occupancy:    9

 Molecular orbital dump at record        2100.2

 Initial alpha occupancy:   9
 Initial beta  occupancy:   8
 Wave function symmetry:    1

 ITERATION    DDIFF          GRAD             ENERGY        2-EL.EN.            DIPOLE MOMENTS         DIIS   ORB.
    1      0.000D+00      0.000D+00      -112.51487485    184.456770   -0.06187   -1.47080    0.00000    0    start
    2      0.000D+00      0.258D-01      -112.57547157    180.905651   -0.01854   -0.47421    0.00000    1    diag,B
    3      0.566D-01      0.385D-02      -112.57681083    181.072017   -0.03724   -0.54043    0.00000    2    diag,B
    4      0.654D-02      0.102D-02      -112.57703464    181.064476   -0.04204   -0.52005    0.00000    3    diag,B
    5      0.245D-02      0.480D-03      -112.57708155    181.054864   -0.04303   -0.51759    0.00000    4    diag,B
    6      0.137D-02      0.100D-03      -112.57708405    181.053306   -0.04264   -0.51706    0.00000    5    diag,B
    7      0.364D-03      0.181D-04      -112.57708411    181.053296   -0.04263   -0.51717    0.00000    6    fixocc
    8      0.638D-04      0.352D-05      -112.57708411    181.053306   -0.04267   -0.51719    0.00000    7    diag,B
    9      0.135D-04      0.717D-06      -112.57708411    181.053311   -0.04267   -0.51719    0.00000    8    diag,B
   10      0.345D-05      0.180D-06      -112.57708411    181.053309   -0.04267   -0.51719    0.00000    0    orth

 Final alpha occupancy:   9
 Final beta  occupancy:   8

 !RKS STATE 1.1 Energy               -112.577084112181
 Nuclear energy                        34.28824494
 One-electron energy                 -223.18581283
 Two-electron energy                   90.52665438
 Density functional                   -14.20617060     DIRAC=-13.09762412 VWN5= -1.10854648
 Virial quotient                       -1.00524998
 !RKS STATE 1.1 Dipole moment          -0.04267448    -0.51718755     0.00000000
 Dipole moment /Debye                  -0.10846060    -1.31447352     0.00000000

 Orbital energies:

         1.1          2.1          3.1          4.1          5.1          6.1          7.1          8.1          9.1         10.1
    -18.322887    -9.636868    -0.827656    -0.537029    -0.354118    -0.350129    -0.252629    -0.065124    -0.145372     0.329096

        11.1
      0.381229

 HOMO      9.1    -0.145372 =      -3.9558eV
 LUMO     10.1     0.329096 =       8.9552eV
 LUMO-HOMO         0.474468 =      12.9109eV


 **********************************************************************************************************************************
 DATASETS  * FILE   NREC   LENGTH (MB)   RECORD NAMES
              1      20       30.67       500      610      700      900      950      970     1000      129      960     1100   
                                          VAR    BASINP    GEOM    SYMINP    ZMAT    AOBASIS   BASIS     P2S    ABASIS      S 
                                         1400     1410     1200     1210     1080     1600     1650     1300     1700     1800   
                                           T        V       H0       H01     AOSYM     SMH    MOLCAS    ERIS     OPER     GRID   

              2       5        2.82       700     1000      520     1800     2100   
                                         GEOM     BASIS   MCVARS    GRID      RKS  

 PROGRAMS   *        TOTAL        KS       INT
 CPU TIMES  *         1.37      1.03      0.19
 REAL TIME  *         2.07 SEC
 DISK USED  *        34.83 MB      
 **********************************************************************************************************************************


 PROGRAM * Intrinsic Basis Bonding Analysis (IBBA)          Author: G. Knizia

 Molecular orbitals read from record     2100.2  Type=RKS/CANONICAL (state 1.1)
 Fock matrix read from record            2100.2  Type=RKS/TOTAL (state 1.1)
 Orbital energies read from record       2100.2  Type=RKS/CANONICAL (state 1.1)
 Density matrix read from record         2100.2  Type=RKS/CHARGE (state 1.1)

 Number of core orbitals:           2 (   2 )
 Number of closed-shell orbitals:   6 (   6 )
 Number of active  orbitals:        1 (   1 )

 Basis set MINAO-AUTO-PP generated.      Number of basis functions:   13 

 Polarized AO type:                A = (O Ot + (1-O)(1-Ot)) P12
 Orthogonalization method:         Symmetric (Loewdin)
 Localization functional:          L = sum[A,i] <i|n_A|i>^4 -> max

 Localization group 1:   8 orbitals, occupancy  2.000
 Iterative localization: IB/PM,    6 iter; Final gradient 0.18E-08

 Bond order analysis:       [THRPRINT= 0.020]

   CEN ATOM   CEN ATOM     WIBERG.BO      RENORM.BO
     1   O  -   2   C       1.216805       2.024537
     1   O  -   3   H       0.076621       0.643251
     1   O  -   4   H       0.054852       0.134984
     1   O  -   5   H       0.054852       0.134984

     2   C  -   1   O       1.216805       2.024537
     2   C  -   5   H       0.916368       0.930814
     2   C  -   4   H       0.916368       0.930814
     2   C  -   3   H       0.856638       0.999120

     3   H  -   2   C       0.856638       0.999120
     3   H  -   1   O       0.076621       0.643251

     4   H  -   2   C       0.916368       0.930814
     4   H  -   1   O       0.054852       0.134984

     5   H  -   2   C       0.916368       0.930814
     5   H  -   1   O       0.054852       0.134984


 Valency analysis:

   CEN ATOM   TOT.VALENCE
     1   O       1.403130
     2   C       3.906178
     3   H       0.947303
     4   H       0.978372
     5   H       0.978372
 Localization group 2:   1 orbitals, occupancy  1.000
 Iterative localization: IB/PM,    1 iter; Final gradient 0.00E+00

 Bond order analysis:       [THRPRINT= 0.020]

   CEN ATOM   CEN ATOM     WIBERG.BO      RENORM.BO
     1   O  -   3   H       0.110113       0.500000
     1   O  -   2   C       0.029090       0.500000
     1   O  -   4   H       0.022797       0.500000
     1   O  -   5   H       0.022797       0.500000

     2   C  -   1   O       0.029090       0.500000

     3   H  -   1   O       0.110113       0.500000

     4   H  -   1   O       0.022797       0.500000

     5   H  -   1   O       0.022797       0.500000


 Valency analysis:

   CEN ATOM   TOT.VALENCE
     1   O       0.184796
     2   C       0.031904
     3   H       0.115223
     4   H       0.025092
     5   H       0.025092

 Total charge composition:

   CEN ATOM         s          p       ELECTRONS ->P.CHARGE
     1   O       3.81299    4.30079      8.11378   -0.11378
     2   C       3.00442    3.31869      6.32311   -0.32311
     3   H       0.83182                 0.83182    0.16818
     4   H       0.86564                 0.86564    0.13436
     5   H       0.86564                 0.86564    0.13436

 Total charge composition, AO contributions:

   CEN ATOM SHL      SPHERICAL COMPONENTS
     1   O  1s       1.99832
     1   O  2s       1.81467
     1   O  2p       1.05555    1.31384    1.93139

     2   C  1s       1.99334
     2   C  2s       1.01108
     2   C  2p       1.17963    0.93485    1.20421

     3   H  1s       0.83182

     4   H  1s       0.86564

     5   H  1s       0.86564

 Active orbital charges:

   CEN ATOM         s          p       ELECTRONS ->SPIN.DEN
     1   O       0.00000    0.89699      0.89699    0.89699
     2   C       0.00000    0.01621      0.01622    0.01622
     3   H       0.06138                 0.06138    0.06138
     4   H       0.01271                 0.01271    0.01271
     5   H       0.01271                 0.01271    0.01271

 Active orbital charges, AO contributions:

   CEN ATOM SHL      SPHERICAL COMPONENTS
     1   O  1s       0.00000
     1   O  2s       0.00000
     1   O  2p       0.88138    0.01561    0.00000

     2   C  1s       0.00000
     2   C  2s       0.00000
     2   C  2p       0.01608    0.00013    0.00000

     3   H  1s       0.06138

     4   H  1s       0.01271

     5   H  1s       0.01271

 Summary of localized orbital composition:   [THRPRINT= 0.020]

   ORB  GRP  ORB.ENERGY      CENTERS/CHARGES
     1   1   -18.157809      O  1   2.000
     2   1    -9.533173      C  2   2.000
     3   1    -0.656731      O  1   1.134   C  2   0.865
     4   1    -0.593105      O  1   1.997
     5   1    -0.450954      C  2   1.121   H  3   0.765   O  1   0.110
     6   1    -0.434578      C  2   1.148   H  5   0.828   O  1   0.022
     7   1    -0.434578      C  2   1.148   H  4   0.828   O  1   0.022
     8   1    -0.085512      O  1   1.931   C  2   0.025   H  5   0.022   H  4   0.022
     9   2    -0.097619      O  1   0.897   H  3   0.061   (other: 0.042)

 Localized orbitals saved to record      2100.2  (orbital set 2)


 **********************************************************************************************************************************
 DATASETS  * FILE   NREC   LENGTH (MB)   RECORD NAMES
              1      20       30.67       500      610      700      900      950      970     1000      129      960     1100   
                                          VAR    BASINP    GEOM    SYMINP    ZMAT    AOBASIS   BASIS     P2S    ABASIS      S 
                                         1400     1410     1200     1210     1080     1600     1650     1300     1700     1800   
                                           T        V       H0       H01     AOSYM     SMH    MOLCAS    ERIS     OPER     GRID   

              2       5        2.82       700     1000      520     1800     2100   
                                         GEOM     BASIS   MCVARS    GRID      RKS  

 PROGRAMS   *        TOTAL      IBBA        KS       INT
 CPU TIMES  *         1.39      0.02      1.03      0.19
 REAL TIME  *         2.13 SEC
 DISK USED  *        34.83 MB      
 **********************************************************************************************************************************
 Molecular orbitals read from record     2100.2  Type=RKS/LOCAL(IBO)  
 Occupation numbers read from record     2100.2  Type=RKS/LOCAL(IBO)  
 Orbital energies read from record       2100.2  Type=RKS/LOCAL(IBO)  
 Redundancy group numbers read from rec  2100.2  Type=RKS/LOCAL(IBO)  

 IBBA/STO-3G energy=      0.000000000000

        KS-SCF  
   -112.57708411
 **********************************************************************************************************************************
 Molpro calculation terminated
