
 Primary working directories    : /tmp/sb13343
 Secondary working directories  : /tmp/sb13343
 Wavefunction directory         : /panfs/panasas01/chem/sb13343/wfu/
 Main file repository           : /tmp/sb13343/

 SHA1      : b4a5b34a9e711420743f49e6833241d17c61fb3c
 NAME      : 2099.9.b4a5b34
 ARCHNAME  : linux/x86_64_openmp
 FC        : /cm/shared/languages/GCC-6.1/bin/gfortran
 BLASLIB   : -lblas
 id        : simonbennie

 Nodes     nprocs
 node32-045    1

 Using customized tuning parameters: mindgm=1; mindgv=20; mindgc=4; mindgr=1; noblas=0; minvec=7
 default implementation of scratch files=df  

 memory,500,m
 geomtyp=xyz
 nosym
 noorient
 geometry={
 O         -0.07179        0.79048        0.00000
 C          0.07053       -0.57065        0.00000
 H         -0.96431       -0.97345        0.00000
 H          0.55775       -0.96326        0.90880
 H          0.55775       -0.96326       -0.90880
 }
 basis={ default,svp }
 {ks,SOGGA,direct;wf,17,1,1}
 {ibba,bonds=1}

 Variables initialized (895), CPU time= 0.00 sec
 Commands  initialized (725), CPU time= 0.01 sec, 591 directives.
 Default parameters read. Elapsed time= 0.08 sec

 Checking input...
 Passed
1


                                         ***  PROGRAM SYSTEM MOLPRO  ***
                                       Copyright, TTI GmbH Stuttgart, 2015
                                    Version 2099.9 linked May 26 2017 16:03:21


 **********************************************************************************************************************************
 LABEL *                                                                                 
  64 bit serial version                                                                  DATE: 08-Jun-17          TIME: 17:23:34  
 **********************************************************************************************************************************

 SHA1:             b4a5b34a9e711420743f49e6833241d17c61fb3c
 **********************************************************************************************************************************
 SETTING GEOMTYP        =    XYZ

 Variable memory set to  500000000 words,  buffer space 

 ZSYMEL=NOSYM

 SETTING BASIS          =    SVP


 Recomputing integrals since basis changed


 Using spherical harmonics

 Library entry O      S def2-SVP             selected for orbital group  1
 Library entry O      P def2-SVP             selected for orbital group  1
 Library entry O      D def2-SVP             selected for orbital group  1
 Library entry C      S def2-SVP             selected for orbital group  2
 Library entry C      P def2-SVP             selected for orbital group  2
 Library entry C      D def2-SVP             selected for orbital group  2
 Library entry H      S def2-SVP             selected for orbital group  3
 Library entry H      P def2-SVP             selected for orbital group  3


 PROGRAM * SEWARD (Integral evaluation for generally contracted gaussian basis sets)     Author: Roland Lindh, 1990

 Geometry written to block  1 of record 700


 Point group  C1  



 ATOMIC COORDINATES

 NR  ATOM    CHARGE       X              Y              Z

   1  O       8.00   -0.135663438    1.493790707    0.000000000
   2  C       6.00    0.133282384   -1.078372213    0.000000000
   3  H       1.00   -1.822281799   -1.839553896    0.000000000
   4  H       1.00    1.053994746   -1.820297587    1.717383102
   5  H       1.00    1.053994746   -1.820297587   -1.717383102

 Bond lengths in Bohr (Angstrom)

 1-2  2.586185210  2-3  2.098482506  2-4  2.085082548  2-5  2.085082548
     ( 1.368550276)     ( 1.110469120)     ( 1.103378167)     ( 1.103378167)

 Bond angles

  1-2-3  105.29875708   1-2-4  113.56671130   1-2-5  113.56671130   3-2-4  106.40524792

  3-2-5  106.40524792   4-2-5  110.90419060

 NUCLEAR CHARGE:                   17
 NUMBER OF PRIMITIVE AOS:          71
 NUMBER OF SYMMETRY AOS:           69
 NUMBER OF CONTRACTIONS:           43   (  43A   )
 NUMBER OF CORE ORBITALS:           2   (   2A   )
 NUMBER OF VALENCE ORBITALS:       11   (  11A   )


 NUCLEAR REPULSION ENERGY   34.28824494


 Eigenvalues of metric

         1 0.119E-01 0.382E-01 0.461E-01 0.536E-01 0.110E+00 0.137E+00 0.139E+00 0.243E+00


 Contracted 2-electron integrals neglected if value below      1.0D-11
 AO integral compression algorithm  1   Integral accuracy      1.0D-11

     2.359 MB (compressed) written to integral file ( 48.8%)


 NUMBER OF SORTED TWO-ELECTRON INTEGRALS:     447931.     BUFFER LENGTH:  32768
 NUMBER OF SEGMENTS:   1  SEGMENT LENGTH:     447931      RECORD LENGTH: 524288

 Memory used in sort:       1.00 MW

 SORT1 READ      553316. AND WROTE      366431. INTEGRALS IN      2 RECORDS. CPU TIME:     0.01 SEC, REAL TIME:     0.02 SEC
 SORT2 READ      366431. AND WROTE      447931. INTEGRALS IN      9 RECORDS. CPU TIME:     0.03 SEC, REAL TIME:     0.03 SEC

 FILE SIZES:   FILE 1:    32.4 MBYTE,  FILE 4:     8.4 MBYTE,   TOTAL:     40.9 MBYTE

 OPERATOR DM      FOR CENTER  0  COORDINATES:    0.000000    0.000000    0.000000


 **********************************************************************************************************************************
 DATASETS  * FILE   NREC   LENGTH (MB)   RECORD NAMES
              1      19       31.84       500      610      700      900      950      970     1000      129      960     1100   
                                          VAR    BASINP    GEOM    SYMINP    ZMAT    AOBASIS   BASIS     P2S    ABASIS      S 
                                         1400     1410     1200     1210     1080     1600     1650     1300     1700   
                                           T        V       H0       H01     AOSYM     SMH    MOLCAS    ERIS     OPER   

 PROGRAMS   *        TOTAL       INT
 CPU TIMES  *         0.40      0.27
 REAL TIME  *         0.77 SEC
 DISK USED  *        41.20 MB      
 **********************************************************************************************************************************

 Density functional group SOGGA=XC-SOGGA
 Functional: XC-SOGGA(via MFM 1.6)                                             Gradient terms: 1
 Use grid at  1800.2

 Functional: XC-SOGGA                  Factor:  1.0000

 Generated new metagrid on record  1800.2 with target accuracy 1.0D-06 and 19990 points in CPU time    0.4
 Computed new grid on record 1800.1 in CPU time    0.5
   38039 words reserved for DFT integration

 PROGRAM * RKS-SCF (Restricted open shell Kohn-Sham)     Authors: W. Meyer, H.-J. Werner, P.J. Knowles, 1993

 NUMBER OF ELECTRONS:       9+    8-    SPACE SYMMETRY=1    SPIN SYMMETRY: Doublet 
 CONVERGENCE THRESHOLDS:    1.00E-05 (Density)    1.00E-06 (Energy)
 MAX. NUMBER OF ITERATIONS:       60
 INTERPOLATION TYPE:            DIIS
 INTERPOLATION STEPS:              2 (START)      1 (STEP)
 LEVEL SHIFTS:                 -0.60 (CLOSED) -0.30 (OPEN) 



 Use fine grid record 1800.2 for energy threshold  1.0D-06
 Orbital guess generated from atomic densities. Full valence occupancy:    9

 Molecular orbital dump at record        2100.2

 Initial alpha occupancy:   9
 Initial beta  occupancy:   8
 Wave function symmetry:    1

 ITERATION    DDIFF          GRAD             ENERGY        2-EL.EN.            DIPOLE MOMENTS         DIIS   ORB.
    1      0.000D+00      0.000D+00      -114.24453651    183.776487   -0.06581   -1.23483    0.00000    0    start
    2      0.000D+00      0.115D-01      -114.28693739    178.500316   -0.00701   -0.86021    0.00000    1    diag,B
    3      0.134D-01      0.449D-02      -114.29240715    179.839030   -0.02444   -0.91515    0.00000    2    diag,B
    4      0.425D-02      0.879D-03      -114.29283983    179.614154   -0.02696   -0.84575    0.00000    3    diag,B
    5      0.155D-02      0.551D-03      -114.29300883    179.629345   -0.02970   -0.83622    0.00000    4    diag,B
    6      0.978D-03      0.167D-03      -114.29304747    179.608701   -0.03214   -0.82150    0.00000    5    diag,B
    7      0.713D-03      0.590D-04      -114.29305231    179.605073   -0.03318   -0.81880    0.00000    6    fixocc
    8      0.282D-03      0.173D-04      -114.29305276    179.604799   -0.03359   -0.81857    0.00000    7    diag,B
    9      0.938D-04      0.434D-05      -114.29305278    179.604649   -0.03370   -0.81860    0.00000    8    diag,B
   10      0.202D-04      0.133D-05      -114.29305279    179.604579   -0.03374   -0.81859    0.00000    9    orth
   11      0.690D-05      0.328D-06      -114.29305279    179.604571   -0.03374   -0.81860    0.00000    0    orth

 Final alpha occupancy:   9
 Final beta  occupancy:   8

 !RKS STATE 1.1 Energy               -114.293052787873
 Nuclear energy                        34.28824494
 One-electron energy                 -224.01944495
 Two-electron energy                   89.80228533
 Density functional                   -14.36413811     XC-SOGGA=-14.36413811
 Virial quotient                       -1.00481981
 !RKS STATE 1.1 Dipole moment          -0.03374136    -0.81859523     0.00000000
 Dipole moment /Debye                  -0.08575637    -2.08052526     0.00000000

 Orbital energies:

         1.1          2.1          3.1          4.1          5.1          6.1          7.1          8.1          9.1         10.1
    -18.694239    -9.883050    -0.887142    -0.584525    -0.405385    -0.399029    -0.359786    -0.205793    -0.267148     0.050267

        11.1
      0.096333

 HOMO      9.1    -0.267148 =      -7.2695eV
 LUMO     10.1     0.050267 =       1.3678eV
 LUMO-HOMO         0.317415 =       8.6373eV


 **********************************************************************************************************************************
 DATASETS  * FILE   NREC   LENGTH (MB)   RECORD NAMES
              1      20       32.48       500      610      700      900      950      970     1000      129      960     1100   
                                          VAR    BASINP    GEOM    SYMINP    ZMAT    AOBASIS   BASIS     P2S    ABASIS      S 
                                         1400     1410     1200     1210     1080     1600     1650     1300     1700     1800   
                                           T        V       H0       H01     AOSYM     SMH    MOLCAS    ERIS     OPER     GRID   

              2       5        2.87       700     1000      520     1800     2100   
                                         GEOM     BASIS   MCVARS    GRID      RKS  

 PROGRAMS   *        TOTAL        KS       INT
 CPU TIMES  *         2.86      2.46      0.27
 REAL TIME  *         3.30 SEC
 DISK USED  *        41.20 MB      
 **********************************************************************************************************************************


 PROGRAM * Intrinsic Basis Bonding Analysis (IBBA)          Author: G. Knizia

 Molecular orbitals read from record     2100.2  Type=RKS/CANONICAL (state 1.1)
 Fock matrix read from record            2100.2  Type=RKS/TOTAL (state 1.1)
 Orbital energies read from record       2100.2  Type=RKS/CANONICAL (state 1.1)
 Density matrix read from record         2100.2  Type=RKS/CHARGE (state 1.1)

 Number of core orbitals:           2 (   2 )
 Number of closed-shell orbitals:   6 (   6 )
 Number of active  orbitals:        1 (   1 )

 Basis set MINAO-AUTO-PP generated.      Number of basis functions:   13 

 Polarized AO type:                A = (O Ot + (1-O)(1-Ot)) P12
 Orthogonalization method:         Symmetric (Loewdin)
 Localization functional:          L = sum[A,i] <i|n_A|i>^4 -> max

 Localization group 1:   8 orbitals, occupancy  2.000
 Iterative localization: IB/PM,    7 iter; Final gradient 0.23E-09

 Bond order analysis:       [THRPRINT= 0.020]

   CEN ATOM   CEN ATOM     WIBERG.BO      RENORM.BO
     1   O  -   2   C       1.301144       2.026075
     1   O  -   3   H       0.119757       0.620532
     1   O  -   4   H       0.063780       0.130171
     1   O  -   5   H       0.063780       0.130171

     2   C  -   1   O       1.301144       2.026075
     2   C  -   5   H       0.901692       0.928101
     2   C  -   4   H       0.901692       0.928101
     2   C  -   3   H       0.786799       0.997096

     3   H  -   2   C       0.786799       0.997096
     3   H  -   1   O       0.119757       0.620532

     4   H  -   2   C       0.901692       0.928101
     4   H  -   1   O       0.063780       0.130171

     5   H  -   2   C       0.901692       0.928101
     5   H  -   1   O       0.063780       0.130171


 Valency analysis:

   CEN ATOM   TOT.VALENCE
     1   O       1.548462
     2   C       3.891327
     3   H       0.924506
     4   H       0.975716
     5   H       0.975716
 Localization group 2:   1 orbitals, occupancy  1.000
 Iterative localization: IB/PM,    1 iter; Final gradient 0.00E+00

 Bond order analysis:       [THRPRINT= 0.020]

   CEN ATOM   CEN ATOM     WIBERG.BO      RENORM.BO
     1   O  -   3   H       0.138588       0.500000
     1   O  -   2   C       0.059204       0.500000
     1   O  -   4   H       0.029423       0.500000
     1   O  -   5   H       0.029423       0.500000

     2   C  -   1   O       0.059204       0.500000

     3   H  -   1   O       0.138588       0.500000

     4   H  -   1   O       0.029423       0.500000

     5   H  -   1   O       0.029423       0.500000


 Valency analysis:

   CEN ATOM   TOT.VALENCE
     1   O       0.256637
     2   C       0.067315
     3   H       0.149941
     4   H       0.034062
     5   H       0.034062

 Total charge composition:

   CEN ATOM         s          p       ELECTRONS ->P.CHARGE
     1   O       3.77092    4.49460      8.26552   -0.26552
     2   C       3.01545    3.18916      6.20461   -0.20461
     3   H       0.80687                 0.80687    0.19313
     4   H       0.86150                 0.86150    0.13850
     5   H       0.86150                 0.86150    0.13850

 Total charge composition, AO contributions:

   CEN ATOM SHL      SPHERICAL COMPONENTS
     1   O  1s       1.99822
     1   O  2s       1.77270
     1   O  2p       1.11941    1.44318    1.93202

     2   C  1s       1.99221
     2   C  2s       1.02324
     2   C  2p       1.14379    0.85718    1.18819

     3   H  1s       0.80687

     4   H  1s       0.86150

     5   H  1s       0.86150

 Active orbital charges:

   CEN ATOM         s          p       ELECTRONS ->SPIN.DEN
     1   O       0.00000    0.84882      0.84883    0.84883
     2   C       0.00001    0.03487      0.03487    0.03487
     3   H       0.08163                 0.08163    0.08163
     4   H       0.01733                 0.01733    0.01733
     5   H       0.01733                 0.01733    0.01733

 Active orbital charges, AO contributions:

   CEN ATOM SHL      SPHERICAL COMPONENTS
     1   O  1s       0.00000
     1   O  2s       0.00000
     1   O  2p       0.83402    0.01481    0.00000

     2   C  1s       0.00000
     2   C  2s       0.00001
     2   C  2p       0.03462    0.00025    0.00000

     3   H  1s       0.08163

     4   H  1s       0.01733

     5   H  1s       0.01733

 Summary of localized orbital composition:   [THRPRINT= 0.020]

   ORB  GRP  ORB.ENERGY      CENTERS/CHARGES
     1   1   -18.426557      O  1   2.000
     2   1    -9.777128      C  2   2.000
     3   1    -0.762912      O  1   1.995
     4   1    -0.761661      O  1   1.226   C  2   0.774
     5   1    -0.497362      C  2   1.090   H  3   0.716   O  1   0.190
     6   1    -0.480327      C  2   1.139   H  4   0.819   O  1   0.037
     7   1    -0.480327      C  2   1.139   H  5   0.819   O  1   0.037
     8   1    -0.232678      O  1   1.932   C  2   0.025   H  5   0.022   H  4   0.022
     9   2    -0.222620      O  1   0.849   H  3   0.082   C  2   0.035   (other: 0.035)

 Localized orbitals saved to record      2100.2  (orbital set 2)


 **********************************************************************************************************************************
 DATASETS  * FILE   NREC   LENGTH (MB)   RECORD NAMES
              1      20       32.48       500      610      700      900      950      970     1000      129      960     1100   
                                          VAR    BASINP    GEOM    SYMINP    ZMAT    AOBASIS   BASIS     P2S    ABASIS      S 
                                         1400     1410     1200     1210     1080     1600     1650     1300     1700     1800   
                                           T        V       H0       H01     AOSYM     SMH    MOLCAS    ERIS     OPER     GRID   

              2       5        2.89       700     1000      520     1800     2100   
                                         GEOM     BASIS   MCVARS    GRID      RKS  

 PROGRAMS   *        TOTAL      IBBA        KS       INT
 CPU TIMES  *         2.88      0.02      2.46      0.27
 REAL TIME  *         3.37 SEC
 DISK USED  *        41.20 MB      
 **********************************************************************************************************************************
 Molecular orbitals read from record     2100.2  Type=RKS/LOCAL(IBO)  
 Occupation numbers read from record     2100.2  Type=RKS/LOCAL(IBO)  
 Orbital energies read from record       2100.2  Type=RKS/LOCAL(IBO)  
 Redundancy group numbers read from rec  2100.2  Type=RKS/LOCAL(IBO)  

 IBBA/SVP energy=      0.000000000000

        KS-SCF  
   -114.29305279
 **********************************************************************************************************************************
 Molpro calculation terminated
