
 Primary working directories    : /tmp/sb13343
 Secondary working directories  : /tmp/sb13343
 Wavefunction directory         : /panfs/panasas01/chem/sb13343/wfu/
 Main file repository           : /tmp/sb13343/

 SHA1      : b4a5b34a9e711420743f49e6833241d17c61fb3c
 NAME      : 2099.9.b4a5b34
 ARCHNAME  : linux/x86_64_openmp
 FC        : /cm/shared/languages/GCC-6.1/bin/gfortran
 BLASLIB   : -lblas
 id        : simonbennie

 Nodes     nprocs
 node33-003    1

 Using customized tuning parameters: mindgm=1; mindgv=20; mindgc=4; mindgr=1; noblas=0; minvec=7
 default implementation of scratch files=df  

 memory,500,m
 geomtyp=xyz
 nosym
 noorient
 geometry={
 O         -0.07179        0.79048        0.00000
 C          0.07053       -0.57065        0.00000
 H         -0.96431       -0.97345        0.00000
 H          0.55775       -0.96326        0.90880
 H          0.55775       -0.96326       -0.90880
 }
 basis={ default,svp }
 {ks,SOGGA11-X,direct;wf,17,1,1}
 {ibba,bonds=1}

 Variables initialized (895), CPU time= 0.00 sec
 Commands  initialized (725), CPU time= 0.01 sec, 591 directives.
 Default parameters read. Elapsed time= 0.08 sec

 Checking input...
 Passed
1


                                         ***  PROGRAM SYSTEM MOLPRO  ***
                                       Copyright, TTI GmbH Stuttgart, 2015
                                    Version 2099.9 linked May 26 2017 16:03:21


 **********************************************************************************************************************************
 LABEL *                                                                                 
  64 bit serial version                                                                  DATE: 08-Jun-17          TIME: 17:24:06  
 **********************************************************************************************************************************

 SHA1:             b4a5b34a9e711420743f49e6833241d17c61fb3c
 **********************************************************************************************************************************
 SETTING GEOMTYP        =    XYZ

 Variable memory set to  500000000 words,  buffer space 

 ZSYMEL=NOSYM

 SETTING BASIS          =    SVP


 Recomputing integrals since basis changed


 Using spherical harmonics

 Library entry O      S def2-SVP             selected for orbital group  1
 Library entry O      P def2-SVP             selected for orbital group  1
 Library entry O      D def2-SVP             selected for orbital group  1
 Library entry C      S def2-SVP             selected for orbital group  2
 Library entry C      P def2-SVP             selected for orbital group  2
 Library entry C      D def2-SVP             selected for orbital group  2
 Library entry H      S def2-SVP             selected for orbital group  3
 Library entry H      P def2-SVP             selected for orbital group  3


 PROGRAM * SEWARD (Integral evaluation for generally contracted gaussian basis sets)     Author: Roland Lindh, 1990

 Geometry written to block  1 of record 700


 Point group  C1  



 ATOMIC COORDINATES

 NR  ATOM    CHARGE       X              Y              Z

   1  O       8.00   -0.135663438    1.493790707    0.000000000
   2  C       6.00    0.133282384   -1.078372213    0.000000000
   3  H       1.00   -1.822281799   -1.839553896    0.000000000
   4  H       1.00    1.053994746   -1.820297587    1.717383102
   5  H       1.00    1.053994746   -1.820297587   -1.717383102

 Bond lengths in Bohr (Angstrom)

 1-2  2.586185210  2-3  2.098482506  2-4  2.085082548  2-5  2.085082548
     ( 1.368550276)     ( 1.110469120)     ( 1.103378167)     ( 1.103378167)

 Bond angles

  1-2-3  105.29875708   1-2-4  113.56671130   1-2-5  113.56671130   3-2-4  106.40524792

  3-2-5  106.40524792   4-2-5  110.90419060

 NUCLEAR CHARGE:                   17
 NUMBER OF PRIMITIVE AOS:          71
 NUMBER OF SYMMETRY AOS:           69
 NUMBER OF CONTRACTIONS:           43   (  43A   )
 NUMBER OF CORE ORBITALS:           2   (   2A   )
 NUMBER OF VALENCE ORBITALS:       11   (  11A   )


 NUCLEAR REPULSION ENERGY   34.28824494


 Eigenvalues of metric

         1 0.119E-01 0.382E-01 0.461E-01 0.536E-01 0.110E+00 0.137E+00 0.139E+00 0.243E+00


 Contracted 2-electron integrals neglected if value below      1.0D-11
 AO integral compression algorithm  1   Integral accuracy      1.0D-11

     2.359 MB (compressed) written to integral file ( 48.8%)


 NUMBER OF SORTED TWO-ELECTRON INTEGRALS:     447931.     BUFFER LENGTH:  32768
 NUMBER OF SEGMENTS:   1  SEGMENT LENGTH:     447931      RECORD LENGTH: 524288

 Memory used in sort:       1.00 MW

 SORT1 READ      553316. AND WROTE      366431. INTEGRALS IN      2 RECORDS. CPU TIME:     0.01 SEC, REAL TIME:     0.02 SEC
 SORT2 READ      366431. AND WROTE      447931. INTEGRALS IN      9 RECORDS. CPU TIME:     0.03 SEC, REAL TIME:     0.04 SEC

 FILE SIZES:   FILE 1:    32.4 MBYTE,  FILE 4:     8.4 MBYTE,   TOTAL:     40.9 MBYTE

 OPERATOR DM      FOR CENTER  0  COORDINATES:    0.000000    0.000000    0.000000


 **********************************************************************************************************************************
 DATASETS  * FILE   NREC   LENGTH (MB)   RECORD NAMES
              1      19       31.84       500      610      700      900      950      970     1000      129      960     1100   
                                          VAR    BASINP    GEOM    SYMINP    ZMAT    AOBASIS   BASIS     P2S    ABASIS      S 
                                         1400     1410     1200     1210     1080     1600     1650     1300     1700   
                                           T        V       H0       H01     AOSYM     SMH    MOLCAS    ERIS     OPER   

 PROGRAMS   *        TOTAL       INT
 CPU TIMES  *         0.42      0.28
 REAL TIME  *         0.75 SEC
 DISK USED  *        41.20 MB      
 **********************************************************************************************************************************

 Density functional group SOGGA11-X=XC-SOGGA11-X
 Functional: XC-SOGGA11-X(via MFM 1.6)                                         Gradient terms: 1
 Use grid at  1800.2


 Exact exchange will be calculated, factor:  0.4015

 Functional: XC-SOGGA11-X              Factor:  1.0000

 Generated new metagrid on record  1800.2 with target accuracy 1.0D-06 and 19990 points in CPU time    0.5
 Computed new grid on record 1800.1 in CPU time    0.5
   38039 words reserved for DFT integration

 PROGRAM * RKS-SCF (Restricted open shell Kohn-Sham)     Authors: W. Meyer, H.-J. Werner, P.J. Knowles, 1993

 NUMBER OF ELECTRONS:       9+    8-    SPACE SYMMETRY=1    SPIN SYMMETRY: Doublet 
 CONVERGENCE THRESHOLDS:    1.00E-05 (Density)    1.00E-06 (Energy)
 MAX. NUMBER OF ITERATIONS:       60
 INTERPOLATION TYPE:            DIIS
 INTERPOLATION STEPS:              2 (START)      1 (STEP)
 LEVEL SHIFTS:                 -0.60 (CLOSED) -0.30 (OPEN) 



 Use fine grid record 1800.2 for energy threshold  1.0D-06
 Orbital guess generated from atomic densities. Full valence occupancy:    9

 Molecular orbital dump at record        2100.2

 Initial alpha occupancy:   9
 Initial beta  occupancy:   8
 Wave function symmetry:    1

 ITERATION    DDIFF          GRAD             ENERGY        2-EL.EN.            DIPOLE MOMENTS         DIIS   ORB.
    1      0.000D+00      0.000D+00      -114.88888195    170.104937   -0.07463   -1.45918    0.00000    0    start
    2      0.000D+00      0.717D-02      -114.91199245    167.331381   -0.01439   -0.90814    0.00000    1    diag,B
    3      0.736D-02      0.378D-02      -114.91687667    167.910491   -0.01473   -0.93333    0.00000    2    diag,B
    4      0.259D-02      0.101D-02      -114.91889237    167.839357   -0.01063   -0.85409    0.00000    3    diag,B
    5      0.129D-02      0.615D-03      -114.91972178    167.817375   -0.00629   -0.81346    0.00000    4    diag,B
    6      0.114D-02      0.194D-03      -114.91981676    167.811584   -0.00392   -0.80298    0.00000    5    diag,B
    7      0.457D-03      0.574D-04      -114.91982163    167.811015   -0.00301   -0.80315    0.00000    6    fixocc
    8      0.124D-03      0.165D-04      -114.91982200    167.812881   -0.00280   -0.80380    0.00000    7    diag,B
    9      0.484D-04      0.479D-05      -114.91982205    167.812985   -0.00280   -0.80397    0.00000    8    diag,B
   10      0.169D-04      0.182D-05      -114.91982206    167.813088   -0.00282   -0.80399    0.00000    9    orth
   11      0.531D-05      0.870D-06      -114.91982206    167.813074   -0.00283   -0.80399    0.00000    0    orth

 Final alpha occupancy:   9
 Final beta  occupancy:   8

 !RKS STATE 1.1 Energy               -114.919822060067
 Nuclear energy                        34.28824494
 One-electron energy                 -223.88886867
 Two-electron energy                   83.90653715
 Density functional                    -9.22573548     XC-SOGGA11-X=-9.22573548
 Virial quotient                       -1.00859312
 !RKS STATE 1.1 Dipole moment          -0.00282922    -0.80398768     0.00000000
 Dipole moment /Debye                  -0.00719070    -2.04339901     0.00000000

 Orbital energies:

         1.1          2.1          3.1          4.1          5.1          6.1          7.1          8.1          9.1         10.1
    -19.539441   -10.511970    -1.090774    -0.732601    -0.514419    -0.501995    -0.480787    -0.330233    -0.406153     0.096234

        11.1
      0.148739

 HOMO      9.1    -0.406153 =     -11.0520eV
 LUMO     10.1     0.096234 =       2.6187eV
 LUMO-HOMO         0.502388 =      13.6707eV


 **********************************************************************************************************************************
 DATASETS  * FILE   NREC   LENGTH (MB)   RECORD NAMES
              1      20       32.48       500      610      700      900      950      970     1000      129      960     1100   
                                          VAR    BASINP    GEOM    SYMINP    ZMAT    AOBASIS   BASIS     P2S    ABASIS      S 
                                         1400     1410     1200     1210     1080     1600     1650     1300     1700     1800   
                                           T        V       H0       H01     AOSYM     SMH    MOLCAS    ERIS     OPER     GRID   

              2       5        2.87       700     1000      520     1800     2100   
                                         GEOM     BASIS   MCVARS    GRID      RKS  

 PROGRAMS   *        TOTAL        KS       INT
 CPU TIMES  *         3.32      2.90      0.28
 REAL TIME  *         3.77 SEC
 DISK USED  *        41.20 MB      
 **********************************************************************************************************************************


 PROGRAM * Intrinsic Basis Bonding Analysis (IBBA)          Author: G. Knizia

 Molecular orbitals read from record     2100.2  Type=RKS/CANONICAL (state 1.1)
 Fock matrix read from record            2100.2  Type=RKS/TOTAL (state 1.1)
 Orbital energies read from record       2100.2  Type=RKS/CANONICAL (state 1.1)
 Density matrix read from record         2100.2  Type=RKS/CHARGE (state 1.1)

 Number of core orbitals:           2 (   2 )
 Number of closed-shell orbitals:   6 (   6 )
 Number of active  orbitals:        1 (   1 )

 Basis set MINAO-AUTO-PP generated.      Number of basis functions:   13 

 Polarized AO type:                A = (O Ot + (1-O)(1-Ot)) P12
 Orthogonalization method:         Symmetric (Loewdin)
 Localization functional:          L = sum[A,i] <i|n_A|i>^4 -> max

 Localization group 1:   8 orbitals, occupancy  2.000
 Iterative localization: IB/PM,    6 iter; Final gradient 0.47E-08

 Bond order analysis:       [THRPRINT= 0.020]

   CEN ATOM   CEN ATOM     WIBERG.BO      RENORM.BO
     1   O  -   2   C       1.171073       2.021324
     1   O  -   3   H       0.086035       0.664617
     1   O  -   4   H       0.046840       0.127832
     1   O  -   5   H       0.046840       0.127832

     2   C  -   1   O       1.171073       2.021324
     2   C  -   5   H       0.928761       0.943828
     2   C  -   4   H       0.928761       0.943828
     2   C  -   3   H       0.853829       0.997319

     3   H  -   2   C       0.853829       0.997319
     3   H  -   1   O       0.086035       0.664617

     4   H  -   2   C       0.928761       0.943828
     4   H  -   1   O       0.046840       0.127832

     5   H  -   2   C       0.928761       0.943828
     5   H  -   1   O       0.046840       0.127832


 Valency analysis:

   CEN ATOM   TOT.VALENCE
     1   O       1.350788
     2   C       3.882423
     3   H       0.949903
     4   H       0.981203
     5   H       0.981203
 Localization group 2:   1 orbitals, occupancy  1.000
 Iterative localization: IB/PM,    1 iter; Final gradient 0.00E+00

 Bond order analysis:       [THRPRINT= 0.020]

   CEN ATOM   CEN ATOM     WIBERG.BO      RENORM.BO
     1   O  -   3   H       0.102309       0.500000
     1   O  -   2   C       0.032669       0.500000
     1   O  -   4   H       0.020831       0.500000
     1   O  -   5   H       0.020831       0.500000

     2   C  -   1   O       0.032669       0.500000

     3   H  -   1   O       0.102309       0.500000

     4   H  -   1   O       0.020831       0.500000

     5   H  -   1   O       0.020831       0.500000


 Valency analysis:

   CEN ATOM   TOT.VALENCE
     1   O       0.176641
     2   C       0.035559
     3   H       0.106982
     4   H       0.022826
     5   H       0.022826

 Total charge composition:

   CEN ATOM         s          p       ELECTRONS ->P.CHARGE
     1   O       3.77206    4.48946      8.26153   -0.26153
     2   C       3.01416    3.14254      6.15670   -0.15670
     3   H       0.83288                 0.83288    0.16712
     4   H       0.87445                 0.87445    0.12555
     5   H       0.87445                 0.87445    0.12555

 Total charge composition, AO contributions:

   CEN ATOM SHL      SPHERICAL COMPONENTS
     1   O  1s       1.99801
     1   O  2s       1.77405
     1   O  2p       1.07527    1.46670    1.94749

     2   C  1s       1.99116
     2   C  2s       1.02300
     2   C  2p       1.15036    0.82672    1.16546

     3   H  1s       0.83288

     4   H  1s       0.87445

     5   H  1s       0.87445

 Active orbital charges:

   CEN ATOM         s          p       ELECTRONS ->SPIN.DEN
     1   O       0.00000    0.90209      0.90209    0.90209
     2   C       0.00000    0.01810      0.01811    0.01811
     3   H       0.05671                 0.05671    0.05671
     4   H       0.01155                 0.01155    0.01155
     5   H       0.01155                 0.01155    0.01155

 Active orbital charges, AO contributions:

   CEN ATOM SHL      SPHERICAL COMPONENTS
     1   O  1s       0.00000
     1   O  2s       0.00000
     1   O  2p       0.88584    0.01625    0.00000

     2   C  1s       0.00000
     2   C  2s       0.00000
     2   C  2p       0.01786    0.00024    0.00000

     3   H  1s       0.05671

     4   H  1s       0.01155

     5   H  1s       0.01155

 Summary of localized orbital composition:   [THRPRINT= 0.020]

   ORB  GRP  ORB.ENERGY      CENTERS/CHARGES
     1   1   -19.243052      O  1   2.000
     2   1   -10.398641      C  2   2.000
     3   1    -0.962389      O  1   1.995
     4   1    -0.924471      O  1   1.252   C  2   0.748
     5   1    -0.610333      C  2   1.106   H  3   0.772   O  1   0.120
     6   1    -0.596969      C  2   1.131   H  5   0.844   O  1   0.022
     7   1    -0.596969      C  2   1.131   H  4   0.844   O  1   0.022
     8   1    -0.369400      O  1   1.947   (other: 0.053)
     9   2    -0.245433      O  1   0.902   H  3   0.057   (other: 0.041)

 Localized orbitals saved to record      2100.2  (orbital set 2)


 **********************************************************************************************************************************
 DATASETS  * FILE   NREC   LENGTH (MB)   RECORD NAMES
              1      20       32.48       500      610      700      900      950      970     1000      129      960     1100   
                                          VAR    BASINP    GEOM    SYMINP    ZMAT    AOBASIS   BASIS     P2S    ABASIS      S 
                                         1400     1410     1200     1210     1080     1600     1650     1300     1700     1800   
                                           T        V       H0       H01     AOSYM     SMH    MOLCAS    ERIS     OPER     GRID   

              2       5        2.89       700     1000      520     1800     2100   
                                         GEOM     BASIS   MCVARS    GRID      RKS  

 PROGRAMS   *        TOTAL      IBBA        KS       INT
 CPU TIMES  *         3.34      0.02      2.90      0.28
 REAL TIME  *         3.83 SEC
 DISK USED  *        41.20 MB      
 **********************************************************************************************************************************
 Molecular orbitals read from record     2100.2  Type=RKS/LOCAL(IBO)  
 Occupation numbers read from record     2100.2  Type=RKS/LOCAL(IBO)  
 Orbital energies read from record       2100.2  Type=RKS/LOCAL(IBO)  
 Redundancy group numbers read from rec  2100.2  Type=RKS/LOCAL(IBO)  

 IBBA/SVP energy=      0.000000000000

        KS-SCF  
   -114.91982206
 **********************************************************************************************************************************
 Molpro calculation terminated
