
 Primary working directories    : /tmp/sb13343
 Secondary working directories  : /tmp/sb13343
 Wavefunction directory         : /panfs/panasas01/chem/sb13343/wfu/
 Main file repository           : /tmp/sb13343/

 SHA1      : b4a5b34a9e711420743f49e6833241d17c61fb3c
 NAME      : 2099.9.b4a5b34
 ARCHNAME  : linux/x86_64_openmp
 FC        : /cm/shared/languages/GCC-6.1/bin/gfortran
 BLASLIB   : -lblas
 id        : simonbennie

 Nodes     nprocs
 node47-008    1

 Using customized tuning parameters: mindgm=1; mindgv=20; mindgc=4; mindgr=1; noblas=0; minvec=7
 default implementation of scratch files=df  

 memory,500,m
 geomtyp=xyz
 nosym
 noorient
 geometry={
 O         -0.07179        0.79048        0.00000
 C          0.07053       -0.57065        0.00000
 H         -0.96431       -0.97345        0.00000
 H          0.55775       -0.96326        0.90880
 H          0.55775       -0.96326       -0.90880
 }
 basis={ default,sto-3g }
 {ks,M08-SO,direct;wf,17,1,1}
 {ibba,bonds=1}

 Variables initialized (895), CPU time= 0.01 sec
 Commands  initialized (725), CPU time= 0.01 sec, 591 directives.
 Default parameters read. Elapsed time= 0.09 sec

 Checking input...
 Passed
1


                                         ***  PROGRAM SYSTEM MOLPRO  ***
                                       Copyright, TTI GmbH Stuttgart, 2015
                                    Version 2099.9 linked May 26 2017 16:03:21


 **********************************************************************************************************************************
 LABEL *                                                                                 
  64 bit serial version                                                                  DATE: 08-Jun-17          TIME: 16:57:55  
 **********************************************************************************************************************************

 SHA1:             b4a5b34a9e711420743f49e6833241d17c61fb3c
 **********************************************************************************************************************************
 SETTING GEOMTYP        =    XYZ

 Variable memory set to  500000000 words,  buffer space 

 ZSYMEL=NOSYM

 SETTING BASIS          =    STO-3G


 Recomputing integrals since basis changed


 Using spherical harmonics

 Library entry O      S STO-3G               selected for orbital group  1
 Library entry O      P STO-3G               selected for orbital group  1
 Library entry C      S STO-3G               selected for orbital group  2
 Library entry C      P STO-3G               selected for orbital group  2
 Library entry H      S STO-3G               selected for orbital group  3


 PROGRAM * SEWARD (Integral evaluation for generally contracted gaussian basis sets)     Author: Roland Lindh, 1990

 Geometry written to block  1 of record 700


 Point group  C1  



 ATOMIC COORDINATES

 NR  ATOM    CHARGE       X              Y              Z

   1  O       8.00   -0.135663438    1.493790707    0.000000000
   2  C       6.00    0.133282384   -1.078372213    0.000000000
   3  H       1.00   -1.822281799   -1.839553896    0.000000000
   4  H       1.00    1.053994746   -1.820297587    1.717383102
   5  H       1.00    1.053994746   -1.820297587   -1.717383102

 Bond lengths in Bohr (Angstrom)

 1-2  2.586185210  2-3  2.098482506  2-4  2.085082548  2-5  2.085082548
     ( 1.368550276)     ( 1.110469120)     ( 1.103378167)     ( 1.103378167)

 Bond angles

  1-2-3  105.29875708   1-2-4  113.56671130   1-2-5  113.56671130   3-2-4  106.40524792

  3-2-5  106.40524792   4-2-5  110.90419060

 NUCLEAR CHARGE:                   17
 NUMBER OF PRIMITIVE AOS:          39
 NUMBER OF SYMMETRY AOS:           39
 NUMBER OF CONTRACTIONS:           13   (  13A   )
 NUMBER OF CORE ORBITALS:           2   (   2A   )
 NUMBER OF VALENCE ORBITALS:       11   (  11A   )


 NUCLEAR REPULSION ENERGY   34.28824494


 Eigenvalues of metric

         1 0.234E+00 0.369E+00 0.377E+00 0.408E+00 0.839E+00 0.959E+00 0.965E+00 0.968E+00


 Contracted 2-electron integrals neglected if value below      1.0D-11
 AO integral compression algorithm  1   Integral accuracy      1.0D-11

     0.262 MB (compressed) written to integral file (100.0%)


 NUMBER OF SORTED TWO-ELECTRON INTEGRALS:       4186.     BUFFER LENGTH:  32768
 NUMBER OF SEGMENTS:   1  SEGMENT LENGTH:       4186      RECORD LENGTH: 524288

 Memory used in sort:       0.56 MW

 SORT1 READ        5522. AND WROTE        3217. INTEGRALS IN      1 RECORDS. CPU TIME:     0.00 SEC, REAL TIME:     0.00 SEC
 SORT2 READ        3217. AND WROTE        4186. INTEGRALS IN      1 RECORDS. CPU TIME:     0.01 SEC, REAL TIME:     0.01 SEC

 FILE SIZES:   FILE 1:    30.3 MBYTE,  FILE 4:     4.2 MBYTE,   TOTAL:     34.5 MBYTE

 OPERATOR DM      FOR CENTER  0  COORDINATES:    0.000000    0.000000    0.000000


 **********************************************************************************************************************************
 DATASETS  * FILE   NREC   LENGTH (MB)   RECORD NAMES
              1      19       30.03       500      610      700      900      950      970     1000      129      960     1100   
                                          VAR    BASINP    GEOM    SYMINP    ZMAT    AOBASIS   BASIS     P2S    ABASIS      S 
                                         1400     1410     1200     1210     1080     1600     1650     1300     1700   
                                           T        V       H0       H01     AOSYM     SMH    MOLCAS    ERIS     OPER   

 PROGRAMS   *        TOTAL       INT
 CPU TIMES  *         0.32      0.19
 REAL TIME  *         0.67 SEC
 DISK USED  *        34.83 MB      
 **********************************************************************************************************************************

 Density functional group M08-SO=XC-M08-SO
 Functional: XC-M08-SO(via MFM 1.6)                                            Gradient terms: 1
 Use grid at  1800.2


 Exact exchange will be calculated, factor:  0.5679

 Functional: XC-M08-SO                 Factor:  1.0000

 Generated new metagrid on record  1800.2 with target accuracy 1.0D-06 and 19990 points in CPU time    0.4
 Computed new grid on record 1800.1 in CPU time    0.5
   14331 words reserved for DFT integration

 PROGRAM * RKS-SCF (Restricted open shell Kohn-Sham)     Authors: W. Meyer, H.-J. Werner, P.J. Knowles, 1993

 NUMBER OF ELECTRONS:       9+    8-    SPACE SYMMETRY=1    SPIN SYMMETRY: Doublet 
 CONVERGENCE THRESHOLDS:    1.00E-05 (Density)    1.00E-06 (Energy)
 MAX. NUMBER OF ITERATIONS:       60
 INTERPOLATION TYPE:            DIIS
 INTERPOLATION STEPS:              2 (START)      1 (STEP)
 LEVEL SHIFTS:                 -0.60 (CLOSED) -0.30 (OPEN) 



 Use fine grid record 1800.2 for energy threshold  1.0D-06
 Orbital guess generated from atomic densities. Full valence occupancy:    9

 Molecular orbital dump at record        2100.2

 Initial alpha occupancy:   9
 Initial beta  occupancy:   8
 Wave function symmetry:    1

 ITERATION    DDIFF          GRAD             ENERGY        2-EL.EN.            DIPOLE MOMENTS         DIIS   ORB.
    1      0.000D+00      0.000D+00      -113.32318323    167.543123   -0.06683   -1.68934    0.00000    0    start
    2      0.000D+00      0.268D-01      -113.40421001    164.749524   -0.03193   -0.63132    0.00000    1    diag,B
    3      0.473D-01      0.659D-02      -113.41022805    164.350306   -0.02524   -0.53879    0.00000    2    diag,B
    4      0.994D-02      0.258D-02      -113.41210512    164.277940   -0.02422   -0.50036    0.00000    3    diag,B
    5      0.492D-02      0.114D-02      -113.41257076    164.263355   -0.02202   -0.48904    0.00000    4    diag,B
    6      0.350D-02      0.220D-03      -113.41258229    164.260605   -0.02047   -0.48921    0.00000    5    diag,B
    7      0.619D-03      0.497D-04      -113.41258297    164.260803   -0.02028   -0.48952    0.00000    6    fixocc
    8      0.174D-03      0.149D-04      -113.41258308    164.260885   -0.02047   -0.48957    0.00000    7    diag,B
    9      0.599D-04      0.617D-05      -113.41258311    164.260884   -0.02050   -0.48956    0.00000    8    diag,B
   10      0.330D-04      0.277D-05      -113.41258311    164.260872   -0.02053   -0.48957    0.00000    9    orth
   11      0.128D-04      0.225D-06      -113.41258311    164.260878   -0.02053   -0.48957    0.00000    9    diag,B
   12      0.668D-06      0.520D-07      -113.41258311    164.260877   -0.02053   -0.48957    0.00000    0    orth

 Final alpha occupancy:   9
 Final beta  occupancy:   8

 !RKS STATE 1.1 Energy               -113.412583109156
 Nuclear energy                        34.28824494
 One-electron energy                 -223.06599689
 Two-electron energy                   82.13043843
 Density functional                    -6.76526959     XC-M08-SO=-6.76526959
 Virial quotient                       -1.01223777
 !RKS STATE 1.1 Dipole moment          -0.02053130    -0.48956754     0.00000000
 Dipole moment /Debye                  -0.05218195    -1.24427507     0.00000000

 Orbital energies:

         1.1          2.1          3.1          4.1          5.1          6.1          7.1          8.1          9.1         10.1
    -19.304020   -10.366829    -1.036693    -0.699569    -0.483062    -0.472559    -0.388809    -0.227948    -0.307834     0.454250

        11.1
      0.498693

 HOMO      9.1    -0.307834 =      -8.3766eV
 LUMO     10.1     0.454250 =      12.3608eV
 LUMO-HOMO         0.762084 =      20.7374eV


 **********************************************************************************************************************************
 DATASETS  * FILE   NREC   LENGTH (MB)   RECORD NAMES
              1      20       30.67       500      610      700      900      950      970     1000      129      960     1100   
                                          VAR    BASINP    GEOM    SYMINP    ZMAT    AOBASIS   BASIS     P2S    ABASIS      S 
                                         1400     1410     1200     1210     1080     1600     1650     1300     1700     1800   
                                           T        V       H0       H01     AOSYM     SMH    MOLCAS    ERIS     OPER     GRID   

              2       5        2.82       700     1000      520     1800     2100   
                                         GEOM     BASIS   MCVARS    GRID      RKS  

 PROGRAMS   *        TOTAL        KS       INT
 CPU TIMES  *         2.53      2.21      0.19
 REAL TIME  *         2.98 SEC
 DISK USED  *        34.83 MB      
 **********************************************************************************************************************************


 PROGRAM * Intrinsic Basis Bonding Analysis (IBBA)          Author: G. Knizia

 Molecular orbitals read from record     2100.2  Type=RKS/CANONICAL (state 1.1)
 Fock matrix read from record            2100.2  Type=RKS/TOTAL (state 1.1)
 Orbital energies read from record       2100.2  Type=RKS/CANONICAL (state 1.1)
 Density matrix read from record         2100.2  Type=RKS/CHARGE (state 1.1)

 Number of core orbitals:           2 (   2 )
 Number of closed-shell orbitals:   6 (   6 )
 Number of active  orbitals:        1 (   1 )

 Basis set MINAO-AUTO-PP generated.      Number of basis functions:   13 

 Polarized AO type:                A = (O Ot + (1-O)(1-Ot)) P12
 Orthogonalization method:         Symmetric (Loewdin)
 Localization functional:          L = sum[A,i] <i|n_A|i>^4 -> max

 Localization group 1:   8 orbitals, occupancy  2.000
 Iterative localization: IB/PM,    6 iter; Final gradient 0.54E-09

 Bond order analysis:       [THRPRINT= 0.020]

   CEN ATOM   CEN ATOM     WIBERG.BO      RENORM.BO
     1   O  -   2   C       1.131957       2.018662
     1   O  -   3   H       0.051565       0.672124
     1   O  -   4   H       0.038383       0.129459
     1   O  -   5   H       0.038383       0.129459

     2   C  -   1   O       1.131957       2.018662
     2   C  -   5   H       0.939656       0.949587
     2   C  -   4   H       0.939656       0.949587
     2   C  -   3   H       0.902981       0.998980

     3   H  -   2   C       0.902981       0.998980
     3   H  -   1   O       0.051565       0.672124

     4   H  -   2   C       0.939656       0.949587
     4   H  -   1   O       0.038383       0.129459

     5   H  -   2   C       0.939656       0.949587
     5   H  -   1   O       0.038383       0.129459


 Valency analysis:

   CEN ATOM   TOT.VALENCE
     1   O       1.260287
     2   C       3.914250
     3   H       0.964158
     4   H       0.982846
     5   H       0.982846
 Localization group 2:   1 orbitals, occupancy  1.000
 Iterative localization: IB/PM,    1 iter; Final gradient 0.00E+00

 Bond order analysis:       [THRPRINT= 0.020]

   CEN ATOM   CEN ATOM     WIBERG.BO      RENORM.BO
     1   O  -   3   H       0.079709       0.500000


     3   H  -   1   O       0.079709       0.500000




 Valency analysis:

   CEN ATOM   TOT.VALENCE
     1   O       0.126746
     2   C       0.015732
     3   H       0.081867
     4   H       0.017156
     5   H       0.017156

 Total charge composition:

   CEN ATOM         s          p       ELECTRONS ->P.CHARGE
     1   O       3.80828    4.30539      8.11367   -0.11367
     2   C       2.99554    3.28199      6.27753   -0.27753
     3   H       0.85344                 0.85344    0.14656
     4   H       0.87768                 0.87768    0.12232
     5   H       0.87768                 0.87768    0.12232

 Total charge composition, AO contributions:

   CEN ATOM SHL      SPHERICAL COMPONENTS
     1   O  1s       1.99819
     1   O  2s       1.81009
     1   O  2p       1.03105    1.32369    1.95065

     2   C  1s       1.99235
     2   C  2s       1.00319
     2   C  2p       1.17570    0.92502    1.18127

     3   H  1s       0.85344

     4   H  1s       0.87768

     5   H  1s       0.87768

 Active orbital charges:

   CEN ATOM         s          p       ELECTRONS ->SPIN.DEN
     1   O       0.00001    0.93200      0.93200    0.93200
     2   C       0.00000    0.00793      0.00793    0.00793
     3   H       0.04276                 0.04276    0.04276
     4   H       0.00865                 0.00865    0.00865
     5   H       0.00865                 0.00865    0.00865

 Active orbital charges, AO contributions:

   CEN ATOM SHL      SPHERICAL COMPONENTS
     1   O  1s       0.00000
     1   O  2s       0.00001
     1   O  2p       0.91620    0.01580    0.00000

     2   C  1s       0.00000
     2   C  2s       0.00000
     2   C  2p       0.00781    0.00012    0.00000

     3   H  1s       0.04276

     4   H  1s       0.00865

     5   H  1s       0.00865

 Summary of localized orbital composition:   [THRPRINT= 0.020]

   ORB  GRP  ORB.ENERGY      CENTERS/CHARGES
     1   1   -19.123246      O  1   2.000
     2   1   -10.256679      C  2   2.000
     3   1    -0.816887      O  1   1.140   C  2   0.859
     4   1    -0.802969      O  1   1.997
     5   1    -0.580671      C  2   1.122   H  3   0.807   O  1   0.068
     6   1    -0.570451      C  2   1.134   H  4   0.851
     7   1    -0.570451      C  2   1.134   H  5   0.851
     8   1    -0.258135      O  1   1.951   (other: 0.049)
     9   2    -0.105732      O  1   0.932   H  3   0.043   (other: 0.025)

 Localized orbitals saved to record      2100.2  (orbital set 2)


 **********************************************************************************************************************************
 DATASETS  * FILE   NREC   LENGTH (MB)   RECORD NAMES
              1      20       30.67       500      610      700      900      950      970     1000      129      960     1100   
                                          VAR    BASINP    GEOM    SYMINP    ZMAT    AOBASIS   BASIS     P2S    ABASIS      S 
                                         1400     1410     1200     1210     1080     1600     1650     1300     1700     1800   
                                           T        V       H0       H01     AOSYM     SMH    MOLCAS    ERIS     OPER     GRID   

              2       5        2.82       700     1000      520     1800     2100   
                                         GEOM     BASIS   MCVARS    GRID      RKS  

 PROGRAMS   *        TOTAL      IBBA        KS       INT
 CPU TIMES  *         2.56      0.03      2.21      0.19
 REAL TIME  *         3.05 SEC
 DISK USED  *        34.83 MB      
 **********************************************************************************************************************************
 Molecular orbitals read from record     2100.2  Type=RKS/LOCAL(IBO)  
 Occupation numbers read from record     2100.2  Type=RKS/LOCAL(IBO)  
 Orbital energies read from record       2100.2  Type=RKS/LOCAL(IBO)  
 Redundancy group numbers read from rec  2100.2  Type=RKS/LOCAL(IBO)  

 IBBA/STO-3G energy=      0.000000000000

        KS-SCF  
   -113.41258311
 **********************************************************************************************************************************
 Molpro calculation terminated
