
 Primary working directories    : /tmp/sb13343
 Secondary working directories  : /tmp/sb13343
 Wavefunction directory         : /panfs/panasas01/chem/sb13343/wfu/
 Main file repository           : /tmp/sb13343/

 SHA1      : b4a5b34a9e711420743f49e6833241d17c61fb3c
 NAME      : 2099.9.b4a5b34
 ARCHNAME  : linux/x86_64_openmp
 FC        : /cm/shared/languages/GCC-6.1/bin/gfortran
 BLASLIB   : -lblas
 id        : simonbennie

 Nodes     nprocs
 node33-003    1

 Using customized tuning parameters: mindgm=1; mindgv=20; mindgc=4; mindgr=1; noblas=0; minvec=7
 default implementation of scratch files=df  

 memory,500,m
 geomtyp=xyz
 nosym
 noorient
 geometry={
 O         -0.07179        0.79048        0.00000
 C          0.07053       -0.57065        0.00000
 H         -0.96431       -0.97345        0.00000
 H          0.55775       -0.96326        0.90880
 H          0.55775       -0.96326       -0.90880
 }
 basis={ default,svp }
 {ks,M08-HX,direct;wf,17,1,1}
 {ibba,bonds=1}

 Variables initialized (895), CPU time= 0.00 sec
 Commands  initialized (725), CPU time= 0.02 sec, 591 directives.
 Default parameters read. Elapsed time= 0.08 sec

 Checking input...
 Passed
1


                                         ***  PROGRAM SYSTEM MOLPRO  ***
                                       Copyright, TTI GmbH Stuttgart, 2015
                                    Version 2099.9 linked May 26 2017 16:03:21


 **********************************************************************************************************************************
 LABEL *                                                                                 
  64 bit serial version                                                                  DATE: 08-Jun-17          TIME: 17:22:30  
 **********************************************************************************************************************************

 SHA1:             b4a5b34a9e711420743f49e6833241d17c61fb3c
 **********************************************************************************************************************************
 SETTING GEOMTYP        =    XYZ

 Variable memory set to  500000000 words,  buffer space 

 ZSYMEL=NOSYM

 SETTING BASIS          =    SVP


 Recomputing integrals since basis changed


 Using spherical harmonics

 Library entry O      S def2-SVP             selected for orbital group  1
 Library entry O      P def2-SVP             selected for orbital group  1
 Library entry O      D def2-SVP             selected for orbital group  1
 Library entry C      S def2-SVP             selected for orbital group  2
 Library entry C      P def2-SVP             selected for orbital group  2
 Library entry C      D def2-SVP             selected for orbital group  2
 Library entry H      S def2-SVP             selected for orbital group  3
 Library entry H      P def2-SVP             selected for orbital group  3


 PROGRAM * SEWARD (Integral evaluation for generally contracted gaussian basis sets)     Author: Roland Lindh, 1990

 Geometry written to block  1 of record 700


 Point group  C1  



 ATOMIC COORDINATES

 NR  ATOM    CHARGE       X              Y              Z

   1  O       8.00   -0.135663438    1.493790707    0.000000000
   2  C       6.00    0.133282384   -1.078372213    0.000000000
   3  H       1.00   -1.822281799   -1.839553896    0.000000000
   4  H       1.00    1.053994746   -1.820297587    1.717383102
   5  H       1.00    1.053994746   -1.820297587   -1.717383102

 Bond lengths in Bohr (Angstrom)

 1-2  2.586185210  2-3  2.098482506  2-4  2.085082548  2-5  2.085082548
     ( 1.368550276)     ( 1.110469120)     ( 1.103378167)     ( 1.103378167)

 Bond angles

  1-2-3  105.29875708   1-2-4  113.56671130   1-2-5  113.56671130   3-2-4  106.40524792

  3-2-5  106.40524792   4-2-5  110.90419060

 NUCLEAR CHARGE:                   17
 NUMBER OF PRIMITIVE AOS:          71
 NUMBER OF SYMMETRY AOS:           69
 NUMBER OF CONTRACTIONS:           43   (  43A   )
 NUMBER OF CORE ORBITALS:           2   (   2A   )
 NUMBER OF VALENCE ORBITALS:       11   (  11A   )


 NUCLEAR REPULSION ENERGY   34.28824494


 Eigenvalues of metric

         1 0.119E-01 0.382E-01 0.461E-01 0.536E-01 0.110E+00 0.137E+00 0.139E+00 0.243E+00


 Contracted 2-electron integrals neglected if value below      1.0D-11
 AO integral compression algorithm  1   Integral accuracy      1.0D-11

     2.359 MB (compressed) written to integral file ( 48.8%)


 NUMBER OF SORTED TWO-ELECTRON INTEGRALS:     447931.     BUFFER LENGTH:  32768
 NUMBER OF SEGMENTS:   1  SEGMENT LENGTH:     447931      RECORD LENGTH: 524288

 Memory used in sort:       1.00 MW

 SORT1 READ      553316. AND WROTE      366431. INTEGRALS IN      2 RECORDS. CPU TIME:     0.00 SEC, REAL TIME:     0.01 SEC
 SORT2 READ      366431. AND WROTE      447931. INTEGRALS IN      9 RECORDS. CPU TIME:     0.03 SEC, REAL TIME:     0.04 SEC

 FILE SIZES:   FILE 1:    32.4 MBYTE,  FILE 4:     8.4 MBYTE,   TOTAL:     40.9 MBYTE

 OPERATOR DM      FOR CENTER  0  COORDINATES:    0.000000    0.000000    0.000000


 **********************************************************************************************************************************
 DATASETS  * FILE   NREC   LENGTH (MB)   RECORD NAMES
              1      19       31.84       500      610      700      900      950      970     1000      129      960     1100   
                                          VAR    BASINP    GEOM    SYMINP    ZMAT    AOBASIS   BASIS     P2S    ABASIS      S 
                                         1400     1410     1200     1210     1080     1600     1650     1300     1700   
                                           T        V       H0       H01     AOSYM     SMH    MOLCAS    ERIS     OPER   

 PROGRAMS   *        TOTAL       INT
 CPU TIMES  *         0.43      0.29
 REAL TIME  *         0.77 SEC
 DISK USED  *        41.20 MB      
 **********************************************************************************************************************************

 Density functional group M08-HX=XC-M08-HX
 Functional: XC-M08-HX(via MFM 1.6)                                            Gradient terms: 1
 Use grid at  1800.2


 Exact exchange will be calculated, factor:  0.5223

 Functional: XC-M08-HX                 Factor:  1.0000

 Generated new metagrid on record  1800.2 with target accuracy 1.0D-06 and 19990 points in CPU time    0.5
 Computed new grid on record 1800.1 in CPU time    0.5
   38039 words reserved for DFT integration

 PROGRAM * RKS-SCF (Restricted open shell Kohn-Sham)     Authors: W. Meyer, H.-J. Werner, P.J. Knowles, 1993

 NUMBER OF ELECTRONS:       9+    8-    SPACE SYMMETRY=1    SPIN SYMMETRY: Doublet 
 CONVERGENCE THRESHOLDS:    1.00E-05 (Density)    1.00E-06 (Energy)
 MAX. NUMBER OF ITERATIONS:       60
 INTERPOLATION TYPE:            DIIS
 INTERPOLATION STEPS:              2 (START)      1 (STEP)
 LEVEL SHIFTS:                 -0.60 (CLOSED) -0.30 (OPEN) 



 Use fine grid record 1800.2 for energy threshold  1.0D-06
 Orbital guess generated from atomic densities. Full valence occupancy:    9

 Molecular orbital dump at record        2100.2

 Initial alpha occupancy:   9
 Initial beta  occupancy:   8
 Wave function symmetry:    1

 ITERATION    DDIFF          GRAD             ENERGY        2-EL.EN.            DIPOLE MOMENTS         DIIS   ORB.
    1      0.000D+00      0.000D+00      -114.87112915    166.597901   -0.08531   -1.49869    0.00000    0    start
    2      0.000D+00      0.756D-02      -114.89592297    163.992222   -0.02929   -0.90745    0.00000    1    diag,B
    3      0.771D-02      0.429D-02      -114.90199022    164.569769   -0.02802   -0.93713    0.00000    2    diag,B
    4      0.276D-02      0.122D-02      -114.90492595    164.510318   -0.02298   -0.85031    0.00000    3    diag,B
    5      0.146D-02      0.737D-03      -114.90630681    164.480432   -0.01735   -0.79805    0.00000    4    diag,B
    6      0.143D-02      0.241D-03      -114.90646713    164.468912   -0.01391   -0.78531    0.00000    5    diag,B
    7      0.570D-03      0.796D-04      -114.90647804    164.467720   -0.01261   -0.78488    0.00000    6    fixocc
    8      0.189D-03      0.233D-04      -114.90647893    164.469998   -0.01233   -0.78555    0.00000    7    diag,B
    9      0.700D-04      0.823D-05      -114.90647911    164.470095   -0.01236   -0.78585    0.00000    8    diag,B
   10      0.267D-04      0.369D-05      -114.90647917    164.470270   -0.01241   -0.78591    0.00000    9    orth
   11      0.101D-04      0.193D-05      -114.90647919    164.470213   -0.01248   -0.78592    0.00000    9    diag,B
   12      0.664D-05      0.646D-06      -114.90647919    164.470231   -0.01249   -0.78592    0.00000    0    orth

 Final alpha occupancy:   9
 Final beta  occupancy:   8

 !RKS STATE 1.1 Energy               -114.906479187378
 Nuclear energy                        34.28824494
 One-electron energy                 -223.95777931
 Two-electron energy                   82.23511565
 Density functional                    -7.47206047     XC-M08-HX=-7.47206047
 Virial quotient                       -1.00883174
 !RKS STATE 1.1 Dipole moment          -0.01248691    -0.78591971     0.00000000
 Dipole moment /Debye                  -0.03173647    -1.99747782     0.00000000

 Orbital energies:

         1.1          2.1          3.1          4.1          5.1          6.1          7.1          8.1          9.1         10.1
    -19.653356   -10.597132    -1.102993    -0.746493    -0.534371    -0.517515    -0.499061    -0.353569    -0.423709     0.084365

        11.1
      0.140873

 HOMO      9.1    -0.423709 =     -11.5297eV
 LUMO     10.1     0.084365 =       2.2957eV
 LUMO-HOMO         0.508074 =      13.8254eV


 **********************************************************************************************************************************
 DATASETS  * FILE   NREC   LENGTH (MB)   RECORD NAMES
              1      20       32.48       500      610      700      900      950      970     1000      129      960     1100   
                                          VAR    BASINP    GEOM    SYMINP    ZMAT    AOBASIS   BASIS     P2S    ABASIS      S 
                                         1400     1410     1200     1210     1080     1600     1650     1300     1700     1800   
                                           T        V       H0       H01     AOSYM     SMH    MOLCAS    ERIS     OPER     GRID   

              2       5        2.87       700     1000      520     1800     2100   
                                         GEOM     BASIS   MCVARS    GRID      RKS  

 PROGRAMS   *        TOTAL        KS       INT
 CPU TIMES  *         6.40      5.97      0.29
 REAL TIME  *         7.08 SEC
 DISK USED  *        41.20 MB      
 **********************************************************************************************************************************


 PROGRAM * Intrinsic Basis Bonding Analysis (IBBA)          Author: G. Knizia

 Molecular orbitals read from record     2100.2  Type=RKS/CANONICAL (state 1.1)
 Fock matrix read from record            2100.2  Type=RKS/TOTAL (state 1.1)
 Orbital energies read from record       2100.2  Type=RKS/CANONICAL (state 1.1)
 Density matrix read from record         2100.2  Type=RKS/CHARGE (state 1.1)

 Number of core orbitals:           2 (   2 )
 Number of closed-shell orbitals:   6 (   6 )
 Number of active  orbitals:        1 (   1 )

 Basis set MINAO-AUTO-PP generated.      Number of basis functions:   13 

 Polarized AO type:                A = (O Ot + (1-O)(1-Ot)) P12
 Orthogonalization method:         Symmetric (Loewdin)
 Localization functional:          L = sum[A,i] <i|n_A|i>^4 -> max

 Localization group 1:   8 orbitals, occupancy  2.000
 Iterative localization: IB/PM,    6 iter; Final gradient 0.43E-08

 Bond order analysis:       [THRPRINT= 0.020]

   CEN ATOM   CEN ATOM     WIBERG.BO      RENORM.BO
     1   O  -   2   C       1.158950       2.020663
     1   O  -   3   H       0.077384       0.655725
     1   O  -   4   H       0.045519       0.131304
     1   O  -   5   H       0.045519       0.131304

     2   C  -   1   O       1.158950       2.020663
     2   C  -   5   H       0.928887       0.944851
     2   C  -   4   H       0.928887       0.944851
     2   C  -   3   H       0.862101       0.997289

     3   H  -   2   C       0.862101       0.997289
     3   H  -   1   O       0.077384       0.655725

     4   H  -   2   C       0.928887       0.944851
     4   H  -   1   O       0.045519       0.131304

     5   H  -   2   C       0.928887       0.944851
     5   H  -   1   O       0.045519       0.131304


 Valency analysis:

   CEN ATOM   TOT.VALENCE
     1   O       1.327372
     2   C       3.878825
     3   H       0.949838
     4   H       0.979983
     5   H       0.979983
 Localization group 2:   1 orbitals, occupancy  1.000
 Iterative localization: IB/PM,    1 iter; Final gradient 0.00E+00

 Bond order analysis:       [THRPRINT= 0.020]

   CEN ATOM   CEN ATOM     WIBERG.BO      RENORM.BO
     1   O  -   3   H       0.096385       0.500000
     1   O  -   2   C       0.028596       0.500000
     1   O  -   4   H       0.020444       0.500000
     1   O  -   5   H       0.020444       0.500000

     2   C  -   1   O       0.028596       0.500000

     3   H  -   1   O       0.096385       0.500000

     4   H  -   1   O       0.020444       0.500000

     5   H  -   1   O       0.020444       0.500000


 Valency analysis:

   CEN ATOM   TOT.VALENCE
     1   O       0.165869
     2   C       0.030972
     3   H       0.100440
     4   H       0.022244
     5   H       0.022244

 Total charge composition:

   CEN ATOM         s          p       ELECTRONS ->P.CHARGE
     1   O       3.76553    4.48214      8.24767   -0.24767
     2   C       3.01038    3.17336      6.18374   -0.18374
     3   H       0.82906                 0.82906    0.17094
     4   H       0.86977                 0.86977    0.13023
     5   H       0.86977                 0.86977    0.13023

 Total charge composition, AO contributions:

   CEN ATOM SHL      SPHERICAL COMPONENTS
     1   O  1s       1.99808
     1   O  2s       1.76745
     1   O  2p       1.06575    1.46816    1.94822

     2   C  1s       1.99148
     2   C  2s       1.01890
     2   C  2p       1.16400    0.83610    1.17326

     3   H  1s       0.82906

     4   H  1s       0.86977

     5   H  1s       0.86977

 Active orbital charges:

   CEN ATOM         s          p       ELECTRONS ->SPIN.DEN
     1   O       0.00001    0.90873      0.90874    0.90874
     2   C       0.00000    0.01573      0.01573    0.01573
     3   H       0.05303                 0.05303    0.05303
     4   H       0.01125                 0.01125    0.01125
     5   H       0.01125                 0.01125    0.01125

 Active orbital charges, AO contributions:

   CEN ATOM SHL      SPHERICAL COMPONENTS
     1   O  1s       0.00000
     1   O  2s       0.00000
     1   O  2p       0.89396    0.01477    0.00000

     2   C  1s       0.00000
     2   C  2s       0.00000
     2   C  2p       0.01557    0.00016    0.00000

     3   H  1s       0.05303

     4   H  1s       0.01125

     5   H  1s       0.01125

 Summary of localized orbital composition:   [THRPRINT= 0.020]

   ORB  GRP  ORB.ENERGY      CENTERS/CHARGES
     1   1   -19.352841      O  1   2.000
     2   1   -10.483811      C  2   2.000
     3   1    -0.976623      O  1   1.995
     4   1    -0.945221      O  1   1.245   C  2   0.755
     5   1    -0.625323      C  2   1.118   H  3   0.772   O  1   0.108
     6   1    -0.612046      C  2   1.137   H  5   0.840   O  1   0.021
     7   1    -0.612046      C  2   1.137   H  4   0.840   O  1   0.021
     8   1    -0.396572      O  1   1.948   (other: 0.052)
     9   2    -0.238402      O  1   0.909   H  3   0.053   (other: 0.038)

 Localized orbitals saved to record      2100.2  (orbital set 2)


 **********************************************************************************************************************************
 DATASETS  * FILE   NREC   LENGTH (MB)   RECORD NAMES
              1      20       32.48       500      610      700      900      950      970     1000      129      960     1100   
                                          VAR    BASINP    GEOM    SYMINP    ZMAT    AOBASIS   BASIS     P2S    ABASIS      S 
                                         1400     1410     1200     1210     1080     1600     1650     1300     1700     1800   
                                           T        V       H0       H01     AOSYM     SMH    MOLCAS    ERIS     OPER     GRID   

              2       5        2.89       700     1000      520     1800     2100   
                                         GEOM     BASIS   MCVARS    GRID      RKS  

 PROGRAMS   *        TOTAL      IBBA        KS       INT
 CPU TIMES  *         6.43      0.02      5.97      0.29
 REAL TIME  *         7.14 SEC
 DISK USED  *        41.20 MB      
 **********************************************************************************************************************************
 Molecular orbitals read from record     2100.2  Type=RKS/LOCAL(IBO)  
 Occupation numbers read from record     2100.2  Type=RKS/LOCAL(IBO)  
 Orbital energies read from record       2100.2  Type=RKS/LOCAL(IBO)  
 Redundancy group numbers read from rec  2100.2  Type=RKS/LOCAL(IBO)  

 IBBA/SVP energy=      0.000000000000

        KS-SCF  
   -114.90647919
 **********************************************************************************************************************************
 Molpro calculation terminated
