
 Primary working directories    : /tmp/sb13343
 Secondary working directories  : /tmp/sb13343
 Wavefunction directory         : /panfs/panasas01/chem/sb13343/wfu/
 Main file repository           : /tmp/sb13343/

 SHA1      : b4a5b34a9e711420743f49e6833241d17c61fb3c
 NAME      : 2099.9.b4a5b34
 ARCHNAME  : linux/x86_64_openmp
 FC        : /cm/shared/languages/GCC-6.1/bin/gfortran
 BLASLIB   : -lblas
 id        : simonbennie

 Nodes     nprocs
 node36-007    1

 Using customized tuning parameters: mindgm=1; mindgv=20; mindgc=4; mindgr=1; noblas=0; minvec=7
 default implementation of scratch files=df  

 memory,500,m
 geomtyp=xyz
 nosym
 noorient
 geometry={
 O         -0.07179        0.79048        0.00000
 C          0.07053       -0.57065        0.00000
 H         -0.96431       -0.97345        0.00000
 H          0.55775       -0.96326        0.90880
 H          0.55775       -0.96326       -0.90880
 }
 basis={ default,svp }
 {uks,VWN,direct;wf,17,1,1}
 {ibba,bonds=1}

 Variables initialized (895), CPU time= 0.01 sec
 Commands  initialized (725), CPU time= 0.01 sec, 591 directives.
 Default parameters read. Elapsed time= 0.08 sec

 Checking input...
 Passed
1


                                         ***  PROGRAM SYSTEM MOLPRO  ***
                                       Copyright, TTI GmbH Stuttgart, 2015
                                    Version 2099.9 linked May 26 2017 16:03:21


 **********************************************************************************************************************************
 LABEL *                                                                                 
  64 bit serial version                                                                  DATE: 08-Jun-17          TIME: 16:59:31  
 **********************************************************************************************************************************

 SHA1:             b4a5b34a9e711420743f49e6833241d17c61fb3c
 **********************************************************************************************************************************
 SETTING GEOMTYP        =    XYZ

 Variable memory set to  500000000 words,  buffer space 

 ZSYMEL=NOSYM

 SETTING BASIS          =    SVP


 Recomputing integrals since basis changed


 Using spherical harmonics

 Library entry O      S def2-SVP             selected for orbital group  1
 Library entry O      P def2-SVP             selected for orbital group  1
 Library entry O      D def2-SVP             selected for orbital group  1
 Library entry C      S def2-SVP             selected for orbital group  2
 Library entry C      P def2-SVP             selected for orbital group  2
 Library entry C      D def2-SVP             selected for orbital group  2
 Library entry H      S def2-SVP             selected for orbital group  3
 Library entry H      P def2-SVP             selected for orbital group  3


 PROGRAM * SEWARD (Integral evaluation for generally contracted gaussian basis sets)     Author: Roland Lindh, 1990

 Geometry written to block  1 of record 700


 Point group  C1  



 ATOMIC COORDINATES

 NR  ATOM    CHARGE       X              Y              Z

   1  O       8.00   -0.135663438    1.493790707    0.000000000
   2  C       6.00    0.133282384   -1.078372213    0.000000000
   3  H       1.00   -1.822281799   -1.839553896    0.000000000
   4  H       1.00    1.053994746   -1.820297587    1.717383102
   5  H       1.00    1.053994746   -1.820297587   -1.717383102

 Bond lengths in Bohr (Angstrom)

 1-2  2.586185210  2-3  2.098482506  2-4  2.085082548  2-5  2.085082548
     ( 1.368550276)     ( 1.110469120)     ( 1.103378167)     ( 1.103378167)

 Bond angles

  1-2-3  105.29875708   1-2-4  113.56671130   1-2-5  113.56671130   3-2-4  106.40524792

  3-2-5  106.40524792   4-2-5  110.90419060

 NUCLEAR CHARGE:                   17
 NUMBER OF PRIMITIVE AOS:          71
 NUMBER OF SYMMETRY AOS:           69
 NUMBER OF CONTRACTIONS:           43   (  43A   )
 NUMBER OF CORE ORBITALS:           2   (   2A   )
 NUMBER OF VALENCE ORBITALS:       11   (  11A   )


 NUCLEAR REPULSION ENERGY   34.28824494


 Eigenvalues of metric

         1 0.119E-01 0.382E-01 0.461E-01 0.536E-01 0.110E+00 0.137E+00 0.139E+00 0.243E+00


 Contracted 2-electron integrals neglected if value below      1.0D-11
 AO integral compression algorithm  1   Integral accuracy      1.0D-11

     2.359 MB (compressed) written to integral file ( 48.8%)


 NUMBER OF SORTED TWO-ELECTRON INTEGRALS:     447931.     BUFFER LENGTH:  32768
 NUMBER OF SEGMENTS:   1  SEGMENT LENGTH:     447931      RECORD LENGTH: 524288

 Memory used in sort:       1.00 MW

 SORT1 READ      553316. AND WROTE      366431. INTEGRALS IN      2 RECORDS. CPU TIME:     0.01 SEC, REAL TIME:     0.01 SEC
 SORT2 READ      366431. AND WROTE      447931. INTEGRALS IN      9 RECORDS. CPU TIME:     0.03 SEC, REAL TIME:     0.03 SEC

 FILE SIZES:   FILE 1:    32.4 MBYTE,  FILE 4:     8.4 MBYTE,   TOTAL:     40.9 MBYTE

 OPERATOR DM      FOR CENTER  0  COORDINATES:    0.000000    0.000000    0.000000


 **********************************************************************************************************************************
 DATASETS  * FILE   NREC   LENGTH (MB)   RECORD NAMES
              1      19       31.84       500      610      700      900      950      970     1000      129      960     1100   
                                          VAR    BASINP    GEOM    SYMINP    ZMAT    AOBASIS   BASIS     P2S    ABASIS      S 
                                         1400     1410     1200     1210     1080     1600     1650     1300     1700   
                                           T        V       H0       H01     AOSYM     SMH    MOLCAS    ERIS     OPER   

 PROGRAMS   *        TOTAL       INT
 CPU TIMES  *         0.55      0.42
 REAL TIME  *         1.01 SEC
 DISK USED  *        41.20 MB      
 **********************************************************************************************************************************

 Density functional group VWN=VWN5
 Functional: VWN5(Automatically generated (new) VWN5)                          Gradient terms: 0
 Use grid at  1800.2

 Functional: VWN5                      Factor:  1.0000

 Generated new metagrid on record  1800.2 with target accuracy 1.0D-06 and 19990 points in CPU time    0.5
 Computed new grid on record 1800.1 in CPU time    0.5
   21656 words reserved for DFT integration

 PROGRAM * UKS-SCF (Unrestricted Kohn-Sham)     Authors: W. Meyer, H.-J. Werner, P.J. Knowles, 1993

 NUMBER OF ELECTRONS:       9+    8-    SPACE SYMMETRY=1    SPIN SYMMETRY: Doublet 
 CONVERGENCE THRESHOLDS:    1.00E-05 (Density)    1.00E-06 (Energy)
 MAX. NUMBER OF ITERATIONS:       60
 INTERPOLATION TYPE:            DIIS
 INTERPOLATION STEPS:              2 (START)      1 (STEP)
 LEVEL SHIFTS:                 -0.20 (ALPHA)  -0.20 (BETA) 



 Use fine grid record 1800.2 for energy threshold  1.0D-06
 Orbital guess generated from atomic densities. Full valence occupancy:    9

 Molecular orbital dump at record        2200.2

 Initial alpha occupation   9
 Initial beta  occupation   8

 ITERATION    DDIFF          GRAD             ENERGY        2-EL.EN.            DIPOLE MOMENTS         DIIS
    1      0.000D+00      0.000D+00       -99.32231064    145.121211   -0.75665    7.99877   -0.00000    0
    2      0.893D+00      0.416D-01       -97.50132921    201.328861    0.71655   -5.63773    0.00000    1
    3      0.568D-01      0.697D-01      -100.98914093    178.545476    0.28141   -2.51539    0.00000    2
    4      0.172D-01      0.227D-01      -101.30820188    171.832678    0.18427   -1.29632    0.00000    3
    5      0.139D-01      0.925D-02      -101.37486682    169.472322    0.10837   -0.50702    0.00000    4
    6      0.148D-01      0.198D-02      -101.38305941    167.848667    0.14049   -0.13206    0.00000    5
    7      0.756D-02      0.125D-02      -101.38475479    167.955898    0.15881   -0.06664    0.00000    6
    8      0.339D-02      0.755D-03      -101.38534856    168.089191    0.17567   -0.11078    0.00000    7
    9      0.177D-02      0.196D-03      -101.38542298    168.164676    0.17607   -0.12075    0.00000    8
   10      0.862D-03      0.379D-04      -101.38543176    168.161215    0.17455   -0.12144    0.00000    7
   11      0.419D-03      0.123D-04      -101.38543327    168.162517    0.17235   -0.12228    0.00000    7
   12      0.230D-03      0.535D-05      -101.38543361    168.162164    0.17115   -0.12208    0.00000    7
   13      0.118D-03      0.230D-05      -101.38543367    168.162067    0.17039   -0.12209    0.00000    7
   14      0.148D-04      0.694D-06      -101.38543367    168.162014    0.17035   -0.12209    0.00000    6
   15      0.286D-05      0.410D-06      -101.38543367    168.162075    0.17032   -0.12207    0.00000    7
   16      0.198D-05      0.137D-06      -101.38543367    168.162093    0.17032   -0.12208    0.00000    7

 Final alpha occupancy:   9
 Final beta  occupancy:   8

 !UKS STATE 1.1 Energy               -101.385433673293
 Nuclear energy                        34.28824494
 One-electron energy                 -218.68780273
 Two-electron energy                   84.08104643
 Density functional                    -1.06692232     VWN5=-1.06692232
 Virial quotient                       -0.94360643
 !UKS STATE 1.1 Dipole moment           0.17031597    -0.12207812     0.00000000
 Dipole moment /Debye                   0.43287166    -0.31027131     0.00000000

 Orbital energies for positive spin:

         1.1          2.1          3.1          4.1          5.1          6.1          7.1          8.1          9.1         10.1
    -16.621612    -8.286063    -0.529015    -0.262845    -0.139686    -0.115412    -0.039726     0.067594     0.113312     0.197188

        11.1
      0.266830

 Orbital energies for negative spin:

         1.1          2.1          3.1          4.1          5.1          6.1          7.1          8.1          9.1         10.1
    -16.623519    -8.286204    -0.535479    -0.266684    -0.145504    -0.117231    -0.044700     0.108953     0.053552     0.192876

        11.1
      0.260388

 HOMO      9.1     0.113312 =       3.0834eV
 LUMO     -9.1     0.053552 =       1.4572eV
 LUMO-HOMO        -0.059759 =      -1.6261eV

 EXPECTATION VALUE OF S**2:             0.75017358

 Occupation number threshold for canonical orbitals:  1.999000 (occupied),  0.001000 (virtual)

 Number of pseudo-canonical orbitals per symmetry:    8
 Number of active natural orbitals per symmetry:      1

 Natural orbitals saved to record    2200.2 (Orbital set 3)

 Orbital spaces for UNO-CAS (Min. occupation: 0.020  Max. occupation: 1.980):

 Closed:        8
 Active:        1


 **********************************************************************************************************************************
 DATASETS  * FILE   NREC   LENGTH (MB)   RECORD NAMES
              1      20       32.48       500      610      700      900      950      970     1000      129      960     1100   
                                          VAR    BASINP    GEOM    SYMINP    ZMAT    AOBASIS   BASIS     P2S    ABASIS      S 
                                         1400     1410     1200     1210     1080     1600     1650     1300     1700     1800   
                                           T        V       H0       H01     AOSYM     SMH    MOLCAS    ERIS     OPER     GRID   

              2       5        2.90       700     1000      520     1800     2200   
                                         GEOM     BASIS   MCVARS    GRID      UKS  

 PROGRAMS   *        TOTAL       UKS       INT
 CPU TIMES  *         2.93      2.38      0.42
 REAL TIME  *         3.76 SEC
 DISK USED  *        41.20 MB      
 **********************************************************************************************************************************


 PROGRAM * Intrinsic Basis Bonding Analysis (IBBA)          Author: G. Knizia

 Molecular orbitals read from record     2200.2  Type=UKS/ALPHA (state 1.1)
 Fock matrix read from record            2200.2  Type=UKS/TOTAL (state 1.1)
 Orbital energies read from record       2200.2  Type=UKS/ALPHA (state 1.1)
 Density matrix read from record         2200.2  Type=UKS/CHARGE (state 1.1)

 Number of core orbitals:           2 (   2 )
 Number of closed-shell orbitals:   6 (   6 )
 Number of active  orbitals:        1 (   1 )

 Basis set MINAO-AUTO-PP generated.      Number of basis functions:   13 

 Polarized AO type:                A = (O Ot + (1-O)(1-Ot)) P12
 Orthogonalization method:         Symmetric (Loewdin)
 Localization functional:          L = sum[A,i] <i|n_A|i>^4 -> max

 Localization group 1:   8 orbitals, occupancy  2.000
 Iterative localization: IB/PM,    6 iter; Final gradient 0.47E-08

 Bond order analysis:       [THRPRINT= 0.020]

   CEN ATOM   CEN ATOM     WIBERG.BO      RENORM.BO
     1   O  -   2   C       1.410718       2.063170
     1   O  -   3   H       0.135819       0.639237
     1   O  -   4   H       0.088277       0.112986
     1   O  -   5   H       0.088277       0.112986

     2   C  -   1   O       1.410718       2.063170
     2   C  -   4   H       0.890549       0.871132
     2   C  -   5   H       0.890549       0.871132
     2   C  -   3   H       0.764174       0.994314

     3   H  -   2   C       0.764174       0.994314
     3   H  -   1   O       0.135819       0.639237

     4   H  -   2   C       0.890549       0.871132
     4   H  -   1   O       0.088277       0.112986

     5   H  -   2   C       0.890549       0.871132
     5   H  -   1   O       0.088277       0.112986


 Valency analysis:

   CEN ATOM   TOT.VALENCE
     1   O       1.723091
     2   C       3.955991
     3   H       0.937892
     4   H       0.999887
     5   H       0.999887
 Localization group 2:   1 orbitals, occupancy  1.000
 Iterative localization: IB/PM,    1 iter; Final gradient 0.00E+00

 Bond order analysis:       [THRPRINT= 0.020]

   CEN ATOM   CEN ATOM     WIBERG.BO      RENORM.BO
     1   O  -   3   H       0.216064       0.500000
     1   O  -   5   H       0.048590       0.500000
     1   O  -   4   H       0.048590       0.500000
     1   O  -   2   C       0.021574       0.500000

     2   C  -   1   O       0.021574       0.500000

     3   H  -   1   O       0.216064       0.500000

     4   H  -   1   O       0.048590       0.500000

     5   H  -   1   O       0.048590       0.500000


 Valency analysis:

   CEN ATOM   TOT.VALENCE
     1   O       0.334819
     2   C       0.027024
     3   H       0.236757
     4   H       0.059807
     5   H       0.059807

 Total charge composition:

   CEN ATOM         s          p       ELECTRONS ->P.CHARGE
     1   O       3.69911    4.37001      8.06912   -0.06912
     2   C       2.89002    3.11244      6.00246   -0.00246
     3   H       0.88799                 0.88799    0.11201
     4   H       1.02021                 1.02021   -0.02021
     5   H       1.02021                 1.02021   -0.02021

 Total charge composition, AO contributions:

   CEN ATOM SHL      SPHERICAL COMPONENTS
     1   O  1s       1.99930
     1   O  2s       1.69981
     1   O  2p       1.07409    1.42678    1.86914

     2   C  1s       1.99799
     2   C  2s       0.89203
     2   C  2p       1.10322    0.91367    1.09556

     3   H  1s       0.88799

     4   H  1s       1.02021

     5   H  1s       1.02021

 Active orbital charges:

   CEN ATOM         s          p       ELECTRONS ->SPIN.DEN
     1   O       0.00000    0.78738      0.78739    0.78739
     2   C       0.00060    0.01310      0.01370    0.01370
     3   H       0.13720                 0.13720    0.13720
     4   H       0.03086                 0.03086    0.03086
     5   H       0.03086                 0.03086    0.03086

 Active orbital charges, AO contributions:

   CEN ATOM SHL      SPHERICAL COMPONENTS
     1   O  1s       0.00000
     1   O  2s       0.00000
     1   O  2p       0.77055    0.01683    0.00000

     2   C  1s       0.00000
     2   C  2s       0.00060
     2   C  2p       0.01200    0.00110    0.00000

     3   H  1s       0.13720

     4   H  1s       0.03086

     5   H  1s       0.03086

 Summary of localized orbital composition:   [THRPRINT= 0.020]

   ORB  GRP  ORB.ENERGY      CENTERS/CHARGES
     1   1   -16.467626      O  1   2.000
     2   1    -8.209703      C  2   2.000
     3   1    -0.441480      O  1   1.143   C  2   0.855
     4   1    -0.285537      O  1   1.990
     5   1    -0.199472      C  2   1.008   H  4   0.951   O  1   0.028
     6   1    -0.199472      C  2   1.008   H  5   0.951   O  1   0.028
     7   1    -0.169593      C  2   1.050   H  3   0.725   O  1   0.223
     8   1     0.026671      O  1   1.869   C  2   0.062   H  5   0.035   H  4   0.035
     9   2     0.111134      O  1   0.787   H  3   0.137   H  5   0.031   H  4   0.031

 Localized orbitals saved to record      2200.2  (orbital set 4)


 **********************************************************************************************************************************
 DATASETS  * FILE   NREC   LENGTH (MB)   RECORD NAMES
              1      20       32.48       500      610      700      900      950      970     1000      129      960     1100   
                                          VAR    BASINP    GEOM    SYMINP    ZMAT    AOBASIS   BASIS     P2S    ABASIS      S 
                                         1400     1410     1200     1210     1080     1600     1650     1300     1700     1800   
                                           T        V       H0       H01     AOSYM     SMH    MOLCAS    ERIS     OPER     GRID   

              2       5        2.92       700     1000      520     1800     2200   
                                         GEOM     BASIS   MCVARS    GRID      UKS  

 PROGRAMS   *        TOTAL      IBBA       UKS       INT
 CPU TIMES  *         2.95      0.02      2.38      0.42
 REAL TIME  *         3.84 SEC
 DISK USED  *        41.20 MB      
 **********************************************************************************************************************************
 Molecular orbitals read from record     2200.2  Type=UKS/LOCAL(IBO)  
 Occupation numbers read from record     2200.2  Type=UKS/LOCAL(IBO)  
 Orbital energies read from record       2200.2  Type=UKS/LOCAL(IBO)  
 Redundancy group numbers read from rec  2200.2  Type=UKS/BETA (state 1.1)

 IBBA/SVP energy=      0.000000000000

        UKS-SCF 
   -101.38543367
 **********************************************************************************************************************************
 Molpro calculation terminated
