
 Primary working directories    : /tmp/sb13343
 Secondary working directories  : /tmp/sb13343
 Wavefunction directory         : /panfs/panasas01/chem/sb13343/wfu/
 Main file repository           : /tmp/sb13343/

 SHA1      : b4a5b34a9e711420743f49e6833241d17c61fb3c
 NAME      : 2099.9.b4a5b34
 ARCHNAME  : linux/x86_64_openmp
 FC        : /cm/shared/languages/GCC-6.1/bin/gfortran
 BLASLIB   : -lblas
 id        : simonbennie

 Nodes     nprocs
 node32-008    1

 Using customized tuning parameters: mindgm=1; mindgv=20; mindgc=4; mindgr=1; noblas=0; minvec=7
 default implementation of scratch files=df  

 memory,500,m
 geomtyp=xyz
 nosym
 noorient
 geometry={
 O         -0.07179        0.79048        0.00000
 C          0.07053       -0.57065        0.00000
 H         -0.96431       -0.97345        0.00000
 H          0.55775       -0.96326        0.90880
 H          0.55775       -0.96326       -0.90880
 }
 basis={ default,svp }
 {ks,MM06-2X,direct;wf,17,1,1}
 {ibba,bonds=1}

 Variables initialized (895), CPU time= 0.01 sec
 Commands  initialized (725), CPU time= 0.01 sec, 591 directives.
 Default parameters read. Elapsed time= 0.08 sec

 Checking input...
 Passed
1


                                         ***  PROGRAM SYSTEM MOLPRO  ***
                                       Copyright, TTI GmbH Stuttgart, 2015
                                    Version 2099.9 linked May 26 2017 16:03:21


 **********************************************************************************************************************************
 LABEL *                                                                                 
  64 bit serial version                                                                  DATE: 08-Jun-17          TIME: 17:13:56  
 **********************************************************************************************************************************

 SHA1:             b4a5b34a9e711420743f49e6833241d17c61fb3c
 **********************************************************************************************************************************
 SETTING GEOMTYP        =    XYZ

 Variable memory set to  500000000 words,  buffer space 

 ZSYMEL=NOSYM

 SETTING BASIS          =    SVP


 Recomputing integrals since basis changed


 Using spherical harmonics

 Library entry O      S def2-SVP             selected for orbital group  1
 Library entry O      P def2-SVP             selected for orbital group  1
 Library entry O      D def2-SVP             selected for orbital group  1
 Library entry C      S def2-SVP             selected for orbital group  2
 Library entry C      P def2-SVP             selected for orbital group  2
 Library entry C      D def2-SVP             selected for orbital group  2
 Library entry H      S def2-SVP             selected for orbital group  3
 Library entry H      P def2-SVP             selected for orbital group  3


 PROGRAM * SEWARD (Integral evaluation for generally contracted gaussian basis sets)     Author: Roland Lindh, 1990

 Geometry written to block  1 of record 700


 Point group  C1  



 ATOMIC COORDINATES

 NR  ATOM    CHARGE       X              Y              Z

   1  O       8.00   -0.135663438    1.493790707    0.000000000
   2  C       6.00    0.133282384   -1.078372213    0.000000000
   3  H       1.00   -1.822281799   -1.839553896    0.000000000
   4  H       1.00    1.053994746   -1.820297587    1.717383102
   5  H       1.00    1.053994746   -1.820297587   -1.717383102

 Bond lengths in Bohr (Angstrom)

 1-2  2.586185210  2-3  2.098482506  2-4  2.085082548  2-5  2.085082548
     ( 1.368550276)     ( 1.110469120)     ( 1.103378167)     ( 1.103378167)

 Bond angles

  1-2-3  105.29875708   1-2-4  113.56671130   1-2-5  113.56671130   3-2-4  106.40524792

  3-2-5  106.40524792   4-2-5  110.90419060

 NUCLEAR CHARGE:                   17
 NUMBER OF PRIMITIVE AOS:          71
 NUMBER OF SYMMETRY AOS:           69
 NUMBER OF CONTRACTIONS:           43   (  43A   )
 NUMBER OF CORE ORBITALS:           2   (   2A   )
 NUMBER OF VALENCE ORBITALS:       11   (  11A   )


 NUCLEAR REPULSION ENERGY   34.28824494


 Eigenvalues of metric

         1 0.119E-01 0.382E-01 0.461E-01 0.536E-01 0.110E+00 0.137E+00 0.139E+00 0.243E+00


 Contracted 2-electron integrals neglected if value below      1.0D-11
 AO integral compression algorithm  1   Integral accuracy      1.0D-11

     2.359 MB (compressed) written to integral file ( 48.8%)


 NUMBER OF SORTED TWO-ELECTRON INTEGRALS:     447931.     BUFFER LENGTH:  32768
 NUMBER OF SEGMENTS:   1  SEGMENT LENGTH:     447931      RECORD LENGTH: 524288

 Memory used in sort:       1.00 MW

 SORT1 READ      553316. AND WROTE      366431. INTEGRALS IN      2 RECORDS. CPU TIME:     0.01 SEC, REAL TIME:     0.01 SEC
 SORT2 READ      366431. AND WROTE      447931. INTEGRALS IN      9 RECORDS. CPU TIME:     0.03 SEC, REAL TIME:     0.04 SEC

 FILE SIZES:   FILE 1:    32.4 MBYTE,  FILE 4:     8.4 MBYTE,   TOTAL:     40.9 MBYTE

 OPERATOR DM      FOR CENTER  0  COORDINATES:    0.000000    0.000000    0.000000


 **********************************************************************************************************************************
 DATASETS  * FILE   NREC   LENGTH (MB)   RECORD NAMES
              1      19       31.84       500      610      700      900      950      970     1000      129      960     1100   
                                          VAR    BASINP    GEOM    SYMINP    ZMAT    AOBASIS   BASIS     P2S    ABASIS      S 
                                         1400     1410     1200     1210     1080     1600     1650     1300     1700   
                                           T        V       H0       H01     AOSYM     SMH    MOLCAS    ERIS     OPER   

 PROGRAMS   *        TOTAL       INT
 CPU TIMES  *         0.57      0.41
 REAL TIME  *         1.04 SEC
 DISK USED  *        41.20 MB      
 **********************************************************************************************************************************

 Density functional group MM06-2X=M062XX+M062XC
 Functional: M062XX(Automatically generated (new) M062XX)                      Gradient terms: 2
 Functional: M062XC(Automatically generated (new) M062XC)                      Gradient terms: 2
 Use grid at  1800.2


 Exact exchange will be calculated, factor:  0.5400

 Functional: M062XX                    Factor:  0.4600
 Functional: M062XC                    Factor:  1.0000

 Generated new metagrid on record  1800.2 with target accuracy 1.0D-06 and 19990 points in CPU time    0.5
 Computed new grid on record 1800.1 in CPU time    0.5
   70805 words reserved for DFT integration

 PROGRAM * RKS-SCF (Restricted open shell Kohn-Sham)     Authors: W. Meyer, H.-J. Werner, P.J. Knowles, 1993

 NUMBER OF ELECTRONS:       9+    8-    SPACE SYMMETRY=1    SPIN SYMMETRY: Doublet 
 CONVERGENCE THRESHOLDS:    1.00E-05 (Density)    1.00E-06 (Energy)
 MAX. NUMBER OF ITERATIONS:       60
 INTERPOLATION TYPE:            DIIS
 INTERPOLATION STEPS:              2 (START)      1 (STEP)
 LEVEL SHIFTS:                 -0.60 (CLOSED) -0.30 (OPEN) 



 Use fine grid record 1800.2 for energy threshold  1.0D-06
 Orbital guess generated from atomic densities. Full valence occupancy:    9

 Molecular orbital dump at record        2100.2

 Initial alpha occupancy:   9
 Initial beta  occupancy:   8
 Wave function symmetry:    1

 ITERATION    DDIFF          GRAD             ENERGY        2-EL.EN.            DIPOLE MOMENTS         DIIS   ORB.
    1      0.000D+00      0.000D+00      -111.33375780    161.409015   -0.09964   -1.13012    0.00000    0    start
    2      0.000D+00      0.468D-02      -111.34501033    161.631097   -0.04564   -0.90008    0.00000    1    diag,B
    3      0.330D-02      0.132D-02      -111.34780888    161.470214   -0.03756   -0.80134    0.00000    2    diag,B
    4      0.130D-02      0.791D-03      -111.34912918    161.488114   -0.03149   -0.75482    0.00000    3    diag,B
    5      0.118D-02      0.348D-03      -111.34944712    161.435109   -0.02829   -0.73316    0.00000    4    diag,B
    6      0.634D-03      0.189D-03      -111.34952627    161.432551   -0.02566   -0.72629    0.00000    5    diag,B
    7      0.468D-03      0.418D-04      -111.34952925    161.433574   -0.02490   -0.72622    0.00000    6    fixocc
    8      0.107D-03      0.157D-04      -111.34952963    161.434222   -0.02471   -0.72667   -0.00000    7    diag,B
    9      0.479D-04      0.587D-05      -111.34952972    161.434727   -0.02473   -0.72694    0.00000    8    diag,B
   10      0.220D-04      0.246D-05      -111.34952974    161.434823   -0.02475   -0.72700    0.00000    9    orth
   11      0.776D-05      0.123D-05      -111.34952975    161.434828   -0.02477   -0.72700    0.00000    0    orth

 Final alpha occupancy:   9
 Final beta  occupancy:   8

 !RKS STATE 1.1 Energy               -111.349529748291
 Nuclear energy                        34.28824494
 One-electron energy                 -222.75905911
 Two-electron energy                   80.71741407
 Density functional                    -3.59612965     M062XX=-6.52953316 M062XC=-0.59254439
 Virial quotient                       -0.99081949
 !RKS STATE 1.1 Dipole moment          -0.02477059    -0.72700265     0.00000000
 Dipole moment /Debye                  -0.06295643    -1.84773540     0.00000000

 Orbital energies:

         1.1          2.1          3.1          4.1          5.1          6.1          7.1          8.1          9.1         10.1
    -19.169700   -10.209450    -1.016246    -0.662406    -0.457788    -0.444364    -0.414921    -0.262578    -0.326541     0.156308

        11.1
      0.215674

 HOMO      9.1    -0.326541 =      -8.8856eV
 LUMO     10.1     0.156308 =       4.2533eV
 LUMO-HOMO         0.482848 =      13.1390eV


 **********************************************************************************************************************************
 DATASETS  * FILE   NREC   LENGTH (MB)   RECORD NAMES
              1      20       32.48       500      610      700      900      950      970     1000      129      960     1100   
                                          VAR    BASINP    GEOM    SYMINP    ZMAT    AOBASIS   BASIS     P2S    ABASIS      S 
                                         1400     1410     1200     1210     1080     1600     1650     1300     1700     1800   
                                           T        V       H0       H01     AOSYM     SMH    MOLCAS    ERIS     OPER     GRID   

              2       5        2.87       700     1000      520     1800     2100   
                                         GEOM     BASIS   MCVARS    GRID      RKS  

 PROGRAMS   *        TOTAL        KS       INT
 CPU TIMES  *         8.26      7.70      0.41
 REAL TIME  *         9.08 SEC
 DISK USED  *        41.20 MB      
 **********************************************************************************************************************************


 PROGRAM * Intrinsic Basis Bonding Analysis (IBBA)          Author: G. Knizia

 Molecular orbitals read from record     2100.2  Type=RKS/CANONICAL (state 1.1)
 Fock matrix read from record            2100.2  Type=RKS/TOTAL (state 1.1)
 Orbital energies read from record       2100.2  Type=RKS/CANONICAL (state 1.1)
 Density matrix read from record         2100.2  Type=RKS/CHARGE (state 1.1)

 Number of core orbitals:           2 (   2 )
 Number of closed-shell orbitals:   6 (   6 )
 Number of active  orbitals:        1 (   1 )

 Basis set MINAO-AUTO-PP generated.      Number of basis functions:   13 

 Polarized AO type:                A = (O Ot + (1-O)(1-Ot)) P12
 Orthogonalization method:         Symmetric (Loewdin)
 Localization functional:          L = sum[A,i] <i|n_A|i>^4 -> max

 Localization group 1:   8 orbitals, occupancy  2.000
 Iterative localization: IB/PM,    6 iter; Final gradient 0.34E-08

 Bond order analysis:       [THRPRINT= 0.020]

   CEN ATOM   CEN ATOM     WIBERG.BO      RENORM.BO
     1   O  -   2   C       1.195399       2.024788
     1   O  -   3   H       0.088364       0.648022
     1   O  -   4   H       0.051170       0.128111
     1   O  -   5   H       0.051170       0.128111

     2   C  -   1   O       1.195399       2.024788
     2   C  -   5   H       0.928038       0.937486
     2   C  -   4   H       0.928038       0.937486
     2   C  -   3   H       0.852874       0.997002

     3   H  -   2   C       0.852874       0.997002
     3   H  -   1   O       0.088364       0.648022

     4   H  -   2   C       0.928038       0.937486
     4   H  -   1   O       0.051170       0.128111

     5   H  -   2   C       0.928038       0.937486
     5   H  -   1   O       0.051170       0.128111


 Valency analysis:

   CEN ATOM   TOT.VALENCE
     1   O       1.386103
     2   C       3.904348
     3   H       0.956092
     4   H       0.986951
     5   H       0.986951
 Localization group 2:   1 orbitals, occupancy  1.000
 Iterative localization: IB/PM,    1 iter; Final gradient 0.00E+00

 Bond order analysis:       [THRPRINT= 0.020]

   CEN ATOM   CEN ATOM     WIBERG.BO      RENORM.BO
     1   O  -   3   H       0.110593       0.500000
     1   O  -   2   C       0.030810       0.500000
     1   O  -   4   H       0.023064       0.500000
     1   O  -   5   H       0.023064       0.500000

     2   C  -   1   O       0.030810       0.500000

     3   H  -   1   O       0.110593       0.500000

     4   H  -   1   O       0.023064       0.500000

     5   H  -   1   O       0.023064       0.500000


 Valency analysis:

   CEN ATOM   TOT.VALENCE
     1   O       0.187531
     2   C       0.033822
     3   H       0.115901
     4   H       0.025430
     5   H       0.025430

 Total charge composition:

   CEN ATOM         s          p       ELECTRONS ->P.CHARGE
     1   O       3.75093    4.47711      8.22804   -0.22804
     2   C       2.97228    3.15016      6.12243   -0.12243
     3   H       0.85222                 0.85222    0.14778
     4   H       0.89865                 0.89865    0.10135
     5   H       0.89865                 0.89865    0.10135

 Total charge composition, AO contributions:

   CEN ATOM SHL      SPHERICAL COMPONENTS
     1   O  1s       1.99832
     1   O  2s       1.75261
     1   O  2p       1.07298    1.46402    1.94012

     2   C  1s       1.99301
     2   C  2s       0.97927
     2   C  2p       1.14494    0.84889    1.15633

     3   H  1s       0.85222

     4   H  1s       0.89865

     5   H  1s       0.89865

 Active orbital charges:

   CEN ATOM         s          p       ELECTRONS ->SPIN.DEN
     1   O       0.00001    0.89526      0.89527    0.89527
     2   C       0.00000    0.01720      0.01721    0.01721
     3   H       0.06177                 0.06177    0.06177
     4   H       0.01288                 0.01288    0.01288
     5   H       0.01288                 0.01288    0.01288

 Active orbital charges, AO contributions:

   CEN ATOM SHL      SPHERICAL COMPONENTS
     1   O  1s       0.00000
     1   O  2s       0.00001
     1   O  2p       0.87991    0.01535    0.00000

     2   C  1s       0.00000
     2   C  2s       0.00000
     2   C  2p       0.01702    0.00019    0.00000

     3   H  1s       0.06177

     4   H  1s       0.01288

     5   H  1s       0.01288

 Summary of localized orbital composition:   [THRPRINT= 0.020]

   ORB  GRP  ORB.ENERGY      CENTERS/CHARGES
     1   1   -18.897147      O  1   2.000
     2   1   -10.105061      C  2   2.000
     3   1    -0.864833      O  1   1.227   C  2   0.773
     4   1    -0.855175      O  1   1.995
     5   1    -0.546271      C  2   1.089   H  3   0.784   O  1   0.124
     6   1    -0.531692      C  2   1.109   H  5   0.865   O  1   0.023
     7   1    -0.531692      C  2   1.109   H  4   0.865   O  1   0.023
     8   1    -0.305581      O  1   1.940   C  2   0.023   (other: 0.037)
     9   2    -0.155166      O  1   0.895   H  3   0.062   (other: 0.043)

 Localized orbitals saved to record      2100.2  (orbital set 2)


 **********************************************************************************************************************************
 DATASETS  * FILE   NREC   LENGTH (MB)   RECORD NAMES
              1      20       32.48       500      610      700      900      950      970     1000      129      960     1100   
                                          VAR    BASINP    GEOM    SYMINP    ZMAT    AOBASIS   BASIS     P2S    ABASIS      S 
                                         1400     1410     1200     1210     1080     1600     1650     1300     1700     1800   
                                           T        V       H0       H01     AOSYM     SMH    MOLCAS    ERIS     OPER     GRID   

              2       5        2.89       700     1000      520     1800     2100   
                                         GEOM     BASIS   MCVARS    GRID      RKS  

 PROGRAMS   *        TOTAL      IBBA        KS       INT
 CPU TIMES  *         8.29      0.02      7.70      0.41
 REAL TIME  *         9.14 SEC
 DISK USED  *        41.20 MB      
 **********************************************************************************************************************************
 Molecular orbitals read from record     2100.2  Type=RKS/LOCAL(IBO)  
 Occupation numbers read from record     2100.2  Type=RKS/LOCAL(IBO)  
 Orbital energies read from record       2100.2  Type=RKS/LOCAL(IBO)  
 Redundancy group numbers read from rec  2100.2  Type=RKS/LOCAL(IBO)  

 IBBA/SVP energy=      0.000000000000

        KS-SCF  
   -111.34952975
 **********************************************************************************************************************************
 Molpro calculation terminated
