
 Primary working directories    : /tmp/sb13343
 Secondary working directories  : /tmp/sb13343
 Wavefunction directory         : /panfs/panasas01/chem/sb13343/wfu/
 Main file repository           : /tmp/sb13343/

 SHA1      : b4a5b34a9e711420743f49e6833241d17c61fb3c
 NAME      : 2099.9.b4a5b34
 ARCHNAME  : linux/x86_64_openmp
 FC        : /cm/shared/languages/GCC-6.1/bin/gfortran
 BLASLIB   : -lblas
 id        : simonbennie

 Nodes     nprocs
 node33-003    1

 Using customized tuning parameters: mindgm=1; mindgv=20; mindgc=4; mindgr=1; noblas=0; minvec=7
 default implementation of scratch files=df  

 memory,500,m
 geomtyp=xyz
 nosym
 noorient
 geometry={
 O         -0.07179        0.79048        0.00000
 C          0.07053       -0.57065        0.00000
 H         -0.96431       -0.97345        0.00000
 H          0.55775       -0.96326        0.90880
 H          0.55775       -0.96326       -0.90880
 }
 basis={ default,svp }
 {ks,PBE0,direct;wf,17,1,1}
 {ibba,bonds=1}

 Variables initialized (895), CPU time= 0.00 sec
 Commands  initialized (725), CPU time= 0.01 sec, 591 directives.
 Default parameters read. Elapsed time= 1.03 sec

 Checking input...
 Passed
1


                                         ***  PROGRAM SYSTEM MOLPRO  ***
                                       Copyright, TTI GmbH Stuttgart, 2015
                                    Version 2099.9 linked May 26 2017 16:03:21


 **********************************************************************************************************************************
 LABEL *                                                                                 
  64 bit serial version                                                                  DATE: 08-Jun-17          TIME: 17:15:04  
 **********************************************************************************************************************************

 SHA1:             b4a5b34a9e711420743f49e6833241d17c61fb3c
 **********************************************************************************************************************************
 SETTING GEOMTYP        =    XYZ

 Variable memory set to  500000000 words,  buffer space 

 ZSYMEL=NOSYM

 SETTING BASIS          =    SVP


 Recomputing integrals since basis changed


 Using spherical harmonics

 Library entry O      S def2-SVP             selected for orbital group  1
 Library entry O      P def2-SVP             selected for orbital group  1
 Library entry O      D def2-SVP             selected for orbital group  1
 Library entry C      S def2-SVP             selected for orbital group  2
 Library entry C      P def2-SVP             selected for orbital group  2
 Library entry C      D def2-SVP             selected for orbital group  2
 Library entry H      S def2-SVP             selected for orbital group  3
 Library entry H      P def2-SVP             selected for orbital group  3


 PROGRAM * SEWARD (Integral evaluation for generally contracted gaussian basis sets)     Author: Roland Lindh, 1990

 Geometry written to block  1 of record 700


 Point group  C1  



 ATOMIC COORDINATES

 NR  ATOM    CHARGE       X              Y              Z

   1  O       8.00   -0.135663438    1.493790707    0.000000000
   2  C       6.00    0.133282384   -1.078372213    0.000000000
   3  H       1.00   -1.822281799   -1.839553896    0.000000000
   4  H       1.00    1.053994746   -1.820297587    1.717383102
   5  H       1.00    1.053994746   -1.820297587   -1.717383102

 Bond lengths in Bohr (Angstrom)

 1-2  2.586185210  2-3  2.098482506  2-4  2.085082548  2-5  2.085082548
     ( 1.368550276)     ( 1.110469120)     ( 1.103378167)     ( 1.103378167)

 Bond angles

  1-2-3  105.29875708   1-2-4  113.56671130   1-2-5  113.56671130   3-2-4  106.40524792

  3-2-5  106.40524792   4-2-5  110.90419060

 NUCLEAR CHARGE:                   17
 NUMBER OF PRIMITIVE AOS:          71
 NUMBER OF SYMMETRY AOS:           69
 NUMBER OF CONTRACTIONS:           43   (  43A   )
 NUMBER OF CORE ORBITALS:           2   (   2A   )
 NUMBER OF VALENCE ORBITALS:       11   (  11A   )


 NUCLEAR REPULSION ENERGY   34.28824494


 Eigenvalues of metric

         1 0.119E-01 0.382E-01 0.461E-01 0.536E-01 0.110E+00 0.137E+00 0.139E+00 0.243E+00


 Contracted 2-electron integrals neglected if value below      1.0D-11
 AO integral compression algorithm  1   Integral accuracy      1.0D-11

     2.359 MB (compressed) written to integral file ( 48.8%)


 NUMBER OF SORTED TWO-ELECTRON INTEGRALS:     447931.     BUFFER LENGTH:  32768
 NUMBER OF SEGMENTS:   1  SEGMENT LENGTH:     447931      RECORD LENGTH: 524288

 Memory used in sort:       1.00 MW

 SORT1 READ      553316. AND WROTE      366431. INTEGRALS IN      2 RECORDS. CPU TIME:     0.00 SEC, REAL TIME:     0.02 SEC
 SORT2 READ      366431. AND WROTE      447931. INTEGRALS IN      9 RECORDS. CPU TIME:     0.03 SEC, REAL TIME:     0.04 SEC

 FILE SIZES:   FILE 1:    32.4 MBYTE,  FILE 4:     8.4 MBYTE,   TOTAL:     40.9 MBYTE

 OPERATOR DM      FOR CENTER  0  COORDINATES:    0.000000    0.000000    0.000000


 **********************************************************************************************************************************
 DATASETS  * FILE   NREC   LENGTH (MB)   RECORD NAMES
              1      19       31.84       500      610      700      900      950      970     1000      129      960     1100   
                                          VAR    BASINP    GEOM    SYMINP    ZMAT    AOBASIS   BASIS     P2S    ABASIS      S 
                                         1400     1410     1200     1210     1080     1600     1650     1300     1700   
                                           T        V       H0       H01     AOSYM     SMH    MOLCAS    ERIS     OPER   

 PROGRAMS   *        TOTAL       INT
 CPU TIMES  *         0.45      0.30
 REAL TIME  *         1.93 SEC
 DISK USED  *        41.20 MB      
 **********************************************************************************************************************************

 Density functional group PBE0=PBEX+PBEC
 Functional: PBEX(Automatically generated (new) PBEX)                          Gradient terms: 1
 Functional: PBEC(Automatically generated (new) PBEC)                          Gradient terms: 1
 Use grid at  1800.2


 Exact exchange will be calculated, factor:  0.2500

 Functional: PBEX                      Factor:  0.7500
 Functional: PBEC                      Factor:  1.0000

 Generated new metagrid on record  1800.2 with target accuracy 1.0D-06 and 19990 points in CPU time    0.5
 Computed new grid on record 1800.1 in CPU time    0.5
   38039 words reserved for DFT integration

 PROGRAM * RKS-SCF (Restricted open shell Kohn-Sham)     Authors: W. Meyer, H.-J. Werner, P.J. Knowles, 1993

 NUMBER OF ELECTRONS:       9+    8-    SPACE SYMMETRY=1    SPIN SYMMETRY: Doublet 
 CONVERGENCE THRESHOLDS:    1.00E-05 (Density)    1.00E-06 (Energy)
 MAX. NUMBER OF ITERATIONS:       60
 INTERPOLATION TYPE:            DIIS
 INTERPOLATION STEPS:              2 (START)      1 (STEP)
 LEVEL SHIFTS:                 -0.60 (CLOSED) -0.30 (OPEN) 



 Use fine grid record 1800.2 for energy threshold  1.0D-06
 Orbital guess generated from atomic densities. Full valence occupancy:    9

 Molecular orbital dump at record        2100.2

 Initial alpha occupancy:   9
 Initial beta  occupancy:   8
 Wave function symmetry:    1

 ITERATION    DDIFF          GRAD             ENERGY        2-EL.EN.            DIPOLE MOMENTS         DIIS   ORB.
    1      0.000D+00      0.000D+00      -114.79377418    175.689425   -0.07033   -1.41249    0.00000    0    start
    2      0.000D+00      0.880D-02      -114.82227671    171.774352   -0.00931   -0.85896    0.00000    1    diag,B
    3      0.964D-02      0.416D-02      -114.82742419    172.661505   -0.01525   -0.91441    0.00000    2    diag,B
    4      0.322D-02      0.894D-03      -114.82863986    172.551478   -0.01481   -0.84169    0.00000    3    diag,B
    5      0.125D-02      0.600D-03      -114.82924034    172.526205   -0.01361   -0.80570    0.00000    4    diag,B
    6      0.111D-02      0.193D-03      -114.82933727    172.516832   -0.01270   -0.79139    0.00000    5    diag,B
    7      0.519D-03      0.584D-04      -114.82934361    172.515445   -0.01209   -0.79069    0.00000    6    fixocc
    8      0.140D-03      0.164D-04      -114.82934401    172.517302   -0.01192   -0.79130    0.00000    7    diag,B
    9      0.477D-04      0.437D-05      -114.82934405    172.517379   -0.01191   -0.79144    0.00000    8    diag,B
   10      0.166D-04      0.163D-05      -114.82934406    172.517447   -0.01191   -0.79145    0.00000    9    orth
   11      0.575D-05      0.672D-06      -114.82934406    172.517442   -0.01192   -0.79145    0.00000    0    orth

 Final alpha occupancy:   9
 Final beta  occupancy:   8

 !RKS STATE 1.1 Energy               -114.829344060553
 Nuclear energy                        34.28824494
 One-electron energy                 -224.05083668
 Two-electron energy                   86.25872082
 Density functional                   -11.32547313     PBEX=-14.37313149 PBEC= -0.54562452
 Virial quotient                       -1.00755797
 !RKS STATE 1.1 Dipole moment          -0.01192233    -0.79144778     0.00000000
 Dipole moment /Debye                  -0.03030156    -2.01152784     0.00000000

 Orbital energies:

         1.1          2.1          3.1          4.1          5.1          6.1          7.1          8.1          9.1         10.1
    -19.236818   -10.287639    -1.011113    -0.675169    -0.471138    -0.464648    -0.436493    -0.285624    -0.361603     0.078108

        11.1
      0.128792

 HOMO      9.1    -0.361603 =      -9.8397eV
 LUMO     10.1     0.078108 =       2.1254eV
 LUMO-HOMO         0.439711 =      11.9651eV


 **********************************************************************************************************************************
 DATASETS  * FILE   NREC   LENGTH (MB)   RECORD NAMES
              1      20       32.48       500      610      700      900      950      970     1000      129      960     1100   
                                          VAR    BASINP    GEOM    SYMINP    ZMAT    AOBASIS   BASIS     P2S    ABASIS      S 
                                         1400     1410     1200     1210     1080     1600     1650     1300     1700     1800   
                                           T        V       H0       H01     AOSYM     SMH    MOLCAS    ERIS     OPER     GRID   

              2       5        2.87       700     1000      520     1800     2100   
                                         GEOM     BASIS   MCVARS    GRID      RKS  

 PROGRAMS   *        TOTAL        KS       INT
 CPU TIMES  *         2.91      2.46      0.30
 REAL TIME  *         4.47 SEC
 DISK USED  *        41.20 MB      
 **********************************************************************************************************************************


 PROGRAM * Intrinsic Basis Bonding Analysis (IBBA)          Author: G. Knizia

 Molecular orbitals read from record     2100.2  Type=RKS/CANONICAL (state 1.1)
 Fock matrix read from record            2100.2  Type=RKS/TOTAL (state 1.1)
 Orbital energies read from record       2100.2  Type=RKS/CANONICAL (state 1.1)
 Density matrix read from record         2100.2  Type=RKS/CHARGE (state 1.1)

 Number of core orbitals:           2 (   2 )
 Number of closed-shell orbitals:   6 (   6 )
 Number of active  orbitals:        1 (   1 )

 Basis set MINAO-AUTO-PP generated.      Number of basis functions:   13 

 Polarized AO type:                A = (O Ot + (1-O)(1-Ot)) P12
 Orthogonalization method:         Symmetric (Loewdin)
 Localization functional:          L = sum[A,i] <i|n_A|i>^4 -> max

 Localization group 1:   8 orbitals, occupancy  2.000
 Iterative localization: IB/PM,    6 iter; Final gradient 0.47E-08

 Bond order analysis:       [THRPRINT= 0.020]

   CEN ATOM   CEN ATOM     WIBERG.BO      RENORM.BO
     1   O  -   2   C       1.193815       2.022157
     1   O  -   3   H       0.090314       0.654084
     1   O  -   4   H       0.050143       0.129265
     1   O  -   5   H       0.050143       0.129265

     2   C  -   1   O       1.193815       2.022157
     2   C  -   5   H       0.922628       0.940414
     2   C  -   4   H       0.922628       0.940414
     2   C  -   3   H       0.842411       0.997335

     3   H  -   2   C       0.842411       0.997335
     3   H  -   1   O       0.090314       0.654084

     4   H  -   2   C       0.922628       0.940414
     4   H  -   1   O       0.050143       0.129265

     5   H  -   2   C       0.922628       0.940414
     5   H  -   1   O       0.050143       0.129265


 Valency analysis:

   CEN ATOM   TOT.VALENCE
     1   O       1.384415
     2   C       3.881483
     3   H       0.944342
     4   H       0.979163
     5   H       0.979163
 Localization group 2:   1 orbitals, occupancy  1.000
 Iterative localization: IB/PM,    1 iter; Final gradient 0.00E+00

 Bond order analysis:       [THRPRINT= 0.020]

   CEN ATOM   CEN ATOM     WIBERG.BO      RENORM.BO
     1   O  -   3   H       0.107337       0.500000
     1   O  -   2   C       0.037029       0.500000
     1   O  -   4   H       0.022105       0.500000
     1   O  -   5   H       0.022105       0.500000

     2   C  -   1   O       0.037029       0.500000

     3   H  -   1   O       0.107337       0.500000

     4   H  -   1   O       0.022105       0.500000

     5   H  -   1   O       0.022105       0.500000


 Valency analysis:

   CEN ATOM   TOT.VALENCE
     1   O       0.188576
     2   C       0.040534
     3   H       0.112785
     4   H       0.024404
     5   H       0.024404

 Total charge composition:

   CEN ATOM         s          p       ELECTRONS ->P.CHARGE
     1   O       3.77038    4.48598      8.25636   -0.25636
     2   C       3.01324    3.17032      6.18356   -0.18356
     3   H       0.82407                 0.82407    0.17593
     4   H       0.86800                 0.86800    0.13200
     5   H       0.86800                 0.86800    0.13200

 Total charge composition, AO contributions:

   CEN ATOM SHL      SPHERICAL COMPONENTS
     1   O  1s       1.99810
     1   O  2s       1.77228
     1   O  2p       1.08111    1.46089    1.94398

     2   C  1s       1.99164
     2   C  2s       1.02161
     2   C  2p       1.15657    0.83751    1.17624

     3   H  1s       0.82407

     4   H  1s       0.86800

     5   H  1s       0.86800

 Active orbital charges:

   CEN ATOM         s          p       ELECTRONS ->SPIN.DEN
     1   O       0.00000    0.89460      0.89460    0.89460
     2   C       0.00000    0.02069      0.02070    0.02070
     3   H       0.05999                 0.05999    0.05999
     4   H       0.01235                 0.01235    0.01235
     5   H       0.01235                 0.01235    0.01235

 Active orbital charges, AO contributions:

   CEN ATOM SHL      SPHERICAL COMPONENTS
     1   O  1s       0.00000
     1   O  2s       0.00000
     1   O  2p       0.87886    0.01574    0.00000

     2   C  1s       0.00000
     2   C  2s       0.00000
     2   C  2p       0.02047    0.00022    0.00000

     3   H  1s       0.05999

     4   H  1s       0.01235

     5   H  1s       0.01235

 Summary of localized orbital composition:   [THRPRINT= 0.020]

   ORB  GRP  ORB.ENERGY      CENTERS/CHARGES
     1   1   -18.948107      O  1   2.000
     2   1   -10.177174      C  2   2.000
     3   1    -0.888000      O  1   1.995
     4   1    -0.863653      O  1   1.244   C  2   0.756
     5   1    -0.566999      C  2   1.109   H  3   0.759   O  1   0.129
     6   1    -0.552451      C  2   1.138   H  5   0.835   O  1   0.025
     7   1    -0.552451      C  2   1.138   H  4   0.835   O  1   0.025
     8   1    -0.319810      O  1   1.944   C  2   0.021   (other: 0.035)
     9   2    -0.235828      O  1   0.895   H  3   0.060   C  2   0.021   (other: 0.025)

 Localized orbitals saved to record      2100.2  (orbital set 2)


 **********************************************************************************************************************************
 DATASETS  * FILE   NREC   LENGTH (MB)   RECORD NAMES
              1      20       32.48       500      610      700      900      950      970     1000      129      960     1100   
                                          VAR    BASINP    GEOM    SYMINP    ZMAT    AOBASIS   BASIS     P2S    ABASIS      S 
                                         1400     1410     1200     1210     1080     1600     1650     1300     1700     1800   
                                           T        V       H0       H01     AOSYM     SMH    MOLCAS    ERIS     OPER     GRID   

              2       5        2.89       700     1000      520     1800     2100   
                                         GEOM     BASIS   MCVARS    GRID      RKS  

 PROGRAMS   *        TOTAL      IBBA        KS       INT
 CPU TIMES  *         2.94      0.03      2.46      0.30
 REAL TIME  *         4.54 SEC
 DISK USED  *        41.20 MB      
 **********************************************************************************************************************************
 Molecular orbitals read from record     2100.2  Type=RKS/LOCAL(IBO)  
 Occupation numbers read from record     2100.2  Type=RKS/LOCAL(IBO)  
 Orbital energies read from record       2100.2  Type=RKS/LOCAL(IBO)  
 Redundancy group numbers read from rec  2100.2  Type=RKS/LOCAL(IBO)  

 IBBA/SVP energy=      0.000000000000

        KS-SCF  
   -114.82934406
 **********************************************************************************************************************************
 Molpro calculation terminated
