
 Primary working directories    : /tmp/sb13343
 Secondary working directories  : /tmp/sb13343
 Wavefunction directory         : /panfs/panasas01/chem/sb13343/wfu/
 Main file repository           : /tmp/sb13343/

 SHA1      : b4a5b34a9e711420743f49e6833241d17c61fb3c
 NAME      : 2099.9.b4a5b34
 ARCHNAME  : linux/x86_64_openmp
 FC        : /cm/shared/languages/GCC-6.1/bin/gfortran
 BLASLIB   : -lblas
 id        : simonbennie

 Nodes     nprocs
 node33-005    1

 Using customized tuning parameters: mindgm=1; mindgv=20; mindgc=4; mindgr=1; noblas=0; minvec=7
 default implementation of scratch files=df  

 memory,500,m
 geomtyp=xyz
 nosym
 noorient
 geometry={
 O         -0.07179        0.79048        0.00000
 C          0.07053       -0.57065        0.00000
 H         -0.96431       -0.97345        0.00000
 H          0.55775       -0.96326        0.90880
 H          0.55775       -0.96326       -0.90880
 }
 basis={ default,svp }
 {uks,VS99,direct;wf,17,1,1}
 {ibba,bonds=1}

 Variables initialized (895), CPU time= 0.01 sec
 Commands  initialized (725), CPU time= 0.01 sec, 591 directives.
 Default parameters read. Elapsed time= 0.08 sec

 Checking input...
 Passed
1


                                         ***  PROGRAM SYSTEM MOLPRO  ***
                                       Copyright, TTI GmbH Stuttgart, 2015
                                    Version 2099.9 linked May 26 2017 16:03:21


 **********************************************************************************************************************************
 LABEL *                                                                                 
  64 bit serial version                                                                  DATE: 08-Jun-17          TIME: 16:59:31  
 **********************************************************************************************************************************

 SHA1:             b4a5b34a9e711420743f49e6833241d17c61fb3c
 **********************************************************************************************************************************
 SETTING GEOMTYP        =    XYZ

 Variable memory set to  500000000 words,  buffer space 

 ZSYMEL=NOSYM

 SETTING BASIS          =    SVP


 Recomputing integrals since basis changed


 Using spherical harmonics

 Library entry O      S def2-SVP             selected for orbital group  1
 Library entry O      P def2-SVP             selected for orbital group  1
 Library entry O      D def2-SVP             selected for orbital group  1
 Library entry C      S def2-SVP             selected for orbital group  2
 Library entry C      P def2-SVP             selected for orbital group  2
 Library entry C      D def2-SVP             selected for orbital group  2
 Library entry H      S def2-SVP             selected for orbital group  3
 Library entry H      P def2-SVP             selected for orbital group  3


 PROGRAM * SEWARD (Integral evaluation for generally contracted gaussian basis sets)     Author: Roland Lindh, 1990

 Geometry written to block  1 of record 700


 Point group  C1  



 ATOMIC COORDINATES

 NR  ATOM    CHARGE       X              Y              Z

   1  O       8.00   -0.135663438    1.493790707    0.000000000
   2  C       6.00    0.133282384   -1.078372213    0.000000000
   3  H       1.00   -1.822281799   -1.839553896    0.000000000
   4  H       1.00    1.053994746   -1.820297587    1.717383102
   5  H       1.00    1.053994746   -1.820297587   -1.717383102

 Bond lengths in Bohr (Angstrom)

 1-2  2.586185210  2-3  2.098482506  2-4  2.085082548  2-5  2.085082548
     ( 1.368550276)     ( 1.110469120)     ( 1.103378167)     ( 1.103378167)

 Bond angles

  1-2-3  105.29875708   1-2-4  113.56671130   1-2-5  113.56671130   3-2-4  106.40524792

  3-2-5  106.40524792   4-2-5  110.90419060

 NUCLEAR CHARGE:                   17
 NUMBER OF PRIMITIVE AOS:          71
 NUMBER OF SYMMETRY AOS:           69
 NUMBER OF CONTRACTIONS:           43   (  43A   )
 NUMBER OF CORE ORBITALS:           2   (   2A   )
 NUMBER OF VALENCE ORBITALS:       11   (  11A   )


 NUCLEAR REPULSION ENERGY   34.28824494


 Eigenvalues of metric

         1 0.119E-01 0.382E-01 0.461E-01 0.536E-01 0.110E+00 0.137E+00 0.139E+00 0.243E+00


 Contracted 2-electron integrals neglected if value below      1.0D-11
 AO integral compression algorithm  1   Integral accuracy      1.0D-11

     2.359 MB (compressed) written to integral file ( 48.8%)


 NUMBER OF SORTED TWO-ELECTRON INTEGRALS:     447931.     BUFFER LENGTH:  32768
 NUMBER OF SEGMENTS:   1  SEGMENT LENGTH:     447931      RECORD LENGTH: 524288

 Memory used in sort:       1.00 MW

 SORT1 READ      553316. AND WROTE      366431. INTEGRALS IN      2 RECORDS. CPU TIME:     0.01 SEC, REAL TIME:     0.01 SEC
 SORT2 READ      366431. AND WROTE      447931. INTEGRALS IN      9 RECORDS. CPU TIME:     0.03 SEC, REAL TIME:     0.04 SEC

 FILE SIZES:   FILE 1:    32.4 MBYTE,  FILE 4:     8.4 MBYTE,   TOTAL:     40.9 MBYTE

 OPERATOR DM      FOR CENTER  0  COORDINATES:    0.000000    0.000000    0.000000


 **********************************************************************************************************************************
 DATASETS  * FILE   NREC   LENGTH (MB)   RECORD NAMES
              1      19       31.84       500      610      700      900      950      970     1000      129      960     1100   
                                          VAR    BASINP    GEOM    SYMINP    ZMAT    AOBASIS   BASIS     P2S    ABASIS      S 
                                         1400     1410     1200     1210     1080     1600     1650     1300     1700   
                                           T        V       H0       H01     AOSYM     SMH    MOLCAS    ERIS     OPER   

 PROGRAMS   *        TOTAL       INT
 CPU TIMES  *         0.40      0.26
 REAL TIME  *         0.73 SEC
 DISK USED  *        41.20 MB      
 **********************************************************************************************************************************

 Density functional group VS99=VSXC
 Functional: VSXC(Automatically generated (new) VSXC)                          Gradient terms: 2
 Use grid at  1800.2

 Functional: VSXC                      Factor:  1.0000

 Generated new metagrid on record  1800.2 with target accuracy 1.0D-06 and 19990 points in CPU time    0.4
 Computed new grid on record 1800.1 in CPU time    0.5
   70805 words reserved for DFT integration

 PROGRAM * UKS-SCF (Unrestricted Kohn-Sham)     Authors: W. Meyer, H.-J. Werner, P.J. Knowles, 1993

 NUMBER OF ELECTRONS:       9+    8-    SPACE SYMMETRY=1    SPIN SYMMETRY: Doublet 
 CONVERGENCE THRESHOLDS:    1.00E-05 (Density)    1.00E-06 (Energy)
 MAX. NUMBER OF ITERATIONS:       60
 INTERPOLATION TYPE:            DIIS
 INTERPOLATION STEPS:              2 (START)      1 (STEP)
 LEVEL SHIFTS:                 -0.20 (ALPHA)  -0.20 (BETA) 



 Use fine grid record 1800.2 for energy threshold  1.0D-06
 Orbital guess generated from atomic densities. Full valence occupancy:    9

 Molecular orbital dump at record        2200.2

 Initial alpha occupation   9
 Initial beta  occupation   8

 ITERATION    DDIFF          GRAD             ENERGY        2-EL.EN.            DIPOLE MOMENTS         DIIS
    1      0.000D+00      0.000D+00      -114.52095908    183.121524   -0.06034   -1.24039    0.00000    0
    2      0.113D-01      0.564D-02      -114.55053916    178.659908   -0.02347   -0.86376    0.00000    1
    3      0.345D-02      0.261D-02      -114.55454311    179.742736   -0.02402   -0.91295    0.00000    2
    4      0.146D-02      0.672D-03      -114.55511023    179.604400   -0.02558   -0.85231    0.00000    3
    5      0.936D-03      0.395D-03      -114.55535160    179.598163   -0.02469   -0.83377    0.00000    4
    6      0.428D-03      0.139D-03      -114.55541811    179.587988   -0.02419   -0.81671    0.00000    5
    7      0.123D-03      0.498D-04      -114.55542441    179.586717   -0.02389   -0.81569    0.00000    6
    8      0.347D-04      0.729D-05      -114.55542464    179.586268   -0.02373   -0.81531    0.00000    7
    9      0.905D-05      0.175D-05      -114.55542466    179.586365   -0.02377   -0.81534    0.00000    7
   10      0.197D-05      0.593D-06      -114.55542466    179.586359   -0.02374   -0.81533    0.00000    7

 Final alpha occupancy:   9
 Final beta  occupancy:   8

 !UKS STATE 1.1 Energy               -114.555424656518
 Nuclear energy                        34.28824494
 One-electron energy                 -223.98796212
 Two-electron energy                   89.79317974
 Density functional                   -14.64888722     VSXC=-14.64888722
 Virial quotient                       -1.00588143
 !UKS STATE 1.1 Dipole moment          -0.02374475    -0.81532502     0.00000000
 Dipole moment /Debye                  -0.06034918    -2.07221376     0.00000000

 Orbital energies for positive spin:

         1.1          2.1          3.1          4.1          5.1          6.1          7.1          8.1          9.1         10.1
    -18.864320   -10.018554    -0.947528    -0.613576    -0.424600    -0.407917    -0.378389    -0.261454    -0.224970     0.060250

        11.1
      0.110645

 Orbital energies for negative spin:

         1.1          2.1          3.1          4.1          5.1          6.1          7.1          8.1          9.1         10.1
    -18.843508   -10.019177    -0.901821    -0.597463    -0.401535    -0.397046    -0.348762    -0.192848    -0.163329     0.064843

        11.1
      0.119808

 HOMO     -8.1    -0.192848 =      -5.2477eV
 LUMO     -9.1    -0.163329 =      -4.4444eV
 LUMO-HOMO         0.029519 =       0.8033eV

 EXPECTATION VALUE OF S**2:             0.75364918

 Occupation number threshold for canonical orbitals:  1.999000 (occupied),  0.001000 (virtual)

 Number of pseudo-canonical orbitals per symmetry:    8
 Number of active natural orbitals per symmetry:      1

 Natural orbitals saved to record    2200.2 (Orbital set 3)

 Orbital spaces for UNO-CAS (Min. occupation: 0.020  Max. occupation: 1.980):

 Closed:        8
 Active:        1


 **********************************************************************************************************************************
 DATASETS  * FILE   NREC   LENGTH (MB)   RECORD NAMES
              1      20       32.48       500      610      700      900      950      970     1000      129      960     1100   
                                          VAR    BASINP    GEOM    SYMINP    ZMAT    AOBASIS   BASIS     P2S    ABASIS      S 
                                         1400     1410     1200     1210     1080     1600     1650     1300     1700     1800   
                                           T        V       H0       H01     AOSYM     SMH    MOLCAS    ERIS     OPER     GRID   

              2       5        2.90       700     1000      520     1800     2200   
                                         GEOM     BASIS   MCVARS    GRID      UKS  

 PROGRAMS   *        TOTAL       UKS       INT
 CPU TIMES  *         7.37      6.97      0.26
 REAL TIME  *         8.10 SEC
 DISK USED  *        41.20 MB      
 **********************************************************************************************************************************


 PROGRAM * Intrinsic Basis Bonding Analysis (IBBA)          Author: G. Knizia

 Molecular orbitals read from record     2200.2  Type=UKS/ALPHA (state 1.1)
 Fock matrix read from record            2200.2  Type=UKS/TOTAL (state 1.1)
 Orbital energies read from record       2200.2  Type=UKS/ALPHA (state 1.1)
 Density matrix read from record         2200.2  Type=UKS/CHARGE (state 1.1)

 Number of core orbitals:           2 (   2 )
 Number of closed-shell orbitals:   6 (   6 )
 Number of active  orbitals:        1 (   1 )

 Basis set MINAO-AUTO-PP generated.      Number of basis functions:   13 

 Polarized AO type:                A = (O Ot + (1-O)(1-Ot)) P12
 Orthogonalization method:         Symmetric (Loewdin)
 Localization functional:          L = sum[A,i] <i|n_A|i>^4 -> max

 Localization group 1:   8 orbitals, occupancy  2.000
 Iterative localization: IB/PM,    6 iter; Final gradient 0.46E-08

 Bond order analysis:       [THRPRINT= 0.020]

   CEN ATOM   CEN ATOM     WIBERG.BO      RENORM.BO
     1   O  -   2   C       1.337171       2.018684
     1   O  -   5   H       0.110441       0.402774
     1   O  -   4   H       0.110441       0.402774
     1   O  -   3   H       0.033533       0.018644

     2   C  -   1   O       1.337171       2.018684
     2   C  -   3   H       0.959759       0.940459
     2   C  -   4   H       0.793582       0.979069
     2   C  -   5   H       0.793582       0.979069

     3   H  -   2   C       0.959759       0.940459
     3   H  -   1   O       0.033533       0.018644

     4   H  -   2   C       0.793582       0.979069
     4   H  -   1   O       0.110441       0.402774
     4   H  -   5   H       0.023170       0.043449

     5   H  -   2   C       0.793582       0.979069
     5   H  -   1   O       0.110441       0.402774
     5   H  -   4   H       0.023170       0.043449


 Valency analysis:

   CEN ATOM   TOT.VALENCE
     1   O       1.591586
     2   C       3.884094
     3   H       0.993380
     4   H       0.927237
     5   H       0.927237
 Localization group 2:   1 orbitals, occupancy  1.000
 Iterative localization: IB/PM,    1 iter; Final gradient 0.00E+00

 Bond order analysis:       [THRPRINT= 0.020]

   CEN ATOM   CEN ATOM     WIBERG.BO      RENORM.BO
     1   O  -   5   H       0.123473       0.500000
     1   O  -   4   H       0.123473       0.500000
     1   O  -   2   C       0.071669       0.500000

     2   C  -   1   O       0.071669       0.500000


     4   H  -   1   O       0.123473       0.500000

     5   H  -   1   O       0.123473       0.500000


 Valency analysis:

   CEN ATOM   TOT.VALENCE
     1   O       0.318616
     2   C       0.085456
     3   H       0.000000
     4   H       0.142244
     5   H       0.142244

 Total charge composition:

   CEN ATOM         s          p       ELECTRONS ->P.CHARGE
     1   O       3.78603    4.59300      8.37903   -0.37903
     2   C       3.01787    3.06984      6.08771   -0.08771
     3   H       0.91864                 0.91864    0.08136
     4   H       0.80731                 0.80731    0.19269
     5   H       0.80731                 0.80731    0.19269

 Total charge composition, AO contributions:

   CEN ATOM SHL      SPHERICAL COMPONENTS
     1   O  1s       1.99816
     1   O  2s       1.78788
     1   O  2p       1.94895    1.49547    1.14857

     2   C  1s       1.99169
     2   C  2s       1.02618
     2   C  2p       1.14471    0.80586    1.11927

     3   H  1s       0.91864

     4   H  1s       0.80731

     5   H  1s       0.80731

 Active orbital charges:

   CEN ATOM         s          p       ELECTRONS ->SPIN.DEN
     1   O       0.00000    0.80115      0.80115    0.80115
     2   C       0.00000    0.04473      0.04473    0.04473
     3   H       0.00000                 0.00000    0.00000
     4   H       0.07706                 0.07706    0.07706
     5   H       0.07706                 0.07706    0.07706

 Active orbital charges, AO contributions:

   CEN ATOM SHL      SPHERICAL COMPONENTS
     1   O  1s       0.00000
     1   O  2s       0.00000
     1   O  2p       0.00000    0.00000    0.80115

     2   C  1s       0.00000
     2   C  2s       0.00000
     2   C  2p       0.00000    0.00000    0.04473

     3   H  1s       0.00000

     4   H  1s       0.07706

     5   H  1s       0.07706

 Summary of localized orbital composition:   [THRPRINT= 0.020]

   ORB  GRP  ORB.ENERGY      CENTERS/CHARGES
     1   1   -18.566495      O  1   2.000
     2   1    -9.909980      C  2   2.000
     3   1    -0.800860      O  1   1.995
     4   1    -0.781942      O  1   1.279   C  2   0.721
     5   1    -0.498078      C  2   1.102   H  4   0.717   O  1   0.174
     6   1    -0.498078      C  2   1.102   H  5   0.717   O  1   0.174
     7   1    -0.487764      C  2   1.099   H  3   0.900
     8   1    -0.247224      O  1   1.956   (other: 0.044)
     9   2    -0.208989      O  1   0.801   H  5   0.077   H  4   0.077   C  2   0.045

 Localized orbitals saved to record      2200.2  (orbital set 4)


 **********************************************************************************************************************************
 DATASETS  * FILE   NREC   LENGTH (MB)   RECORD NAMES
              1      20       32.48       500      610      700      900      950      970     1000      129      960     1100   
                                          VAR    BASINP    GEOM    SYMINP    ZMAT    AOBASIS   BASIS     P2S    ABASIS      S 
                                         1400     1410     1200     1210     1080     1600     1650     1300     1700     1800   
                                           T        V       H0       H01     AOSYM     SMH    MOLCAS    ERIS     OPER     GRID   

              2       5        2.92       700     1000      520     1800     2200   
                                         GEOM     BASIS   MCVARS    GRID      UKS  

 PROGRAMS   *        TOTAL      IBBA       UKS       INT
 CPU TIMES  *         7.39      0.02      6.97      0.26
 REAL TIME  *         8.17 SEC
 DISK USED  *        41.20 MB      
 **********************************************************************************************************************************
 Molecular orbitals read from record     2200.2  Type=UKS/LOCAL(IBO)  
 Occupation numbers read from record     2200.2  Type=UKS/LOCAL(IBO)  
 Orbital energies read from record       2200.2  Type=UKS/LOCAL(IBO)  
 Redundancy group numbers read from rec  2200.2  Type=UKS/BETA (state 1.1)

 IBBA/SVP energy=      0.000000000000

        UKS-SCF 
   -114.55542466
 **********************************************************************************************************************************
 Molpro calculation terminated
