
 Primary working directories    : /tmp/sb13343
 Secondary working directories  : /tmp/sb13343
 Wavefunction directory         : /panfs/panasas01/chem/sb13343/wfu/
 Main file repository           : /tmp/sb13343/

 SHA1      : b4a5b34a9e711420743f49e6833241d17c61fb3c
 NAME      : 2099.9.b4a5b34
 ARCHNAME  : linux/x86_64_openmp
 FC        : /cm/shared/languages/GCC-6.1/bin/gfortran
 BLASLIB   : -lblas
 id        : simonbennie

 Nodes     nprocs
 node32-039    1

 Using customized tuning parameters: mindgm=1; mindgv=20; mindgc=4; mindgr=1; noblas=0; minvec=7
 default implementation of scratch files=df  

 memory,500,m
 geomtyp=xyz
 nosym
 noorient
 geometry={
 O         -0.07179        0.79048        0.00000
 C          0.07053       -0.57065        0.00000
 H         -0.96431       -0.97345        0.00000
 H          0.55775       -0.96326        0.90880
 H          0.55775       -0.96326       -0.90880
 }
 basis={ default,svp }
 {uks,M06-2X,direct;wf,17,1,1}
 {ibba,bonds=1}

 Variables initialized (895), CPU time= 0.00 sec
 Commands  initialized (725), CPU time= 0.01 sec, 591 directives.
 Default parameters read. Elapsed time= 0.07 sec

 Checking input...
 Passed
1


                                         ***  PROGRAM SYSTEM MOLPRO  ***
                                       Copyright, TTI GmbH Stuttgart, 2015
                                    Version 2099.9 linked May 26 2017 16:03:21


 **********************************************************************************************************************************
 LABEL *                                                                                 
  64 bit serial version                                                                  DATE: 08-Jun-17          TIME: 17:21:58  
 **********************************************************************************************************************************

 SHA1:             b4a5b34a9e711420743f49e6833241d17c61fb3c
 **********************************************************************************************************************************
 SETTING GEOMTYP        =    XYZ

 Variable memory set to  500000000 words,  buffer space 

 ZSYMEL=NOSYM

 SETTING BASIS          =    SVP


 Recomputing integrals since basis changed


 Using spherical harmonics

 Library entry O      S def2-SVP             selected for orbital group  1
 Library entry O      P def2-SVP             selected for orbital group  1
 Library entry O      D def2-SVP             selected for orbital group  1
 Library entry C      S def2-SVP             selected for orbital group  2
 Library entry C      P def2-SVP             selected for orbital group  2
 Library entry C      D def2-SVP             selected for orbital group  2
 Library entry H      S def2-SVP             selected for orbital group  3
 Library entry H      P def2-SVP             selected for orbital group  3


 PROGRAM * SEWARD (Integral evaluation for generally contracted gaussian basis sets)     Author: Roland Lindh, 1990

 Geometry written to block  1 of record 700


 Point group  C1  



 ATOMIC COORDINATES

 NR  ATOM    CHARGE       X              Y              Z

   1  O       8.00   -0.135663438    1.493790707    0.000000000
   2  C       6.00    0.133282384   -1.078372213    0.000000000
   3  H       1.00   -1.822281799   -1.839553896    0.000000000
   4  H       1.00    1.053994746   -1.820297587    1.717383102
   5  H       1.00    1.053994746   -1.820297587   -1.717383102

 Bond lengths in Bohr (Angstrom)

 1-2  2.586185210  2-3  2.098482506  2-4  2.085082548  2-5  2.085082548
     ( 1.368550276)     ( 1.110469120)     ( 1.103378167)     ( 1.103378167)

 Bond angles

  1-2-3  105.29875708   1-2-4  113.56671130   1-2-5  113.56671130   3-2-4  106.40524792

  3-2-5  106.40524792   4-2-5  110.90419060

 NUCLEAR CHARGE:                   17
 NUMBER OF PRIMITIVE AOS:          71
 NUMBER OF SYMMETRY AOS:           69
 NUMBER OF CONTRACTIONS:           43   (  43A   )
 NUMBER OF CORE ORBITALS:           2   (   2A   )
 NUMBER OF VALENCE ORBITALS:       11   (  11A   )


 NUCLEAR REPULSION ENERGY   34.28824494


 Eigenvalues of metric

         1 0.119E-01 0.382E-01 0.461E-01 0.536E-01 0.110E+00 0.137E+00 0.139E+00 0.243E+00


 Contracted 2-electron integrals neglected if value below      1.0D-11
 AO integral compression algorithm  1   Integral accuracy      1.0D-11

     2.359 MB (compressed) written to integral file ( 48.8%)


 NUMBER OF SORTED TWO-ELECTRON INTEGRALS:     447931.     BUFFER LENGTH:  32768
 NUMBER OF SEGMENTS:   1  SEGMENT LENGTH:     447931      RECORD LENGTH: 524288

 Memory used in sort:       1.00 MW

 SORT1 READ      553316. AND WROTE      366431. INTEGRALS IN      2 RECORDS. CPU TIME:     0.01 SEC, REAL TIME:     0.02 SEC
 SORT2 READ      366431. AND WROTE      447931. INTEGRALS IN      9 RECORDS. CPU TIME:     0.03 SEC, REAL TIME:     0.04 SEC

 FILE SIZES:   FILE 1:    32.4 MBYTE,  FILE 4:     8.4 MBYTE,   TOTAL:     40.9 MBYTE

 OPERATOR DM      FOR CENTER  0  COORDINATES:    0.000000    0.000000    0.000000


 **********************************************************************************************************************************
 DATASETS  * FILE   NREC   LENGTH (MB)   RECORD NAMES
              1      19       31.84       500      610      700      900      950      970     1000      129      960     1100   
                                          VAR    BASINP    GEOM    SYMINP    ZMAT    AOBASIS   BASIS     P2S    ABASIS      S 
                                         1400     1410     1200     1210     1080     1600     1650     1300     1700   
                                           T        V       H0       H01     AOSYM     SMH    MOLCAS    ERIS     OPER   

 PROGRAMS   *        TOTAL       INT
 CPU TIMES  *         0.41      0.27
 REAL TIME  *         0.75 SEC
 DISK USED  *        41.20 MB      
 **********************************************************************************************************************************

 Density functional group M06-2X=XC-M06-2X
 Functional: XC-M06-2X(via MFM 1.6)                                            Gradient terms: 1
 Use grid at  1800.2


 Exact exchange will be calculated, factor:  0.5400

 Functional: XC-M06-2X                 Factor:  1.0000

 Generated new metagrid on record  1800.2 with target accuracy 1.0D-06 and 19990 points in CPU time    0.5
 Computed new grid on record 1800.1 in CPU time    0.5
   38039 words reserved for DFT integration

 PROGRAM * UKS-SCF (Unrestricted Kohn-Sham)     Authors: W. Meyer, H.-J. Werner, P.J. Knowles, 1993

 NUMBER OF ELECTRONS:       9+    8-    SPACE SYMMETRY=1    SPIN SYMMETRY: Doublet 
 CONVERGENCE THRESHOLDS:    1.00E-05 (Density)    1.00E-06 (Energy)
 MAX. NUMBER OF ITERATIONS:       60
 INTERPOLATION TYPE:            DIIS
 INTERPOLATION STEPS:              2 (START)      1 (STEP)
 LEVEL SHIFTS:                 -0.20 (ALPHA)  -0.20 (BETA) 



 Use fine grid record 1800.2 for energy threshold  1.0D-06
 Orbital guess generated from atomic densities. Full valence occupancy:    9

 Molecular orbital dump at record        2200.2

 Initial alpha occupation   9
 Initial beta  occupation   8

 ITERATION    DDIFF          GRAD             ENERGY        2-EL.EN.            DIPOLE MOMENTS         DIIS
    1      0.000D+00      0.000D+00      -114.86048916    166.384815   -0.08293   -1.55629    0.00000    0
    2      0.815D-02      0.561D-02      -114.88793260    163.632808   -0.04270   -0.99253    0.00000    1
    3      0.299D-02      0.292D-02      -114.89436982    164.238533   -0.03265   -0.99747    0.00000    2
    4      0.147D-02      0.127D-02      -114.89808943    164.152476   -0.02412   -0.88796    0.00000    3
    5      0.147D-02      0.758D-03      -114.90011279    164.092357   -0.01456   -0.82211    0.00000    4
    6      0.853D-03      0.345D-03      -114.90055330    164.080138   -0.00944   -0.79820    0.00000    5
    7      0.266D-03      0.101D-03      -114.90058426    164.061462   -0.00844   -0.79495   -0.00000    6
    8      0.839D-04      0.286D-04      -114.90058715    164.066213   -0.00834   -0.79483    0.00000    7
    9      0.192D-04      0.109D-04      -114.90058760    164.065541   -0.00855   -0.79477    0.00000    8
   10      0.110D-04      0.503D-05      -114.90058770    164.065674   -0.00864   -0.79473    0.00000    7
   11      0.620D-05      0.250D-05      -114.90058773    164.065593   -0.00872   -0.79473    0.00000    7
   12      0.383D-05      0.115D-05      -114.90058773    164.065655   -0.00875   -0.79475   -0.00000    7

 Final alpha occupancy:   9
 Final beta  occupancy:   8

 !UKS STATE 1.1 Energy               -114.900587732131
 Nuclear energy                        34.28824494
 One-electron energy                 -224.00707546
 Two-electron energy                   82.03282768
 Density functional                    -7.21458489     XC-M06-2X=-7.21458489
 Virial quotient                       -1.00779590
 !UKS STATE 1.1 Dipole moment          -0.00875311    -0.79475004    -0.00000000
 Dipole moment /Debye                  -0.02224673    -2.01992080    -0.00000000

 Orbital energies for positive spin:

         1.1          2.1          3.1          4.1          5.1          6.1          7.1          8.1          9.1         10.1
    -19.669251   -10.606858    -1.131411    -0.754063    -0.560452    -0.536584    -0.510785    -0.398520    -0.363266     0.111152

        11.1
      0.164815

 Orbital energies for negative spin:

         1.1          2.1          3.1          4.1          5.1          6.1          7.1          8.1          9.1         10.1
    -19.652665   -10.607394    -1.069876    -0.733482    -0.527836    -0.500077    -0.482878    -0.336826    -0.058375     0.108156

        11.1
      0.167149

 HOMO     -8.1    -0.336826 =      -9.1655eV
 LUMO     -9.1    -0.058375 =      -1.5885eV
 LUMO-HOMO         0.278452 =       7.5771eV

 EXPECTATION VALUE OF S**2:             0.75309442

 Occupation number threshold for canonical orbitals:  1.999000 (occupied),  0.001000 (virtual)

 Number of pseudo-canonical orbitals per symmetry:    8
 Number of active natural orbitals per symmetry:      1

 Natural orbitals saved to record    2200.2 (Orbital set 3)

 Orbital spaces for UNO-CAS (Min. occupation: 0.020  Max. occupation: 1.980):

 Closed:        8
 Active:        1


 **********************************************************************************************************************************
 DATASETS  * FILE   NREC   LENGTH (MB)   RECORD NAMES
              1      20       32.48       500      610      700      900      950      970     1000      129      960     1100   
                                          VAR    BASINP    GEOM    SYMINP    ZMAT    AOBASIS   BASIS     P2S    ABASIS      S 
                                         1400     1410     1200     1210     1080     1600     1650     1300     1700     1800   
                                           T        V       H0       H01     AOSYM     SMH    MOLCAS    ERIS     OPER     GRID   

              2       5        2.90       700     1000      520     1800     2200   
                                         GEOM     BASIS   MCVARS    GRID      UKS  

 PROGRAMS   *        TOTAL       UKS       INT
 CPU TIMES  *         7.04      6.63      0.27
 REAL TIME  *         7.66 SEC
 DISK USED  *        41.20 MB      
 **********************************************************************************************************************************


 PROGRAM * Intrinsic Basis Bonding Analysis (IBBA)          Author: G. Knizia

 Molecular orbitals read from record     2200.2  Type=UKS/ALPHA (state 1.1)
 Fock matrix read from record            2200.2  Type=UKS/TOTAL (state 1.1)
 Orbital energies read from record       2200.2  Type=UKS/ALPHA (state 1.1)
 Density matrix read from record         2200.2  Type=UKS/CHARGE (state 1.1)

 Number of core orbitals:           2 (   2 )
 Number of closed-shell orbitals:   6 (   6 )
 Number of active  orbitals:        1 (   1 )

 Basis set MINAO-AUTO-PP generated.      Number of basis functions:   13 

 Polarized AO type:                A = (O Ot + (1-O)(1-Ot)) P12
 Orthogonalization method:         Symmetric (Loewdin)
 Localization functional:          L = sum[A,i] <i|n_A|i>^4 -> max

 Localization group 1:   8 orbitals, occupancy  2.000
 Iterative localization: IB/PM,    7 iter; Final gradient 0.34E-08

 Bond order analysis:       [THRPRINT= 0.020]

   CEN ATOM   CEN ATOM     WIBERG.BO      RENORM.BO
     1   O  -   2   C       1.483053       2.014464
     1   O  -   5   H       0.139586       0.358379
     1   O  -   4   H       0.139586       0.358379
     1   O  -   3   H       0.026258       0.014647

     2   C  -   1   O       1.483053       2.014464
     2   C  -   3   H       0.965165       0.953973
     2   C  -   4   H       0.723283       0.982231
     2   C  -   5   H       0.723283       0.982231

     3   H  -   2   C       0.965165       0.953973
     3   H  -   1   O       0.026258       0.014647

     4   H  -   2   C       0.723283       0.982231
     4   H  -   1   O       0.139586       0.358379
     4   H  -   5   H       0.041620       0.087047

     5   H  -   2   C       0.723283       0.982231
     5   H  -   1   O       0.139586       0.358379
     5   H  -   4   H       0.041620       0.087047


 Valency analysis:

   CEN ATOM   TOT.VALENCE
     1   O       1.788482
     2   C       3.894784
     3   H       0.992064
     4   H       0.904809
     5   H       0.904809
 Localization group 2:   1 orbitals, occupancy  1.000
 Iterative localization: IB/PM,    1 iter; Final gradient 0.00E+00

 Bond order analysis:       [THRPRINT= 0.020]

   CEN ATOM   CEN ATOM     WIBERG.BO      RENORM.BO
     1   O  -   5   H       0.137162       0.500000
     1   O  -   4   H       0.137162       0.500000
     1   O  -   2   C       0.134448       0.500000

     2   C  -   1   O       0.134448       0.500000


     4   H  -   1   O       0.137162       0.500000

     5   H  -   1   O       0.137162       0.500000


 Valency analysis:

   CEN ATOM   TOT.VALENCE
     1   O       0.408772
     2   C       0.170665
     3   H       0.000000
     4   H       0.173744
     5   H       0.173744

 Total charge composition:

   CEN ATOM         s          p       ELECTRONS ->P.CHARGE
     1   O       3.77610    4.71221      8.48831   -0.48831
     2   C       2.99668    3.02895      6.02563   -0.02563
     3   H       0.91091                 0.91091    0.08909
     4   H       0.78758                 0.78758    0.21242
     5   H       0.78758                 0.78758    0.21242

 Total charge composition, AO contributions:

   CEN ATOM SHL      SPHERICAL COMPONENTS
     1   O  1s       1.99801
     1   O  2s       1.77809
     1   O  2p       1.95893    1.49996    1.25331

     2   C  1s       1.99133
     2   C  2s       1.00534
     2   C  2p       1.15079    0.81114    1.06701

     3   H  1s       0.91091

     4   H  1s       0.78758

     5   H  1s       0.78758

 Active orbital charges:

   CEN ATOM         s          p       ELECTRONS ->SPIN.DEN
     1   O       0.00000    0.71357      0.71357    0.71357
     2   C       0.00000    0.09421      0.09421    0.09421
     3   H       0.00000                 0.00000    0.00000
     4   H       0.09611                 0.09611    0.09611
     5   H       0.09611                 0.09611    0.09611

 Active orbital charges, AO contributions:

   CEN ATOM SHL      SPHERICAL COMPONENTS
     1   O  1s       0.00000
     1   O  2s       0.00000
     1   O  2p       0.00000    0.00000    0.71357

     2   C  1s       0.00000
     2   C  2s       0.00000
     2   C  2p       0.00000    0.00000    0.09421

     3   H  1s       0.00000

     4   H  1s       0.09611

     5   H  1s       0.09611

 Summary of localized orbital composition:   [THRPRINT= 0.020]

   ORB  GRP  ORB.ENERGY      CENTERS/CHARGES
     1   1   -19.354501      O  1   2.000
     2   1   -10.495075      C  2   2.000
     3   1    -0.980856      O  1   1.996
     4   1    -0.939700      O  1   1.273   C  2   0.727
     5   1    -0.624583      C  2   1.043   H  4   0.672   O  1   0.270
     6   1    -0.624583      C  2   1.043   H  5   0.672   O  1   0.270
     7   1    -0.597704      C  2   1.103   H  3   0.896
     8   1    -0.273339      O  1   1.966   (other: 0.034)
     9   2    -0.350340      O  1   0.714   H  5   0.096   H  4   0.096   C  2   0.094

 Localized orbitals saved to record      2200.2  (orbital set 4)


 **********************************************************************************************************************************
 DATASETS  * FILE   NREC   LENGTH (MB)   RECORD NAMES
              1      20       32.48       500      610      700      900      950      970     1000      129      960     1100   
                                          VAR    BASINP    GEOM    SYMINP    ZMAT    AOBASIS   BASIS     P2S    ABASIS      S 
                                         1400     1410     1200     1210     1080     1600     1650     1300     1700     1800   
                                           T        V       H0       H01     AOSYM     SMH    MOLCAS    ERIS     OPER     GRID   

              2       5        2.92       700     1000      520     1800     2200   
                                         GEOM     BASIS   MCVARS    GRID      UKS  

 PROGRAMS   *        TOTAL      IBBA       UKS       INT
 CPU TIMES  *         7.07      0.03      6.63      0.27
 REAL TIME  *         7.74 SEC
 DISK USED  *        41.20 MB      
 **********************************************************************************************************************************
 Molecular orbitals read from record     2200.2  Type=UKS/LOCAL(IBO)  
 Occupation numbers read from record     2200.2  Type=UKS/LOCAL(IBO)  
 Orbital energies read from record       2200.2  Type=UKS/LOCAL(IBO)  
 Redundancy group numbers read from rec  2200.2  Type=UKS/BETA (state 1.1)

 IBBA/SVP energy=      0.000000000000

        UKS-SCF 
   -114.90058773
 **********************************************************************************************************************************
 Molpro calculation terminated
