
 Primary working directories    : /tmp/sb13343
 Secondary working directories  : /tmp/sb13343
 Wavefunction directory         : /panfs/panasas01/chem/sb13343/wfu/
 Main file repository           : /tmp/sb13343/

 SHA1      : b4a5b34a9e711420743f49e6833241d17c61fb3c
 NAME      : 2099.9.b4a5b34
 ARCHNAME  : linux/x86_64_openmp
 FC        : /cm/shared/languages/GCC-6.1/bin/gfortran
 BLASLIB   : -lblas
 id        : simonbennie

 Nodes     nprocs
 node32-039    1

 Using customized tuning parameters: mindgm=1; mindgv=20; mindgc=4; mindgr=1; noblas=0; minvec=7
 default implementation of scratch files=df  

 memory,500,m
 geomtyp=xyz
 nosym
 noorient
 geometry={
 O         -0.07179        0.79048        0.00000
 C          0.07053       -0.57065        0.00000
 H         -0.96431       -0.97345        0.00000
 H          0.55775       -0.96326        0.90880
 H          0.55775       -0.96326       -0.90880
 }
 basis={ default,svp }
 {ks,LYP88,direct;wf,17,1,1}
 {ibba,bonds=1}

 Variables initialized (895), CPU time= 0.01 sec
 Commands  initialized (725), CPU time= 0.01 sec, 591 directives.
 Default parameters read. Elapsed time= 0.07 sec

 Checking input...
 Passed
1


                                         ***  PROGRAM SYSTEM MOLPRO  ***
                                       Copyright, TTI GmbH Stuttgart, 2015
                                    Version 2099.9 linked May 26 2017 16:03:21


 **********************************************************************************************************************************
 LABEL *                                                                                 
  64 bit serial version                                                                  DATE: 08-Jun-17          TIME: 17:12:20  
 **********************************************************************************************************************************

 SHA1:             b4a5b34a9e711420743f49e6833241d17c61fb3c
 **********************************************************************************************************************************
 SETTING GEOMTYP        =    XYZ

 Variable memory set to  500000000 words,  buffer space 

 ZSYMEL=NOSYM

 SETTING BASIS          =    SVP


 Recomputing integrals since basis changed


 Using spherical harmonics

 Library entry O      S def2-SVP             selected for orbital group  1
 Library entry O      P def2-SVP             selected for orbital group  1
 Library entry O      D def2-SVP             selected for orbital group  1
 Library entry C      S def2-SVP             selected for orbital group  2
 Library entry C      P def2-SVP             selected for orbital group  2
 Library entry C      D def2-SVP             selected for orbital group  2
 Library entry H      S def2-SVP             selected for orbital group  3
 Library entry H      P def2-SVP             selected for orbital group  3


 PROGRAM * SEWARD (Integral evaluation for generally contracted gaussian basis sets)     Author: Roland Lindh, 1990

 Geometry written to block  1 of record 700


 Point group  C1  



 ATOMIC COORDINATES

 NR  ATOM    CHARGE       X              Y              Z

   1  O       8.00   -0.135663438    1.493790707    0.000000000
   2  C       6.00    0.133282384   -1.078372213    0.000000000
   3  H       1.00   -1.822281799   -1.839553896    0.000000000
   4  H       1.00    1.053994746   -1.820297587    1.717383102
   5  H       1.00    1.053994746   -1.820297587   -1.717383102

 Bond lengths in Bohr (Angstrom)

 1-2  2.586185210  2-3  2.098482506  2-4  2.085082548  2-5  2.085082548
     ( 1.368550276)     ( 1.110469120)     ( 1.103378167)     ( 1.103378167)

 Bond angles

  1-2-3  105.29875708   1-2-4  113.56671130   1-2-5  113.56671130   3-2-4  106.40524792

  3-2-5  106.40524792   4-2-5  110.90419060

 NUCLEAR CHARGE:                   17
 NUMBER OF PRIMITIVE AOS:          71
 NUMBER OF SYMMETRY AOS:           69
 NUMBER OF CONTRACTIONS:           43   (  43A   )
 NUMBER OF CORE ORBITALS:           2   (   2A   )
 NUMBER OF VALENCE ORBITALS:       11   (  11A   )


 NUCLEAR REPULSION ENERGY   34.28824494


 Eigenvalues of metric

         1 0.119E-01 0.382E-01 0.461E-01 0.536E-01 0.110E+00 0.137E+00 0.139E+00 0.243E+00


 Contracted 2-electron integrals neglected if value below      1.0D-11
 AO integral compression algorithm  1   Integral accuracy      1.0D-11

     2.359 MB (compressed) written to integral file ( 48.8%)


 NUMBER OF SORTED TWO-ELECTRON INTEGRALS:     447931.     BUFFER LENGTH:  32768
 NUMBER OF SEGMENTS:   1  SEGMENT LENGTH:     447931      RECORD LENGTH: 524288

 Memory used in sort:       1.00 MW

 SORT1 READ      553316. AND WROTE      366431. INTEGRALS IN      2 RECORDS. CPU TIME:     0.01 SEC, REAL TIME:     0.02 SEC
 SORT2 READ      366431. AND WROTE      447931. INTEGRALS IN      9 RECORDS. CPU TIME:     0.03 SEC, REAL TIME:     0.04 SEC

 FILE SIZES:   FILE 1:    32.4 MBYTE,  FILE 4:     8.4 MBYTE,   TOTAL:     40.9 MBYTE

 OPERATOR DM      FOR CENTER  0  COORDINATES:    0.000000    0.000000    0.000000


 **********************************************************************************************************************************
 DATASETS  * FILE   NREC   LENGTH (MB)   RECORD NAMES
              1      19       31.84       500      610      700      900      950      970     1000      129      960     1100   
                                          VAR    BASINP    GEOM    SYMINP    ZMAT    AOBASIS   BASIS     P2S    ABASIS      S 
                                         1400     1410     1200     1210     1080     1600     1650     1300     1700   
                                           T        V       H0       H01     AOSYM     SMH    MOLCAS    ERIS     OPER   

 PROGRAMS   *        TOTAL       INT
 CPU TIMES  *         0.42      0.28
 REAL TIME  *         0.75 SEC
 DISK USED  *        41.20 MB      
 **********************************************************************************************************************************

 Density functional group LYP88=LYP
 Functional: LYP(Automatically generated (new) LYP)                            Gradient terms: 1
 Use grid at  1800.2

 Functional: LYP                       Factor:  1.0000

 Generated new metagrid on record  1800.2 with target accuracy 1.0D-06 and 19990 points in CPU time    0.5
 Computed new grid on record 1800.1 in CPU time    0.5
   38039 words reserved for DFT integration

 PROGRAM * RKS-SCF (Restricted open shell Kohn-Sham)     Authors: W. Meyer, H.-J. Werner, P.J. Knowles, 1993

 NUMBER OF ELECTRONS:       9+    8-    SPACE SYMMETRY=1    SPIN SYMMETRY: Doublet 
 CONVERGENCE THRESHOLDS:    1.00E-05 (Density)    1.00E-06 (Energy)
 MAX. NUMBER OF ITERATIONS:       60
 INTERPOLATION TYPE:            DIIS
 INTERPOLATION STEPS:              2 (START)      1 (STEP)
 LEVEL SHIFTS:                 -0.60 (CLOSED) -0.30 (OPEN) 



 Use fine grid record 1800.2 for energy threshold  1.0D-06
 Orbital guess generated from atomic densities. Full valence occupancy:    9

 Molecular orbital dump at record        2100.2

 Initial alpha occupancy:   9
 Initial beta  occupancy:   8
 Wave function symmetry:    1

 ITERATION    DDIFF          GRAD             ENERGY        2-EL.EN.            DIPOLE MOMENTS         DIIS   ORB.
    1      0.000D+00      0.000D+00       -98.72936938    144.417450   -0.80385    8.17056    0.00000    0    start
    2      0.000D+00      0.638D-01       -97.19577573    200.139760    0.22640   -5.40554    0.00000    1    diag,B
    3      0.910D+00      0.116D+00      -100.54555699    177.618642   -0.06833   -2.18549    0.00000    2    diag,B
    4      0.556D-01      0.340D-01      -100.82095322    170.864088   -0.11084   -1.05609    0.00000    3    diag,B
    5      0.187D-01      0.131D-01      -100.86459895    169.471844   -0.14959   -0.51617    0.00000    4    diag,B
    6      0.994D-02      0.444D-02      -100.87216196    167.969630   -0.16806   -0.15768    0.00000    5    diag,B
    7      0.915D-02      0.561D-03      -100.87248209    167.904611   -0.17049   -0.11148    0.00000    6    fixocc
    8      0.299D-02      0.325D-03      -100.87258650    167.920413   -0.17347   -0.10484    0.00000    7    diag,B
    9      0.181D-02      0.897D-04      -100.87260098    167.925817   -0.17462   -0.10248    0.00000    8    diag,B
   10      0.753D-03      0.417D-04      -100.87260329    167.923176   -0.17544   -0.10264    0.00000    9    orth
   11      0.288D-03      0.152D-04      -100.87260363    167.921618   -0.17532   -0.10241    0.00000    9    diag,B
   12      0.102D-03      0.610D-05      -100.87260370    167.920829   -0.17532   -0.10222    0.00000    9    diag,B
   13      0.546D-04      0.198D-05      -100.87260371    167.920935   -0.17524   -0.10230    0.00000    9    diag,B
   14      0.172D-04      0.720D-06      -100.87260371    167.920942   -0.17521   -0.10231    0.00000    9    diag,B
   15      0.655D-05      0.281D-06      -100.87260371    167.920929   -0.17521   -0.10231    0.00000    0    orth

 Final alpha occupancy:   9
 Final beta  occupancy:   8

 !RKS STATE 1.1 Energy               -100.872603714650
 Nuclear energy                        34.28824494
 One-electron energy                 -218.57687897
 Two-electron energy                   83.96046432
 Density functional                    -0.54443400     LYP=-0.54443400
 Virial quotient                       -0.93989757
 !RKS STATE 1.1 Dipole moment          -0.17520561    -0.10230805     0.00000000
 Dipole moment /Debye                  -0.44529907    -0.26002410     0.00000000

 Orbital energies:

         1.1          2.1          3.1          4.1          5.1          6.1          7.1          8.1          9.1         10.1
    -16.583896    -8.248230    -0.513477    -0.246287    -0.120363    -0.104899    -0.023912     0.120798     0.093945     0.208578

        11.1
      0.277883

 HOMO      9.1     0.093945 =       2.5564eV
 LUMO     10.1     0.208578 =       5.6757eV
 LUMO-HOMO         0.114633 =       3.1193eV


 **********************************************************************************************************************************
 DATASETS  * FILE   NREC   LENGTH (MB)   RECORD NAMES
              1      20       32.48       500      610      700      900      950      970     1000      129      960     1100   
                                          VAR    BASINP    GEOM    SYMINP    ZMAT    AOBASIS   BASIS     P2S    ABASIS      S 
                                         1400     1410     1200     1210     1080     1600     1650     1300     1700     1800   
                                           T        V       H0       H01     AOSYM     SMH    MOLCAS    ERIS     OPER     GRID   

              2       5        2.87       700     1000      520     1800     2100   
                                         GEOM     BASIS   MCVARS    GRID      RKS  

 PROGRAMS   *        TOTAL        KS       INT
 CPU TIMES  *         3.11      2.69      0.28
 REAL TIME  *         3.52 SEC
 DISK USED  *        41.20 MB      
 **********************************************************************************************************************************


 PROGRAM * Intrinsic Basis Bonding Analysis (IBBA)          Author: G. Knizia

 Molecular orbitals read from record     2100.2  Type=RKS/CANONICAL (state 1.1)
 Fock matrix read from record            2100.2  Type=RKS/TOTAL (state 1.1)
 Orbital energies read from record       2100.2  Type=RKS/CANONICAL (state 1.1)
 Density matrix read from record         2100.2  Type=RKS/CHARGE (state 1.1)

 Number of core orbitals:           2 (   2 )
 Number of closed-shell orbitals:   6 (   6 )
 Number of active  orbitals:        1 (   1 )

 Basis set MINAO-AUTO-PP generated.      Number of basis functions:   13 

 Polarized AO type:                A = (O Ot + (1-O)(1-Ot)) P12
 Orthogonalization method:         Symmetric (Loewdin)
 Localization functional:          L = sum[A,i] <i|n_A|i>^4 -> max

 Localization group 1:   8 orbitals, occupancy  2.000
 Iterative localization: IB/PM,    7 iter; Final gradient 0.30E-08

 Bond order analysis:       [THRPRINT= 0.020]

   CEN ATOM   CEN ATOM     WIBERG.BO      RENORM.BO
     1   O  -   2   C       1.511335       2.075368
     1   O  -   3   H       0.154443       0.538715
     1   O  -   4   H       0.115916       0.141990
     1   O  -   5   H       0.115916       0.141990

     2   C  -   1   O       1.511335       2.075368
     2   C  -   5   H       0.852107       0.842059
     2   C  -   4   H       0.852107       0.842059
     2   C  -   3   H       0.741910       0.991823

     3   H  -   2   C       0.741910       0.991823
     3   H  -   1   O       0.154443       0.538715
     3   H  -   4   H       0.025392       0.034035
     3   H  -   5   H       0.025392       0.034035

     4   H  -   2   C       0.852107       0.842059
     4   H  -   1   O       0.115916       0.141990
     4   H  -   3   H       0.025392       0.034035

     5   H  -   2   C       0.852107       0.842059
     5   H  -   1   O       0.115916       0.141990
     5   H  -   3   H       0.025392       0.034035


 Valency analysis:

   CEN ATOM   TOT.VALENCE
     1   O       1.897610
     2   C       3.957458
     3   H       0.947137
     4   H       0.999027
     5   H       0.999027
 Localization group 2:   1 orbitals, occupancy  1.000
 Iterative localization: IB/PM,    1 iter; Final gradient 0.00E+00

 Bond order analysis:       [THRPRINT= 0.020]

   CEN ATOM   CEN ATOM     WIBERG.BO      RENORM.BO
     1   O  -   3   H       0.222719       0.500000
     1   O  -   4   H       0.050917       0.500000
     1   O  -   5   H       0.050917       0.500000
     1   O  -   2   C       0.043249       0.500000

     2   C  -   1   O       0.043249       0.500000

     3   H  -   1   O       0.222719       0.500000

     4   H  -   1   O       0.050917       0.500000

     5   H  -   1   O       0.050917       0.500000


 Valency analysis:

   CEN ATOM   TOT.VALENCE
     1   O       0.367801
     2   C       0.055494
     3   H       0.250905
     4   H       0.064991
     5   H       0.064991

 Total charge composition:

   CEN ATOM         s          p       ELECTRONS ->P.CHARGE
     1   O       3.69858    4.39532      8.09390   -0.09390
     2   C       2.89011    3.09396      5.98408    0.01592
     3   H       0.91717                 0.91717    0.08283
     4   H       1.00243                 1.00243   -0.00243
     5   H       1.00243                 1.00243   -0.00243

 Total charge composition, AO contributions:

   CEN ATOM SHL      SPHERICAL COMPONENTS
     1   O  1s       1.99931
     1   O  2s       1.69927
     1   O  2p       1.12847    1.43014    1.83671

     2   C  1s       1.99807
     2   C  2s       0.89204
     2   C  2p       1.06242    0.91197    1.11957

     3   H  1s       0.91717

     4   H  1s       1.00243

     5   H  1s       1.00243

 Active orbital charges:

   CEN ATOM         s          p       ELECTRONS ->SPIN.DEN
     1   O       0.00006    0.75704      0.75710    0.75710
     2   C       0.00017    0.02839      0.02856    0.02856
     3   H       0.14709                 0.14709    0.14709
     4   H       0.03363                 0.03363    0.03363
     5   H       0.03363                 0.03363    0.03363

 Active orbital charges, AO contributions:

   CEN ATOM SHL      SPHERICAL COMPONENTS
     1   O  1s       0.00000
     1   O  2s       0.00006
     1   O  2p       0.74501    0.01203    0.00000

     2   C  1s       0.00000
     2   C  2s       0.00017
     2   C  2p       0.02837    0.00002    0.00000

     3   H  1s       0.14709

     4   H  1s       0.03363

     5   H  1s       0.03363

 Summary of localized orbital composition:   [THRPRINT= 0.020]

   ORB  GRP  ORB.ENERGY      CENTERS/CHARGES
     1   1   -16.433081      O  1   2.000
     2   1    -8.171977      C  2   2.000
     3   1    -0.422861      O  1   1.143   C  2   0.856
     4   1    -0.262062      O  1   1.990
     5   1    -0.188405      C  2   0.989   H  3   0.741   O  1   0.264
     6   1    -0.166272      C  2   1.016   H  5   0.919   O  1   0.052
     7   1    -0.166272      C  2   1.016   H  4   0.919   O  1   0.052
     8   1     0.090661      O  1   1.837   C  2   0.075   H  4   0.044   H  5   0.044
     9   2     0.086936      O  1   0.757   H  3   0.147   H  4   0.034   H  5   0.034   C  2   0.029

 Localized orbitals saved to record      2100.2  (orbital set 2)


 **********************************************************************************************************************************
 DATASETS  * FILE   NREC   LENGTH (MB)   RECORD NAMES
              1      20       32.48       500      610      700      900      950      970     1000      129      960     1100   
                                          VAR    BASINP    GEOM    SYMINP    ZMAT    AOBASIS   BASIS     P2S    ABASIS      S 
                                         1400     1410     1200     1210     1080     1600     1650     1300     1700     1800   
                                           T        V       H0       H01     AOSYM     SMH    MOLCAS    ERIS     OPER     GRID   

              2       5        2.89       700     1000      520     1800     2100   
                                         GEOM     BASIS   MCVARS    GRID      RKS  

 PROGRAMS   *        TOTAL      IBBA        KS       INT
 CPU TIMES  *         3.14      0.03      2.69      0.28
 REAL TIME  *         3.58 SEC
 DISK USED  *        41.20 MB      
 **********************************************************************************************************************************
 Molecular orbitals read from record     2100.2  Type=RKS/LOCAL(IBO)  
 Occupation numbers read from record     2100.2  Type=RKS/LOCAL(IBO)  
 Orbital energies read from record       2100.2  Type=RKS/LOCAL(IBO)  
 Redundancy group numbers read from rec  2100.2  Type=RKS/LOCAL(IBO)  

 IBBA/SVP energy=      0.000000000000

        KS-SCF  
   -100.87260371
 **********************************************************************************************************************************
 Molpro calculation terminated
