
 Primary working directories    : /tmp/sb13343
 Secondary working directories  : /tmp/sb13343
 Wavefunction directory         : /panfs/panasas01/chem/sb13343/wfu/
 Main file repository           : /tmp/sb13343/

 SHA1      : b4a5b34a9e711420743f49e6833241d17c61fb3c
 NAME      : 2099.9.b4a5b34
 ARCHNAME  : linux/x86_64_openmp
 FC        : /cm/shared/languages/GCC-6.1/bin/gfortran
 BLASLIB   : -lblas
 id        : simonbennie

 Nodes     nprocs
 node32-008    1

 Using customized tuning parameters: mindgm=1; mindgv=20; mindgc=4; mindgr=1; noblas=0; minvec=7
 default implementation of scratch files=df  

 memory,500,m
 geomtyp=xyz
 nosym
 noorient
 geometry={
 O         -0.07179        0.79048        0.00000
 C          0.07053       -0.57065        0.00000
 H         -0.96431       -0.97345        0.00000
 H          0.55775       -0.96326        0.90880
 H          0.55775       -0.96326       -0.90880
 }
 basis={ default,svp }
 {ks,LSDAC,direct;wf,17,1,1}
 {ibba,bonds=1}

 Variables initialized (895), CPU time= 0.00 sec
 Commands  initialized (725), CPU time= 0.02 sec, 591 directives.
 Default parameters read. Elapsed time= 0.08 sec

 Checking input...
 Passed
1


                                         ***  PROGRAM SYSTEM MOLPRO  ***
                                       Copyright, TTI GmbH Stuttgart, 2015
                                    Version 2099.9 linked May 26 2017 16:03:21


 **********************************************************************************************************************************
 LABEL *                                                                                 
  64 bit serial version                                                                  DATE: 08-Jun-17          TIME: 17:11:48  
 **********************************************************************************************************************************

 SHA1:             b4a5b34a9e711420743f49e6833241d17c61fb3c
 **********************************************************************************************************************************
 SETTING GEOMTYP        =    XYZ

 Variable memory set to  500000000 words,  buffer space 

 ZSYMEL=NOSYM

 SETTING BASIS          =    SVP


 Recomputing integrals since basis changed


 Using spherical harmonics

 Library entry O      S def2-SVP             selected for orbital group  1
 Library entry O      P def2-SVP             selected for orbital group  1
 Library entry O      D def2-SVP             selected for orbital group  1
 Library entry C      S def2-SVP             selected for orbital group  2
 Library entry C      P def2-SVP             selected for orbital group  2
 Library entry C      D def2-SVP             selected for orbital group  2
 Library entry H      S def2-SVP             selected for orbital group  3
 Library entry H      P def2-SVP             selected for orbital group  3


 PROGRAM * SEWARD (Integral evaluation for generally contracted gaussian basis sets)     Author: Roland Lindh, 1990

 Geometry written to block  1 of record 700


 Point group  C1  



 ATOMIC COORDINATES

 NR  ATOM    CHARGE       X              Y              Z

   1  O       8.00   -0.135663438    1.493790707    0.000000000
   2  C       6.00    0.133282384   -1.078372213    0.000000000
   3  H       1.00   -1.822281799   -1.839553896    0.000000000
   4  H       1.00    1.053994746   -1.820297587    1.717383102
   5  H       1.00    1.053994746   -1.820297587   -1.717383102

 Bond lengths in Bohr (Angstrom)

 1-2  2.586185210  2-3  2.098482506  2-4  2.085082548  2-5  2.085082548
     ( 1.368550276)     ( 1.110469120)     ( 1.103378167)     ( 1.103378167)

 Bond angles

  1-2-3  105.29875708   1-2-4  113.56671130   1-2-5  113.56671130   3-2-4  106.40524792

  3-2-5  106.40524792   4-2-5  110.90419060

 NUCLEAR CHARGE:                   17
 NUMBER OF PRIMITIVE AOS:          71
 NUMBER OF SYMMETRY AOS:           69
 NUMBER OF CONTRACTIONS:           43   (  43A   )
 NUMBER OF CORE ORBITALS:           2   (   2A   )
 NUMBER OF VALENCE ORBITALS:       11   (  11A   )


 NUCLEAR REPULSION ENERGY   34.28824494


 Eigenvalues of metric

         1 0.119E-01 0.382E-01 0.461E-01 0.536E-01 0.110E+00 0.137E+00 0.139E+00 0.243E+00


 Contracted 2-electron integrals neglected if value below      1.0D-11
 AO integral compression algorithm  1   Integral accuracy      1.0D-11

     2.359 MB (compressed) written to integral file ( 48.8%)


 NUMBER OF SORTED TWO-ELECTRON INTEGRALS:     447931.     BUFFER LENGTH:  32768
 NUMBER OF SEGMENTS:   1  SEGMENT LENGTH:     447931      RECORD LENGTH: 524288

 Memory used in sort:       1.00 MW

 SORT1 READ      553316. AND WROTE      366431. INTEGRALS IN      2 RECORDS. CPU TIME:     0.01 SEC, REAL TIME:     0.01 SEC
 SORT2 READ      366431. AND WROTE      447931. INTEGRALS IN      9 RECORDS. CPU TIME:     0.03 SEC, REAL TIME:     0.03 SEC

 FILE SIZES:   FILE 1:    32.4 MBYTE,  FILE 4:     8.4 MBYTE,   TOTAL:     40.9 MBYTE

 OPERATOR DM      FOR CENTER  0  COORDINATES:    0.000000    0.000000    0.000000


 **********************************************************************************************************************************
 DATASETS  * FILE   NREC   LENGTH (MB)   RECORD NAMES
              1      19       31.84       500      610      700      900      950      970     1000      129      960     1100   
                                          VAR    BASINP    GEOM    SYMINP    ZMAT    AOBASIS   BASIS     P2S    ABASIS      S 
                                         1400     1410     1200     1210     1080     1600     1650     1300     1700   
                                           T        V       H0       H01     AOSYM     SMH    MOLCAS    ERIS     OPER   

 PROGRAMS   *        TOTAL       INT
 CPU TIMES  *         0.53      0.39
 REAL TIME  *         1.02 SEC
 DISK USED  *        41.20 MB      
 **********************************************************************************************************************************

 Density functional group LSDAC=PW92C
 Functional: PW92C(Automatically generated (new) PW92C)                        Gradient terms: 0
 Use grid at  1800.2

 Functional: PW92C                     Factor:  1.0000

 Generated new metagrid on record  1800.2 with target accuracy 1.0D-06 and 19990 points in CPU time    0.4
 Computed new grid on record 1800.1 in CPU time    0.5
   21656 words reserved for DFT integration

 PROGRAM * RKS-SCF (Restricted open shell Kohn-Sham)     Authors: W. Meyer, H.-J. Werner, P.J. Knowles, 1993

 NUMBER OF ELECTRONS:       9+    8-    SPACE SYMMETRY=1    SPIN SYMMETRY: Doublet 
 CONVERGENCE THRESHOLDS:    1.00E-05 (Density)    1.00E-06 (Energy)
 MAX. NUMBER OF ITERATIONS:       60
 INTERPOLATION TYPE:            DIIS
 INTERPOLATION STEPS:              2 (START)      1 (STEP)
 LEVEL SHIFTS:                 -0.60 (CLOSED) -0.30 (OPEN) 



 Use fine grid record 1800.2 for energy threshold  1.0D-06
 Orbital guess generated from atomic densities. Full valence occupancy:    9

 Molecular orbital dump at record        2100.2

 Initial alpha occupancy:   9
 Initial beta  occupancy:   8
 Wave function symmetry:    1

 ITERATION    DDIFF          GRAD             ENERGY        2-EL.EN.            DIPOLE MOMENTS         DIIS   ORB.
    1      0.000D+00      0.000D+00       -99.31657072    145.102327   -0.75754    8.00355   -0.00000    0    start
    2      0.000D+00      0.625D-01       -97.85675761    199.555572    0.20702   -5.32843    0.00000    1    diag,B
    3      0.894D+00      0.113D+00      -101.07798517    177.576754   -0.06719   -2.15877    0.00000    2    diag,B
    4      0.542D-01      0.332D-01      -101.34141761    170.994313   -0.11016   -1.06054    0.00000    3    diag,B
    5      0.178D-01      0.127D-01      -101.38251666    169.640389   -0.14571   -0.53937   -0.00000    4    diag,B
    6      0.941D-02      0.433D-02      -101.38979147    168.187995   -0.16317   -0.18399   -0.00000    5    diag,B
    7      0.883D-02      0.545D-03      -101.39009576    168.121952   -0.16522   -0.13801   -0.00000    6    fixocc
    8      0.294D-02      0.308D-03      -101.39019156    168.134390   -0.16756   -0.13018    0.00000    7    diag,B
    9      0.179D-02      0.844D-04      -101.39020429    168.137724   -0.16854   -0.12741    0.00000    8    diag,B
   10      0.715D-03      0.385D-04      -101.39020621    168.134799   -0.16931   -0.12740    0.00000    9    orth
   11      0.256D-03      0.138D-04      -101.39020648    168.133182   -0.16926   -0.12708   -0.00000    9    diag,B
   12      0.915D-04      0.526D-05      -101.39020654    168.132311   -0.16928   -0.12685    0.00000    9    diag,B
   13      0.433D-04      0.159D-05      -101.39020654    168.132386   -0.16923   -0.12691   -0.00000    9    diag,B
   14      0.131D-04      0.552D-06      -101.39020654    168.132378   -0.16921   -0.12691    0.00000    9    diag,B
   15      0.497D-05      0.197D-06      -101.39020654    168.132364   -0.16921   -0.12691    0.00000    0    orth

 Final alpha occupancy:   9
 Final beta  occupancy:   8

 !RKS STATE 1.1 Energy               -101.390206544919
 Nuclear energy                        34.28824494
 One-electron energy                 -218.68206024
 Two-electron energy                   84.06618198
 Density functional                    -1.06257322     PW92C=-1.06257322
 Virial quotient                       -0.94376880
 !RKS STATE 1.1 Dipole moment          -0.16920538    -0.12690779     0.00000000
 Dipole moment /Debye                  -0.43004901    -0.32254630     0.00000000

 Orbital energies:

         1.1          2.1          3.1          4.1          5.1          6.1          7.1          8.1          9.1         10.1
    -16.622942    -8.287265    -0.532355    -0.265185    -0.137813    -0.122747    -0.042585     0.101757     0.076166     0.196084

        11.1
      0.264049

 HOMO      9.1     0.076166 =       2.0726eV
 LUMO     10.1     0.196084 =       5.3357eV
 LUMO-HOMO         0.119918 =       3.2631eV


 **********************************************************************************************************************************
 DATASETS  * FILE   NREC   LENGTH (MB)   RECORD NAMES
              1      20       32.48       500      610      700      900      950      970     1000      129      960     1100   
                                          VAR    BASINP    GEOM    SYMINP    ZMAT    AOBASIS   BASIS     P2S    ABASIS      S 
                                         1400     1410     1200     1210     1080     1600     1650     1300     1700     1800   
                                           T        V       H0       H01     AOSYM     SMH    MOLCAS    ERIS     OPER     GRID   

              2       5        2.87       700     1000      520     1800     2100   
                                         GEOM     BASIS   MCVARS    GRID      RKS  

 PROGRAMS   *        TOTAL        KS       INT
 CPU TIMES  *         2.53      1.99      0.39
 REAL TIME  *         3.13 SEC
 DISK USED  *        41.20 MB      
 **********************************************************************************************************************************


 PROGRAM * Intrinsic Basis Bonding Analysis (IBBA)          Author: G. Knizia

 Molecular orbitals read from record     2100.2  Type=RKS/CANONICAL (state 1.1)
 Fock matrix read from record            2100.2  Type=RKS/TOTAL (state 1.1)
 Orbital energies read from record       2100.2  Type=RKS/CANONICAL (state 1.1)
 Density matrix read from record         2100.2  Type=RKS/CHARGE (state 1.1)

 Number of core orbitals:           2 (   2 )
 Number of closed-shell orbitals:   6 (   6 )
 Number of active  orbitals:        1 (   1 )

 Basis set MINAO-AUTO-PP generated.      Number of basis functions:   13 

 Polarized AO type:                A = (O Ot + (1-O)(1-Ot)) P12
 Orthogonalization method:         Symmetric (Loewdin)
 Localization functional:          L = sum[A,i] <i|n_A|i>^4 -> max

 Localization group 1:   8 orbitals, occupancy  2.000
 Iterative localization: IB/PM,    7 iter; Final gradient 0.29E-08

 Bond order analysis:       [THRPRINT= 0.020]

   CEN ATOM   CEN ATOM     WIBERG.BO      RENORM.BO
     1   O  -   2   C       1.499757       2.073964
     1   O  -   3   H       0.153261       0.542004
     1   O  -   4   H       0.113849       0.142102
     1   O  -   5   H       0.113849       0.142102

     2   C  -   1   O       1.499757       2.073964
     2   C  -   5   H       0.855371       0.845409
     2   C  -   4   H       0.855371       0.845409
     2   C  -   3   H       0.747283       0.992275

     3   H  -   2   C       0.747283       0.992275
     3   H  -   1   O       0.153261       0.542004
     3   H  -   4   H       0.024427       0.032492
     3   H  -   5   H       0.024427       0.032492

     4   H  -   2   C       0.855371       0.845409
     4   H  -   1   O       0.113849       0.142102
     4   H  -   3   H       0.024427       0.032492

     5   H  -   2   C       0.855371       0.845409
     5   H  -   1   O       0.113849       0.142102
     5   H  -   3   H       0.024427       0.032492


 Valency analysis:

   CEN ATOM   TOT.VALENCE
     1   O       1.880717
     2   C       3.957782
     3   H       0.949398
     4   H       0.999099
     5   H       0.999099
 Localization group 2:   1 orbitals, occupancy  1.000
 Iterative localization: IB/PM,    1 iter; Final gradient 0.00E+00

 Bond order analysis:       [THRPRINT= 0.020]

   CEN ATOM   CEN ATOM     WIBERG.BO      RENORM.BO
     1   O  -   3   H       0.219416       0.500000
     1   O  -   4   H       0.050689       0.500000
     1   O  -   5   H       0.050689       0.500000
     1   O  -   2   C       0.042155       0.500000

     2   C  -   1   O       0.042155       0.500000

     3   H  -   1   O       0.219416       0.500000

     4   H  -   1   O       0.050689       0.500000

     5   H  -   1   O       0.050689       0.500000


 Valency analysis:

   CEN ATOM   TOT.VALENCE
     1   O       0.362949
     2   C       0.053807
     3   H       0.246551
     4   H       0.064326
     5   H       0.064326

 Total charge composition:

   CEN ATOM         s          p       ELECTRONS ->P.CHARGE
     1   O       3.70013    4.39846      8.09859   -0.09859
     2   C       2.89062    3.08521      5.97583    0.02417
     3   H       0.91907                 0.91907    0.08093
     4   H       1.00326                 1.00326   -0.00326
     5   H       1.00326                 1.00326   -0.00326

 Total charge composition, AO contributions:

   CEN ATOM SHL      SPHERICAL COMPONENTS
     1   O  1s       1.99929
     1   O  2s       1.70084
     1   O  2p       1.12609    1.43188    1.84049

     2   C  1s       1.99799
     2   C  2s       0.89263
     2   C  2p       1.06051    0.90901    1.11569

     3   H  1s       0.91907

     4   H  1s       1.00326

     5   H  1s       1.00326

 Active orbital charges:

   CEN ATOM         s          p       ELECTRONS ->SPIN.DEN
     1   O       0.00005    0.76172      0.76177    0.76177
     2   C       0.00015    0.02752      0.02767    0.02767
     3   H       0.14402                 0.14402    0.14402
     4   H       0.03327                 0.03327    0.03327
     5   H       0.03327                 0.03327    0.03327

 Active orbital charges, AO contributions:

   CEN ATOM SHL      SPHERICAL COMPONENTS
     1   O  1s       0.00000
     1   O  2s       0.00005
     1   O  2p       0.74954    0.01219    0.00000

     2   C  1s       0.00000
     2   C  2s       0.00015
     2   C  2p       0.02749    0.00003    0.00000

     3   H  1s       0.14402

     4   H  1s       0.03327

     5   H  1s       0.03327

 Summary of localized orbital composition:   [THRPRINT= 0.020]

   ORB  GRP  ORB.ENERGY      CENTERS/CHARGES
     1   1   -16.467940      O  1   2.000
     2   1    -8.210695      C  2   2.000
     3   1    -0.440892      O  1   1.146   C  2   0.853
     4   1    -0.286023      O  1   1.991
     5   1    -0.206639      C  2   0.988   H  3   0.748   O  1   0.258
     6   1    -0.184495      C  2   1.014   H  5   0.921   O  1   0.051
     7   1    -0.184495      C  2   1.014   H  4   0.921   O  1   0.051
     8   1     0.072040      O  1   1.840   C  2   0.073   H  4   0.043   H  5   0.043
     9   2     0.068971      O  1   0.762   H  3   0.144   H  4   0.033   H  5   0.033   C  2   0.028

 Localized orbitals saved to record      2100.2  (orbital set 2)


 **********************************************************************************************************************************
 DATASETS  * FILE   NREC   LENGTH (MB)   RECORD NAMES
              1      20       32.48       500      610      700      900      950      970     1000      129      960     1100   
                                          VAR    BASINP    GEOM    SYMINP    ZMAT    AOBASIS   BASIS     P2S    ABASIS      S 
                                         1400     1410     1200     1210     1080     1600     1650     1300     1700     1800   
                                           T        V       H0       H01     AOSYM     SMH    MOLCAS    ERIS     OPER     GRID   

              2       5        2.89       700     1000      520     1800     2100   
                                         GEOM     BASIS   MCVARS    GRID      RKS  

 PROGRAMS   *        TOTAL      IBBA        KS       INT
 CPU TIMES  *         2.55      0.02      1.99      0.39
 REAL TIME  *         3.20 SEC
 DISK USED  *        41.20 MB      
 **********************************************************************************************************************************
 Molecular orbitals read from record     2100.2  Type=RKS/LOCAL(IBO)  
 Occupation numbers read from record     2100.2  Type=RKS/LOCAL(IBO)  
 Orbital energies read from record       2100.2  Type=RKS/LOCAL(IBO)  
 Redundancy group numbers read from rec  2100.2  Type=RKS/LOCAL(IBO)  

 IBBA/SVP energy=      0.000000000000

        KS-SCF  
   -101.39020654
 **********************************************************************************************************************************
 Molpro calculation terminated
