
 Primary working directories    : /tmp/sb13343
 Secondary working directories  : /tmp/sb13343
 Wavefunction directory         : /panfs/panasas01/chem/sb13343/wfu/
 Main file repository           : /tmp/sb13343/

 SHA1      : b4a5b34a9e711420743f49e6833241d17c61fb3c
 NAME      : 2099.9.b4a5b34
 ARCHNAME  : linux/x86_64_openmp
 FC        : /cm/shared/languages/GCC-6.1/bin/gfortran
 BLASLIB   : -lblas
 id        : simonbennie

 Nodes     nprocs
 node33-019    1

 Using customized tuning parameters: mindgm=1; mindgv=20; mindgc=4; mindgr=1; noblas=0; minvec=7
 default implementation of scratch files=df  

 memory,500,m
 geomtyp=xyz
 nosym
 noorient
 geometry={
 O         -0.07179        0.79048        0.00000
 C          0.07053       -0.57065        0.00000
 H         -0.96431       -0.97345        0.00000
 H          0.55775       -0.96326        0.90880
 H          0.55775       -0.96326       -0.90880
 }
 basis={ default,sto-3g }
 {uks,D,direct;wf,17,1,1}
 {ibba,bonds=1}

 Variables initialized (895), CPU time= 0.01 sec
 Commands  initialized (725), CPU time= 0.01 sec, 591 directives.
 Default parameters read. Elapsed time= 0.08 sec

 Checking input...
 Passed
1


                                         ***  PROGRAM SYSTEM MOLPRO  ***
                                       Copyright, TTI GmbH Stuttgart, 2015
                                    Version 2099.9 linked May 26 2017 16:03:21


 **********************************************************************************************************************************
 LABEL *                                                                                 
  64 bit serial version                                                                  DATE: 08-Jun-17          TIME: 16:50:27  
 **********************************************************************************************************************************

 SHA1:             b4a5b34a9e711420743f49e6833241d17c61fb3c
 **********************************************************************************************************************************
 SETTING GEOMTYP        =    XYZ

 Variable memory set to  500000000 words,  buffer space 

 ZSYMEL=NOSYM

 SETTING BASIS          =    STO-3G


 Recomputing integrals since basis changed


 Using spherical harmonics

 Library entry O      S STO-3G               selected for orbital group  1
 Library entry O      P STO-3G               selected for orbital group  1
 Library entry C      S STO-3G               selected for orbital group  2
 Library entry C      P STO-3G               selected for orbital group  2
 Library entry H      S STO-3G               selected for orbital group  3


 PROGRAM * SEWARD (Integral evaluation for generally contracted gaussian basis sets)     Author: Roland Lindh, 1990

 Geometry written to block  1 of record 700


 Point group  C1  



 ATOMIC COORDINATES

 NR  ATOM    CHARGE       X              Y              Z

   1  O       8.00   -0.135663438    1.493790707    0.000000000
   2  C       6.00    0.133282384   -1.078372213    0.000000000
   3  H       1.00   -1.822281799   -1.839553896    0.000000000
   4  H       1.00    1.053994746   -1.820297587    1.717383102
   5  H       1.00    1.053994746   -1.820297587   -1.717383102

 Bond lengths in Bohr (Angstrom)

 1-2  2.586185210  2-3  2.098482506  2-4  2.085082548  2-5  2.085082548
     ( 1.368550276)     ( 1.110469120)     ( 1.103378167)     ( 1.103378167)

 Bond angles

  1-2-3  105.29875708   1-2-4  113.56671130   1-2-5  113.56671130   3-2-4  106.40524792

  3-2-5  106.40524792   4-2-5  110.90419060

 NUCLEAR CHARGE:                   17
 NUMBER OF PRIMITIVE AOS:          39
 NUMBER OF SYMMETRY AOS:           39
 NUMBER OF CONTRACTIONS:           13   (  13A   )
 NUMBER OF CORE ORBITALS:           2   (   2A   )
 NUMBER OF VALENCE ORBITALS:       11   (  11A   )


 NUCLEAR REPULSION ENERGY   34.28824494


 Eigenvalues of metric

         1 0.234E+00 0.369E+00 0.377E+00 0.408E+00 0.839E+00 0.959E+00 0.965E+00 0.968E+00


 Contracted 2-electron integrals neglected if value below      1.0D-11
 AO integral compression algorithm  1   Integral accuracy      1.0D-11

     0.262 MB (compressed) written to integral file (100.0%)


 NUMBER OF SORTED TWO-ELECTRON INTEGRALS:       4186.     BUFFER LENGTH:  32768
 NUMBER OF SEGMENTS:   1  SEGMENT LENGTH:       4186      RECORD LENGTH: 524288

 Memory used in sort:       0.56 MW

 SORT1 READ        5522. AND WROTE        3217. INTEGRALS IN      1 RECORDS. CPU TIME:     0.00 SEC, REAL TIME:     0.01 SEC
 SORT2 READ        3217. AND WROTE        4186. INTEGRALS IN      1 RECORDS. CPU TIME:     0.00 SEC, REAL TIME:     0.00 SEC

 FILE SIZES:   FILE 1:    30.3 MBYTE,  FILE 4:     4.2 MBYTE,   TOTAL:     34.5 MBYTE

 OPERATOR DM      FOR CENTER  0  COORDINATES:    0.000000    0.000000    0.000000


 **********************************************************************************************************************************
 DATASETS  * FILE   NREC   LENGTH (MB)   RECORD NAMES
              1      19       30.03       500      610      700      900      950      970     1000      129      960     1100   
                                          VAR    BASINP    GEOM    SYMINP    ZMAT    AOBASIS   BASIS     P2S    ABASIS      S 
                                         1400     1410     1200     1210     1080     1600     1650     1300     1700   
                                           T        V       H0       H01     AOSYM     SMH    MOLCAS    ERIS     OPER   

 PROGRAMS   *        TOTAL       INT
 CPU TIMES  *         0.33      0.19
 REAL TIME  *         0.65 SEC
 DISK USED  *        34.83 MB      
 **********************************************************************************************************************************

 Density functional group D=DIRAC
 Functional: DIRAC(Automatically generated (new) DIRAC)                        Gradient terms: 0
 Use grid at  1800.2

 Functional: DIRAC                     Factor:  1.0000

 Generated new metagrid on record  1800.2 with target accuracy 1.0D-06 and 19990 points in CPU time    0.5
 Computed new grid on record 1800.1 in CPU time    0.5
    9378 words reserved for DFT integration

 PROGRAM * UKS-SCF (Unrestricted Kohn-Sham)     Authors: W. Meyer, H.-J. Werner, P.J. Knowles, 1993

 NUMBER OF ELECTRONS:       9+    8-    SPACE SYMMETRY=1    SPIN SYMMETRY: Doublet 
 CONVERGENCE THRESHOLDS:    1.00E-05 (Density)    1.00E-06 (Energy)
 MAX. NUMBER OF ITERATIONS:       60
 INTERPOLATION TYPE:            DIIS
 INTERPOLATION STEPS:              2 (START)      1 (STEP)
 LEVEL SHIFTS:                 -0.20 (ALPHA)  -0.20 (BETA) 



 Use fine grid record 1800.2 for energy threshold  1.0D-06
 Orbital guess generated from atomic densities. Full valence occupancy:    9

 Molecular orbital dump at record        2200.2

 Initial alpha occupation   9
 Initial beta  occupation   8

 ITERATION    DDIFF          GRAD             ENERGY        2-EL.EN.            DIPOLE MOMENTS         DIIS
    1      0.000D+00      0.000D+00      -111.41106607    184.125101   -0.06320   -1.37964    0.00000    0
    2      0.558D-01      0.196D-01      -111.46703855    180.765444   -0.05512   -0.48654    0.00000    1
    3      0.531D-02      0.284D-02      -111.46861749    180.918257   -0.04763   -0.50104    0.00000    2
    4      0.352D-02      0.148D-02      -111.46924594    180.891546   -0.04450   -0.47875    0.00000    3
    5      0.140D-02      0.439D-03      -111.46931093    180.879866   -0.04391   -0.47359    0.00000    4
    6      0.282D-03      0.724D-04      -111.46931300    180.880215   -0.04372   -0.47340    0.00000    5
    7      0.665D-04      0.189D-04      -111.46931313    180.880073   -0.04372   -0.47338    0.00000    6
    8      0.117D-04      0.520D-05      -111.46931313    180.880197   -0.04374   -0.47330    0.00000    6
    9      0.631D-05      0.323D-05      -111.46931313    180.880147   -0.04373   -0.47334    0.00000    7
   10      0.744D-06      0.279D-06      -111.46931313    180.880157   -0.04373   -0.47334    0.00000    6

 Final alpha occupancy:   9
 Final beta  occupancy:   8

 !UKS STATE 1.1 Energy               -111.469313130849
 Nuclear energy                        34.28824494
 One-electron energy                 -223.10463952
 Two-electron energy                   90.44007856
 Density functional                   -13.09299711     DIRAC=-13.09299711
 Virial quotient                       -0.99575548
 !UKS STATE 1.1 Dipole moment          -0.04373418    -0.47334338     0.00000000
 Dipole moment /Debye                  -0.11115392    -1.20304006     0.00000000

 Orbital energies for positive spin:

         1.1          2.1          3.1          4.1          5.1          6.1          7.1          8.1          9.1         10.1
    -18.238851    -9.545224    -0.789846    -0.483306    -0.305411    -0.292270    -0.206799    -0.090874    -0.020602     0.389853

        11.1
      0.441880

 Orbital energies for negative spin:

         1.1          2.1          3.1          4.1          5.1          6.1          7.1          8.1          9.1         10.1
    -18.218887    -9.546679    -0.742245    -0.468556    -0.288926    -0.286739    -0.173265     0.016667     0.025389     0.410355

        11.1
      0.452316

 HOMO     -8.1     0.016667 =       0.4535eV
 LUMO     -9.1     0.025389 =       0.6909eV
 LUMO-HOMO         0.008722 =       0.2373eV

 EXPECTATION VALUE OF S**2:             0.75197432

 Occupation number threshold for canonical orbitals:  1.999000 (occupied),  0.001000 (virtual)

 Number of pseudo-canonical orbitals per symmetry:    8
 Number of active natural orbitals per symmetry:      1

 Natural orbitals saved to record    2200.2 (Orbital set 3)

 Orbital spaces for UNO-CAS (Min. occupation: 0.020  Max. occupation: 1.980):

 Closed:        8
 Active:        1


 **********************************************************************************************************************************
 DATASETS  * FILE   NREC   LENGTH (MB)   RECORD NAMES
              1      20       30.67       500      610      700      900      950      970     1000      129      960     1100   
                                          VAR    BASINP    GEOM    SYMINP    ZMAT    AOBASIS   BASIS     P2S    ABASIS      S 
                                         1400     1410     1200     1210     1080     1600     1650     1300     1700     1800   
                                           T        V       H0       H01     AOSYM     SMH    MOLCAS    ERIS     OPER     GRID   

              2       5        2.83       700     1000      520     1800     2200   
                                         GEOM     BASIS   MCVARS    GRID      UKS  

 PROGRAMS   *        TOTAL       UKS       INT
 CPU TIMES  *         1.19      0.86      0.19
 REAL TIME  *         1.57 SEC
 DISK USED  *        34.83 MB      
 **********************************************************************************************************************************


 PROGRAM * Intrinsic Basis Bonding Analysis (IBBA)          Author: G. Knizia

 Molecular orbitals read from record     2200.2  Type=UKS/ALPHA (state 1.1)
 Fock matrix read from record            2200.2  Type=UKS/TOTAL (state 1.1)
 Orbital energies read from record       2200.2  Type=UKS/ALPHA (state 1.1)
 Density matrix read from record         2200.2  Type=UKS/CHARGE (state 1.1)

 Number of core orbitals:           2 (   2 )
 Number of closed-shell orbitals:   6 (   6 )
 Number of active  orbitals:        1 (   1 )

 Basis set MINAO-AUTO-PP generated.      Number of basis functions:   13 

 Polarized AO type:                A = (O Ot + (1-O)(1-Ot)) P12
 Orthogonalization method:         Symmetric (Loewdin)
 Localization functional:          L = sum[A,i] <i|n_A|i>^4 -> max

 Localization group 1:   8 orbitals, occupancy  2.000
 Iterative localization: IB/PM,    6 iter; Final gradient 0.17E-08

 Bond order analysis:       [THRPRINT= 0.020]

   CEN ATOM   CEN ATOM     WIBERG.BO      RENORM.BO
     1   O  -   2   C       1.200809       2.017033
     1   O  -   5   H       0.063127       0.431763
     1   O  -   4   H       0.063127       0.431763
     1   O  -   3   H       0.034192       0.019175

     2   C  -   1   O       1.200809       2.017033
     2   C  -   3   H       0.957000       0.941789
     2   C  -   4   H       0.876287       0.983135
     2   C  -   5   H       0.876287       0.983135

     3   H  -   2   C       0.957000       0.941789
     3   H  -   1   O       0.034192       0.019175

     4   H  -   2   C       0.876287       0.983135
     4   H  -   1   O       0.063127       0.431763

     5   H  -   2   C       0.876287       0.983135
     5   H  -   1   O       0.063127       0.431763


 Valency analysis:

   CEN ATOM   TOT.VALENCE
     1   O       1.361255
     2   C       3.910383
     3   H       0.992705
     4   H       0.953765
     5   H       0.953765
 Localization group 2:   1 orbitals, occupancy  1.000
 Iterative localization: IB/PM,    1 iter; Final gradient 0.00E+00

 Bond order analysis:       [THRPRINT= 0.020]

   CEN ATOM   CEN ATOM     WIBERG.BO      RENORM.BO
     1   O  -   5   H       0.091646       0.500000
     1   O  -   4   H       0.091646       0.500000
     1   O  -   2   C       0.023452       0.500000

     2   C  -   1   O       0.023452       0.500000


     4   H  -   1   O       0.091646       0.500000

     5   H  -   1   O       0.091646       0.500000


 Valency analysis:

   CEN ATOM   TOT.VALENCE
     1   O       0.206744
     2   C       0.026210
     3   H       0.000000
     4   H       0.098411
     5   H       0.098411

 Total charge composition:

   CEN ATOM         s          p       ELECTRONS ->P.CHARGE
     1   O       3.81673    4.34369      8.16042   -0.16042
     2   C       2.99123    3.26002      6.25124   -0.25124
     3   H       0.91459                 0.91459    0.08541
     4   H       0.83688                 0.83688    0.16312
     5   H       0.83688                 0.83688    0.16312

 Total charge composition, AO contributions:

   CEN ATOM SHL      SPHERICAL COMPONENTS
     1   O  1s       1.99831
     1   O  2s       1.81841
     1   O  2p       1.94613    1.35318    1.04438

     2   C  1s       1.99350
     2   C  2s       0.99773
     2   C  2p       1.16906    0.90751    1.18344

     3   H  1s       0.91459

     4   H  1s       0.83688

     5   H  1s       0.83688

 Active orbital charges:

   CEN ATOM         s          p       ELECTRONS ->SPIN.DEN
     1   O       0.00000    0.88292      0.88292    0.88292
     2   C       0.00000    0.01328      0.01328    0.01328
     3   H       0.00000                 0.00000    0.00000
     4   H       0.05190                 0.05190    0.05190
     5   H       0.05190                 0.05190    0.05190

 Active orbital charges, AO contributions:

   CEN ATOM SHL      SPHERICAL COMPONENTS
     1   O  1s       0.00000
     1   O  2s       0.00000
     1   O  2p       0.00000    0.00000    0.88292

     2   C  1s       0.00000
     2   C  2s       0.00000
     2   C  2p       0.00000    0.00000    0.01328

     3   H  1s       0.00000

     4   H  1s       0.05190

     5   H  1s       0.05190

 Summary of localized orbital composition:   [THRPRINT= 0.020]

   ORB  GRP  ORB.ENERGY      CENTERS/CHARGES
     1   1   -18.066563      O  1   2.000
     2   1    -9.443853      C  2   2.000
     3   1    -0.596101      O  1   1.162   C  2   0.837
     4   1    -0.522348      O  1   1.998
     5   1    -0.378719      C  2   1.140   H  5   0.775   O  1   0.081
     6   1    -0.378719      C  2   1.140   H  4   0.775   O  1   0.081
     7   1    -0.376959      C  2   1.103   H  3   0.896
     8   1    -0.061747      O  1   1.956   (other: 0.044)
     9   2    -0.002066      O  1   0.883   H  5   0.052   H  4   0.052

 Localized orbitals saved to record      2200.2  (orbital set 4)


 **********************************************************************************************************************************
 DATASETS  * FILE   NREC   LENGTH (MB)   RECORD NAMES
              1      20       30.67       500      610      700      900      950      970     1000      129      960     1100   
                                          VAR    BASINP    GEOM    SYMINP    ZMAT    AOBASIS   BASIS     P2S    ABASIS      S 
                                         1400     1410     1200     1210     1080     1600     1650     1300     1700     1800   
                                           T        V       H0       H01     AOSYM     SMH    MOLCAS    ERIS     OPER     GRID   

              2       5        2.83       700     1000      520     1800     2200   
                                         GEOM     BASIS   MCVARS    GRID      UKS  

 PROGRAMS   *        TOTAL      IBBA       UKS       INT
 CPU TIMES  *         1.21      0.02      0.86      0.19
 REAL TIME  *         1.63 SEC
 DISK USED  *        34.83 MB      
 **********************************************************************************************************************************
 Molecular orbitals read from record     2200.2  Type=UKS/LOCAL(IBO)  
 Occupation numbers read from record     2200.2  Type=UKS/LOCAL(IBO)  
 Orbital energies read from record       2200.2  Type=UKS/LOCAL(IBO)  
 Redundancy group numbers read from rec  2200.2  Type=UKS/BETA (state 1.1)

 IBBA/STO-3G energy=      0.000000000000

        UKS-SCF 
   -111.46931313
 **********************************************************************************************************************************
 Molpro calculation terminated
