
 Primary working directories    : /tmp/sb13343
 Secondary working directories  : /tmp/sb13343
 Wavefunction directory         : /panfs/panasas01/chem/sb13343/wfu/
 Main file repository           : /tmp/sb13343/

 SHA1      : b4a5b34a9e711420743f49e6833241d17c61fb3c
 NAME      : 2099.9.b4a5b34
 ARCHNAME  : linux/x86_64_openmp
 FC        : /cm/shared/languages/GCC-6.1/bin/gfortran
 BLASLIB   : -lblas
 id        : simonbennie

 Nodes     nprocs
 node33-015    1

 Using customized tuning parameters: mindgm=1; mindgv=20; mindgc=4; mindgr=1; noblas=0; minvec=7
 default implementation of scratch files=df  

 memory,500,m
 geomtyp=xyz
 nosym
 noorient
 geometry={
 O         -0.07179        0.79048        0.00000
 C          0.07053       -0.57065        0.00000
 H         -0.96431       -0.97345        0.00000
 H          0.55775       -0.96326        0.90880
 H          0.55775       -0.96326       -0.90880
 }
 basis={ default,sto-3g }
 {uks,CS,direct;wf,17,1,1}
 {ibba,bonds=1}

 Variables initialized (895), CPU time= 0.01 sec
 Commands  initialized (725), CPU time= 0.01 sec, 591 directives.
 Default parameters read. Elapsed time= 0.07 sec

 Checking input...
 Passed
1


                                         ***  PROGRAM SYSTEM MOLPRO  ***
                                       Copyright, TTI GmbH Stuttgart, 2015
                                    Version 2099.9 linked May 26 2017 16:03:21


 **********************************************************************************************************************************
 LABEL *                                                                                 
  64 bit serial version                                                                  DATE: 08-Jun-17          TIME: 16:49:54  
 **********************************************************************************************************************************

 SHA1:             b4a5b34a9e711420743f49e6833241d17c61fb3c
 **********************************************************************************************************************************
 SETTING GEOMTYP        =    XYZ

 Variable memory set to  500000000 words,  buffer space 

 ZSYMEL=NOSYM

 SETTING BASIS          =    STO-3G


 Recomputing integrals since basis changed


 Using spherical harmonics

 Library entry O      S STO-3G               selected for orbital group  1
 Library entry O      P STO-3G               selected for orbital group  1
 Library entry C      S STO-3G               selected for orbital group  2
 Library entry C      P STO-3G               selected for orbital group  2
 Library entry H      S STO-3G               selected for orbital group  3


 PROGRAM * SEWARD (Integral evaluation for generally contracted gaussian basis sets)     Author: Roland Lindh, 1990

 Geometry written to block  1 of record 700


 Point group  C1  



 ATOMIC COORDINATES

 NR  ATOM    CHARGE       X              Y              Z

   1  O       8.00   -0.135663438    1.493790707    0.000000000
   2  C       6.00    0.133282384   -1.078372213    0.000000000
   3  H       1.00   -1.822281799   -1.839553896    0.000000000
   4  H       1.00    1.053994746   -1.820297587    1.717383102
   5  H       1.00    1.053994746   -1.820297587   -1.717383102

 Bond lengths in Bohr (Angstrom)

 1-2  2.586185210  2-3  2.098482506  2-4  2.085082548  2-5  2.085082548
     ( 1.368550276)     ( 1.110469120)     ( 1.103378167)     ( 1.103378167)

 Bond angles

  1-2-3  105.29875708   1-2-4  113.56671130   1-2-5  113.56671130   3-2-4  106.40524792

  3-2-5  106.40524792   4-2-5  110.90419060

 NUCLEAR CHARGE:                   17
 NUMBER OF PRIMITIVE AOS:          39
 NUMBER OF SYMMETRY AOS:           39
 NUMBER OF CONTRACTIONS:           13   (  13A   )
 NUMBER OF CORE ORBITALS:           2   (   2A   )
 NUMBER OF VALENCE ORBITALS:       11   (  11A   )


 NUCLEAR REPULSION ENERGY   34.28824494


 Eigenvalues of metric

         1 0.234E+00 0.369E+00 0.377E+00 0.408E+00 0.839E+00 0.959E+00 0.965E+00 0.968E+00


 Contracted 2-electron integrals neglected if value below      1.0D-11
 AO integral compression algorithm  1   Integral accuracy      1.0D-11

     0.262 MB (compressed) written to integral file (100.0%)


 NUMBER OF SORTED TWO-ELECTRON INTEGRALS:       4186.     BUFFER LENGTH:  32768
 NUMBER OF SEGMENTS:   1  SEGMENT LENGTH:       4186      RECORD LENGTH: 524288

 Memory used in sort:       0.56 MW

 SORT1 READ        5522. AND WROTE        3217. INTEGRALS IN      1 RECORDS. CPU TIME:     0.00 SEC, REAL TIME:     0.01 SEC
 SORT2 READ        3217. AND WROTE        4186. INTEGRALS IN      1 RECORDS. CPU TIME:     0.00 SEC, REAL TIME:     0.00 SEC

 FILE SIZES:   FILE 1:    30.3 MBYTE,  FILE 4:     4.2 MBYTE,   TOTAL:     34.5 MBYTE

 OPERATOR DM      FOR CENTER  0  COORDINATES:    0.000000    0.000000    0.000000


 **********************************************************************************************************************************
 DATASETS  * FILE   NREC   LENGTH (MB)   RECORD NAMES
              1      19       30.03       500      610      700      900      950      970     1000      129      960     1100   
                                          VAR    BASINP    GEOM    SYMINP    ZMAT    AOBASIS   BASIS     P2S    ABASIS      S 
                                         1400     1410     1200     1210     1080     1600     1650     1300     1700   
                                           T        V       H0       H01     AOSYM     SMH    MOLCAS    ERIS     OPER   

 PROGRAMS   *        TOTAL       INT
 CPU TIMES  *         0.32      0.19
 REAL TIME  *         0.61 SEC
 DISK USED  *        34.83 MB      
 **********************************************************************************************************************************

 Density functional group CS=CS1
 Functional: CS1(Colle-Salvetti (Gradient form))                               Gradient terms: 1
 Use grid at  1800.2

 Functional: CS1                       Factor:  1.0000

 Generated new metagrid on record  1800.2 with target accuracy 1.0D-06 and 19990 points in CPU time    0.5
 Computed new grid on record 1800.1 in CPU time    0.5
   14331 words reserved for DFT integration

 PROGRAM * UKS-SCF (Unrestricted Kohn-Sham)     Authors: W. Meyer, H.-J. Werner, P.J. Knowles, 1993

 NUMBER OF ELECTRONS:       9+    8-    SPACE SYMMETRY=1    SPIN SYMMETRY: Doublet 
 CONVERGENCE THRESHOLDS:    1.00E-05 (Density)    1.00E-06 (Energy)
 MAX. NUMBER OF ITERATIONS:       60
 INTERPOLATION TYPE:            DIIS
 INTERPOLATION STEPS:              2 (START)      1 (STEP)
 LEVEL SHIFTS:                 -0.20 (ALPHA)  -0.20 (BETA) 



 Use fine grid record 1800.2 for energy threshold  1.0D-06
 Orbital guess generated from atomic densities. Full valence occupancy:    9

 Molecular orbital dump at record        2200.2

 Initial alpha occupation   9
 Initial beta  occupation   8

 ITERATION    DDIFF          GRAD             ENERGY        2-EL.EN.            DIPOLE MOMENTS         DIIS
    1      0.000D+00      0.000D+00       -98.98729559    178.094646   -0.12897    0.25576    0.00000    0
    2      0.204D-01      0.946D-02       -98.99369526    177.953515   -0.08517    0.11425    0.00000    1
    3      0.917D-02      0.429D-02       -98.99546914    178.037721   -0.10374    0.18908    0.00000    2
    4      0.267D-02      0.105D-02       -98.99567510    178.020019   -0.10565    0.18652    0.00000    3
    5      0.161D-02      0.391D-03       -98.99571998    178.022379   -0.10758    0.18453    0.00000    4
    6      0.289D-03      0.801D-04       -98.99572163    178.019066   -0.10785    0.18497    0.00000    5
    7      0.463D-04      0.184D-04       -98.99572168    178.021491   -0.10784    0.18423    0.00000    6
    8      0.195D-04      0.535D-05       -98.99572169    178.021010   -0.10782    0.18437    0.00000    6
    9      0.210D-05      0.530D-06       -98.99572169    178.021040   -0.10782    0.18436    0.00000    6
   10      0.372D-06      0.139D-06       -98.99572169    178.021042   -0.10782    0.18436    0.00000    5

 Final alpha occupancy:   9
 Final beta  occupancy:   8

 !UKS STATE 1.1 Energy                -98.995721689244
 Nuclear energy                        34.28824494
 One-electron energy                 -221.74578462
 Two-electron energy                   89.01052113
 Density functional                    -0.54870314     CS1=-0.54870314
 Virial quotient                       -0.89453499
 !UKS STATE 1.1 Dipole moment          -0.10782005     0.18435818     0.00000000
 Dipole moment /Debye                  -0.27403328     0.46856106     0.00000000

 Orbital energies for positive spin:

         1.1          2.1          3.1          4.1          5.1          6.1          7.1          8.1          9.1         10.1
    -15.690098    -7.670014    -0.228922     0.007043     0.139712     0.150300     0.351635     0.489463     0.547997     0.878927

        11.1
      0.925184

 Orbital energies for negative spin:

         1.1          2.1          3.1          4.1          5.1          6.1          7.1          8.1          9.1         10.1
    -15.693976    -7.670072    -0.238169     0.002848     0.135734     0.149373     0.344555     0.542355     0.462106     0.875462

        11.1
      0.923328

 HOMO      9.1     0.547997 =      14.9118eV
 LUMO     -9.1     0.462106 =      12.5746eV
 LUMO-HOMO        -0.085891 =      -2.3372eV

 EXPECTATION VALUE OF S**2:             0.75005756

 Occupation number threshold for canonical orbitals:  1.999000 (occupied),  0.001000 (virtual)

 Number of pseudo-canonical orbitals per symmetry:    8
 Number of active natural orbitals per symmetry:      1

 Natural orbitals saved to record    2200.2 (Orbital set 3)

 Orbital spaces for UNO-CAS (Min. occupation: 0.020  Max. occupation: 1.980):

 Closed:        8
 Active:        1


 **********************************************************************************************************************************
 DATASETS  * FILE   NREC   LENGTH (MB)   RECORD NAMES
              1      20       30.67       500      610      700      900      950      970     1000      129      960     1100   
                                          VAR    BASINP    GEOM    SYMINP    ZMAT    AOBASIS   BASIS     P2S    ABASIS      S 
                                         1400     1410     1200     1210     1080     1600     1650     1300     1700     1800   
                                           T        V       H0       H01     AOSYM     SMH    MOLCAS    ERIS     OPER     GRID   

              2       5        2.83       700     1000      520     1800     2200   
                                         GEOM     BASIS   MCVARS    GRID      UKS  

 PROGRAMS   *        TOTAL       UKS       INT
 CPU TIMES  *         1.50      1.18      0.19
 REAL TIME  *         1.86 SEC
 DISK USED  *        34.83 MB      
 **********************************************************************************************************************************


 PROGRAM * Intrinsic Basis Bonding Analysis (IBBA)          Author: G. Knizia

 Molecular orbitals read from record     2200.2  Type=UKS/ALPHA (state 1.1)
 Fock matrix read from record            2200.2  Type=UKS/TOTAL (state 1.1)
 Orbital energies read from record       2200.2  Type=UKS/ALPHA (state 1.1)
 Density matrix read from record         2200.2  Type=UKS/CHARGE (state 1.1)

 Number of core orbitals:           2 (   2 )
 Number of closed-shell orbitals:   6 (   6 )
 Number of active  orbitals:        1 (   1 )

 Basis set MINAO-AUTO-PP generated.      Number of basis functions:   13 

 Polarized AO type:                A = (O Ot + (1-O)(1-Ot)) P12
 Orthogonalization method:         Symmetric (Loewdin)
 Localization functional:          L = sum[A,i] <i|n_A|i>^4 -> max

 Localization group 1:   8 orbitals, occupancy  2.000
 Iterative localization: IB/PM,    6 iter; Final gradient 0.12E-08

 Bond order analysis:       [THRPRINT= 0.020]

   CEN ATOM   CEN ATOM     WIBERG.BO      RENORM.BO
     1   O  -   2   C       1.199621       2.045608
     1   O  -   3   H       0.076417       0.040000
     1   O  -   4   H       0.054051       0.438891
     1   O  -   5   H       0.054051       0.438891

     2   C  -   1   O       1.199621       2.045608
     2   C  -   3   H       0.921354       0.867611
     2   C  -   5   H       0.915080       0.965820
     2   C  -   4   H       0.915080       0.965820

     3   H  -   2   C       0.921354       0.867611
     3   H  -   1   O       0.076417       0.040000

     4   H  -   2   C       0.915080       0.965820
     4   H  -   1   O       0.054051       0.438891

     5   H  -   2   C       0.915080       0.965820
     5   H  -   1   O       0.054051       0.438891


 Valency analysis:

   CEN ATOM   TOT.VALENCE
     1   O       1.384140
     2   C       3.951134
     3   H       0.999335
     4   H       0.986559
     5   H       0.986559
 Localization group 2:   1 orbitals, occupancy  1.000
 Iterative localization: IB/PM,    1 iter; Final gradient 0.00E+00

 Bond order analysis:       [THRPRINT= 0.020]

   CEN ATOM   CEN ATOM     WIBERG.BO      RENORM.BO
     1   O  -   5   H       0.109326       0.500000
     1   O  -   4   H       0.109326       0.500000



     4   H  -   1   O       0.109326       0.500000

     5   H  -   1   O       0.109326       0.500000


 Valency analysis:

   CEN ATOM   TOT.VALENCE
     1   O       0.218828
     2   C       0.000202
     3   H       0.000000
     4   H       0.117145
     5   H       0.117145

 Total charge composition:

   CEN ATOM         s          p       ELECTRONS ->P.CHARGE
     1   O       3.77417    4.10489      7.87907    0.12093
     2   C       2.90726    3.29482      6.20208   -0.20208
     3   H       1.02578                 1.02578   -0.02578
     4   H       0.94654                 0.94654    0.05346
     5   H       0.94654                 0.94654    0.05346

 Total charge composition, AO contributions:

   CEN ATOM SHL      SPHERICAL COMPONENTS
     1   O  1s       1.99918
     1   O  2s       1.77500
     1   O  2p       1.87965    1.25769    0.96755

     2   C  1s       1.99837
     2   C  2s       0.90888
     2   C  2p       1.12284    1.01954    1.15245

     3   H  1s       1.02578

     4   H  1s       0.94654

     5   H  1s       0.94654

 Active orbital charges:

   CEN ATOM         s          p       ELECTRONS ->SPIN.DEN
     1   O       0.00000    0.87495      0.87495    0.87495
     2   C       0.00000    0.00010      0.00010    0.00010
     3   H       0.00000                 0.00000    0.00000
     4   H       0.06248                 0.06248    0.06248
     5   H       0.06248                 0.06248    0.06248

 Active orbital charges, AO contributions:

   CEN ATOM SHL      SPHERICAL COMPONENTS
     1   O  1s       0.00000
     1   O  2s       0.00000
     1   O  2p       0.00000    0.00000    0.87495

     2   C  1s       0.00000
     2   C  2s       0.00000
     2   C  2p       0.00000    0.00000    0.00010

     3   H  1s       0.00000

     4   H  1s       0.06248

     5   H  1s       0.06248

 Summary of localized orbital composition:   [THRPRINT= 0.020]

   ORB  GRP  ORB.ENERGY      CENTERS/CHARGES
     1   1   -15.647053      O  1   2.000
     2   1    -7.589737      C  2   2.000
     3   1    -0.085231      O  1   1.021   C  2   0.977
     4   1     0.063354      C  2   1.012   H  3   0.985
     5   1     0.075601      C  2   1.082   H  5   0.868   O  1   0.046
     6   1     0.075601      C  2   1.082   H  4   0.868   O  1   0.046
     7   1     0.179839      O  1   1.998
     8   1     0.448454      O  1   1.892   C  2   0.048   H  3   0.040   (other: 0.020)
     9   2     0.545177      O  1   0.875   H  5   0.062   H  4   0.062

 Localized orbitals saved to record      2200.2  (orbital set 4)


 **********************************************************************************************************************************
 DATASETS  * FILE   NREC   LENGTH (MB)   RECORD NAMES
              1      20       30.67       500      610      700      900      950      970     1000      129      960     1100   
                                          VAR    BASINP    GEOM    SYMINP    ZMAT    AOBASIS   BASIS     P2S    ABASIS      S 
                                         1400     1410     1200     1210     1080     1600     1650     1300     1700     1800   
                                           T        V       H0       H01     AOSYM     SMH    MOLCAS    ERIS     OPER     GRID   

              2       5        2.83       700     1000      520     1800     2200   
                                         GEOM     BASIS   MCVARS    GRID      UKS  

 PROGRAMS   *        TOTAL      IBBA       UKS       INT
 CPU TIMES  *         1.52      0.02      1.18      0.19
 REAL TIME  *         1.92 SEC
 DISK USED  *        34.83 MB      
 **********************************************************************************************************************************
 Molecular orbitals read from record     2200.2  Type=UKS/LOCAL(IBO)  
 Occupation numbers read from record     2200.2  Type=UKS/LOCAL(IBO)  
 Orbital energies read from record       2200.2  Type=UKS/LOCAL(IBO)  
 Redundancy group numbers read from rec  2200.2  Type=UKS/BETA (state 1.1)

 IBBA/STO-3G energy=      0.000000000000

        UKS-SCF 
    -98.99572169
 **********************************************************************************************************************************
 Molpro calculation terminated
