
 Primary working directories    : /tmp/sb13343
 Secondary working directories  : /tmp/sb13343
 Wavefunction directory         : /panfs/panasas01/chem/sb13343/wfu/
 Main file repository           : /tmp/sb13343/

 SHA1      : b4a5b34a9e711420743f49e6833241d17c61fb3c
 NAME      : 2099.9.b4a5b34
 ARCHNAME  : linux/x86_64_openmp
 FC        : /cm/shared/languages/GCC-6.1/bin/gfortran
 BLASLIB   : -lblas
 id        : simonbennie

 Nodes     nprocs
 node32-008    1

 Using customized tuning parameters: mindgm=1; mindgv=20; mindgc=4; mindgr=1; noblas=0; minvec=7
 default implementation of scratch files=df  

 memory,500,m
 geomtyp=xyz
 nosym
 noorient
 geometry={
 O         -0.07179        0.79048        0.00000
 C          0.07053       -0.57065        0.00000
 H         -0.96431       -0.97345        0.00000
 H          0.55775       -0.96326        0.90880
 H          0.55775       -0.96326       -0.90880
 }
 basis={ default,svp }
 {uks,CS,direct;wf,17,1,1}
 {ibba,bonds=1}

 Variables initialized (895), CPU time= 0.00 sec
 Commands  initialized (725), CPU time= 0.02 sec, 591 directives.
 Default parameters read. Elapsed time= 0.52 sec

 Checking input...
 Passed
1


                                         ***  PROGRAM SYSTEM MOLPRO  ***
                                       Copyright, TTI GmbH Stuttgart, 2015
                                    Version 2099.9 linked May 26 2017 16:03:21


 **********************************************************************************************************************************
 LABEL *                                                                                 
  64 bit serial version                                                                  DATE: 08-Jun-17          TIME: 17:10:14  
 **********************************************************************************************************************************

 SHA1:             b4a5b34a9e711420743f49e6833241d17c61fb3c
 **********************************************************************************************************************************
 SETTING GEOMTYP        =    XYZ

 Variable memory set to  500000000 words,  buffer space 

 ZSYMEL=NOSYM

 SETTING BASIS          =    SVP


 Recomputing integrals since basis changed


 Using spherical harmonics

 Library entry O      S def2-SVP             selected for orbital group  1
 Library entry O      P def2-SVP             selected for orbital group  1
 Library entry O      D def2-SVP             selected for orbital group  1
 Library entry C      S def2-SVP             selected for orbital group  2
 Library entry C      P def2-SVP             selected for orbital group  2
 Library entry C      D def2-SVP             selected for orbital group  2
 Library entry H      S def2-SVP             selected for orbital group  3
 Library entry H      P def2-SVP             selected for orbital group  3


 PROGRAM * SEWARD (Integral evaluation for generally contracted gaussian basis sets)     Author: Roland Lindh, 1990

 Geometry written to block  1 of record 700


 Point group  C1  



 ATOMIC COORDINATES

 NR  ATOM    CHARGE       X              Y              Z

   1  O       8.00   -0.135663438    1.493790707    0.000000000
   2  C       6.00    0.133282384   -1.078372213    0.000000000
   3  H       1.00   -1.822281799   -1.839553896    0.000000000
   4  H       1.00    1.053994746   -1.820297587    1.717383102
   5  H       1.00    1.053994746   -1.820297587   -1.717383102

 Bond lengths in Bohr (Angstrom)

 1-2  2.586185210  2-3  2.098482506  2-4  2.085082548  2-5  2.085082548
     ( 1.368550276)     ( 1.110469120)     ( 1.103378167)     ( 1.103378167)

 Bond angles

  1-2-3  105.29875708   1-2-4  113.56671130   1-2-5  113.56671130   3-2-4  106.40524792

  3-2-5  106.40524792   4-2-5  110.90419060

 NUCLEAR CHARGE:                   17
 NUMBER OF PRIMITIVE AOS:          71
 NUMBER OF SYMMETRY AOS:           69
 NUMBER OF CONTRACTIONS:           43   (  43A   )
 NUMBER OF CORE ORBITALS:           2   (   2A   )
 NUMBER OF VALENCE ORBITALS:       11   (  11A   )


 NUCLEAR REPULSION ENERGY   34.28824494


 Eigenvalues of metric

         1 0.119E-01 0.382E-01 0.461E-01 0.536E-01 0.110E+00 0.137E+00 0.139E+00 0.243E+00


 Contracted 2-electron integrals neglected if value below      1.0D-11
 AO integral compression algorithm  1   Integral accuracy      1.0D-11

     2.359 MB (compressed) written to integral file ( 48.8%)


 NUMBER OF SORTED TWO-ELECTRON INTEGRALS:     447931.     BUFFER LENGTH:  32768
 NUMBER OF SEGMENTS:   1  SEGMENT LENGTH:     447931      RECORD LENGTH: 524288

 Memory used in sort:       1.00 MW

 SORT1 READ      553316. AND WROTE      366431. INTEGRALS IN      2 RECORDS. CPU TIME:     0.00 SEC, REAL TIME:     0.02 SEC
 SORT2 READ      366431. AND WROTE      447931. INTEGRALS IN      9 RECORDS. CPU TIME:     0.04 SEC, REAL TIME:     0.04 SEC

 FILE SIZES:   FILE 1:    32.4 MBYTE,  FILE 4:     8.4 MBYTE,   TOTAL:     40.9 MBYTE

 OPERATOR DM      FOR CENTER  0  COORDINATES:    0.000000    0.000000    0.000000


 **********************************************************************************************************************************
 DATASETS  * FILE   NREC   LENGTH (MB)   RECORD NAMES
              1      19       31.84       500      610      700      900      950      970     1000      129      960     1100   
                                          VAR    BASINP    GEOM    SYMINP    ZMAT    AOBASIS   BASIS     P2S    ABASIS      S 
                                         1400     1410     1200     1210     1080     1600     1650     1300     1700   
                                           T        V       H0       H01     AOSYM     SMH    MOLCAS    ERIS     OPER   

 PROGRAMS   *        TOTAL       INT
 CPU TIMES  *         0.57      0.41
 REAL TIME  *         2.04 SEC
 DISK USED  *        41.20 MB      
 **********************************************************************************************************************************

 Density functional group CS=CS1
 Functional: CS1(Colle-Salvetti (Gradient form))                               Gradient terms: 1
 Use grid at  1800.2

 Functional: CS1                       Factor:  1.0000

 Generated new metagrid on record  1800.2 with target accuracy 1.0D-06 and 19990 points in CPU time    0.5
 Computed new grid on record 1800.1 in CPU time    0.5
   38039 words reserved for DFT integration

 PROGRAM * UKS-SCF (Unrestricted Kohn-Sham)     Authors: W. Meyer, H.-J. Werner, P.J. Knowles, 1993

 NUMBER OF ELECTRONS:       9+    8-    SPACE SYMMETRY=1    SPIN SYMMETRY: Doublet 
 CONVERGENCE THRESHOLDS:    1.00E-05 (Density)    1.00E-06 (Energy)
 MAX. NUMBER OF ITERATIONS:       60
 INTERPOLATION TYPE:            DIIS
 INTERPOLATION STEPS:              2 (START)      1 (STEP)
 LEVEL SHIFTS:                 -0.20 (ALPHA)  -0.20 (BETA) 



 Use fine grid record 1800.2 for energy threshold  1.0D-06
 Orbital guess generated from atomic densities. Full valence occupancy:    9

 Molecular orbital dump at record        2200.2

 Initial alpha occupation   9
 Initial beta  occupation   8

 ITERATION    DDIFF          GRAD             ENERGY        2-EL.EN.            DIPOLE MOMENTS         DIIS
    1      0.000D+00      0.000D+00       -98.68615209    144.219479   -0.83001    8.25592   -0.00000    0
    2      0.915D+00      0.428D-01       -96.68408581    202.599484    0.73269   -5.79634    0.00000    1
    3      0.595D-01      0.718D-01      -100.42888597    178.782003    0.28597   -2.56831    0.00000    2
    4      0.178D-01      0.236D-01      -100.76765266    171.901122    0.19723   -1.33002    0.00000    3
    5      0.144D-01      0.101D-01      -100.84412104    169.512654    0.11572   -0.52193    0.00000    4
    6      0.160D-01      0.239D-02      -100.85438017    167.631665    0.14873   -0.10959    0.00000    5
    7      0.827D-02      0.123D-02      -100.85612780    167.704174    0.16205   -0.02699    0.00000    6
    8      0.376D-02      0.811D-03      -100.85682346    167.849921    0.17631   -0.07586    0.00000    7
    9      0.240D-02      0.225D-03      -100.85693408    167.933857    0.17422   -0.08670    0.00000    8
   10      0.129D-02      0.475D-04      -100.85695069    167.928319    0.17099   -0.08707    0.00000    7
   11      0.695D-03      0.174D-04      -100.85695419    167.930350    0.16744   -0.08822    0.00000    7
   12      0.381D-03      0.745D-05      -100.85695495    167.929711    0.16544   -0.08784    0.00000    7
   13      0.146D-03      0.296D-05      -100.85695504    167.929623    0.16454   -0.08788    0.00000    8
   14      0.198D-04      0.895D-06      -100.85695504    167.929617    0.16446   -0.08787    0.00000    7
   15      0.359D-05      0.310D-06      -100.85695504    167.929704    0.16444   -0.08787    0.00000    7
   16      0.155D-05      0.133D-06      -100.85695504    167.929685    0.16443   -0.08787    0.00000    7

 Final alpha occupancy:   9
 Final beta  occupancy:   8

 !UKS STATE 1.1 Energy               -100.856955041534
 Nuclear energy                        34.28824494
 One-electron energy                 -218.57211880
 Two-electron energy                   83.96484228
 Density functional                    -0.53792346     CS1=-0.53792346
 Virial quotient                       -0.93955228
 !UKS STATE 1.1 Dipole moment           0.16443443    -0.08786742     0.00000000
 Dipole moment /Debye                   0.41792325    -0.22332208     0.00000000

 Orbital energies for positive spin:

         1.1          2.1          3.1          4.1          5.1          6.1          7.1          8.1          9.1         10.1
    -16.570205    -8.233896    -0.502463    -0.239243    -0.118832    -0.094886    -0.018605     0.088409     0.133373     0.207795

        11.1
      0.278093

 Orbital energies for negative spin:

         1.1          2.1          3.1          4.1          5.1          6.1          7.1          8.1          9.1         10.1
    -16.572951    -8.234098    -0.511246    -0.243754    -0.126023    -0.096785    -0.024065     0.128970     0.069789     0.203718

        11.1
      0.271725

 HOMO      9.1     0.133373 =       3.6293eV
 LUMO     -9.1     0.069789 =       1.8990eV
 LUMO-HOMO        -0.063585 =      -1.7302eV

 EXPECTATION VALUE OF S**2:             0.75023097

 Occupation number threshold for canonical orbitals:  1.999000 (occupied),  0.001000 (virtual)

 Number of pseudo-canonical orbitals per symmetry:    8
 Number of active natural orbitals per symmetry:      1

 Natural orbitals saved to record    2200.2 (Orbital set 3)

 Orbital spaces for UNO-CAS (Min. occupation: 0.020  Max. occupation: 1.980):

 Closed:        8
 Active:        1


 **********************************************************************************************************************************
 DATASETS  * FILE   NREC   LENGTH (MB)   RECORD NAMES
              1      20       32.48       500      610      700      900      950      970     1000      129      960     1100   
                                          VAR    BASINP    GEOM    SYMINP    ZMAT    AOBASIS   BASIS     P2S    ABASIS      S 
                                         1400     1410     1200     1210     1080     1600     1650     1300     1700     1800   
                                           T        V       H0       H01     AOSYM     SMH    MOLCAS    ERIS     OPER     GRID   

              2       5        2.90       700     1000      520     1800     2200   
                                         GEOM     BASIS   MCVARS    GRID      UKS  

 PROGRAMS   *        TOTAL       UKS       INT
 CPU TIMES  *         5.64      5.08      0.41
 REAL TIME  *         7.58 SEC
 DISK USED  *        41.20 MB      
 **********************************************************************************************************************************


 PROGRAM * Intrinsic Basis Bonding Analysis (IBBA)          Author: G. Knizia

 Molecular orbitals read from record     2200.2  Type=UKS/ALPHA (state 1.1)
 Fock matrix read from record            2200.2  Type=UKS/TOTAL (state 1.1)
 Orbital energies read from record       2200.2  Type=UKS/ALPHA (state 1.1)
 Density matrix read from record         2200.2  Type=UKS/CHARGE (state 1.1)

 Number of core orbitals:           2 (   2 )
 Number of closed-shell orbitals:   6 (   6 )
 Number of active  orbitals:        1 (   1 )

 Basis set MINAO-AUTO-PP generated.      Number of basis functions:   13 

 Polarized AO type:                A = (O Ot + (1-O)(1-Ot)) P12
 Orthogonalization method:         Symmetric (Loewdin)
 Localization functional:          L = sum[A,i] <i|n_A|i>^4 -> max

 Localization group 1:   8 orbitals, occupancy  2.000
 Iterative localization: IB/PM,    6 iter; Final gradient 0.49E-08

 Bond order analysis:       [THRPRINT= 0.020]

   CEN ATOM   CEN ATOM     WIBERG.BO      RENORM.BO
     1   O  -   2   C       1.416522       2.065342
     1   O  -   3   H       0.134646       0.638112
     1   O  -   4   H       0.090460       0.113552
     1   O  -   5   H       0.090460       0.113552

     2   C  -   1   O       1.416522       2.065342
     2   C  -   4   H       0.887809       0.866661
     2   C  -   5   H       0.887809       0.866661
     2   C  -   3   H       0.762877       0.994036

     3   H  -   2   C       0.762877       0.994036
     3   H  -   1   O       0.134646       0.638112

     4   H  -   2   C       0.887809       0.866661
     4   H  -   1   O       0.090460       0.113552

     5   H  -   2   C       0.887809       0.866661
     5   H  -   1   O       0.090460       0.113552


 Valency analysis:

   CEN ATOM   TOT.VALENCE
     1   O       1.732088
     2   C       3.955015
     3   H       0.936392
     4   H       0.999899
     5   H       0.999899
 Localization group 2:   1 orbitals, occupancy  1.000
 Iterative localization: IB/PM,    1 iter; Final gradient 0.00E+00

 Bond order analysis:       [THRPRINT= 0.020]

   CEN ATOM   CEN ATOM     WIBERG.BO      RENORM.BO
     1   O  -   3   H       0.217199       0.500000
     1   O  -   5   H       0.049843       0.500000
     1   O  -   4   H       0.049843       0.500000
     1   O  -   2   C       0.020673       0.500000

     2   C  -   1   O       0.020673       0.500000

     3   H  -   1   O       0.217199       0.500000

     4   H  -   1   O       0.049843       0.500000

     5   H  -   1   O       0.049843       0.500000


 Valency analysis:

   CEN ATOM   TOT.VALENCE
     1   O       0.337558
     2   C       0.025988
     3   H       0.238411
     4   H       0.061479
     5   H       0.061479

 Total charge composition:

   CEN ATOM         s          p       ELECTRONS ->P.CHARGE
     1   O       3.69690    4.35955      8.05645   -0.05645
     2   C       2.88917    3.12488      6.01406   -0.01406
     3   H       0.88614                 0.88614    0.11386
     4   H       1.02168                 1.02168   -0.02168
     5   H       1.02168                 1.02168   -0.02168

 Total charge composition, AO contributions:

   CEN ATOM SHL      SPHERICAL COMPONENTS
     1   O  1s       1.99930
     1   O  2s       1.69760
     1   O  2p       1.07063    1.42484    1.86408

     2   C  1s       1.99804
     2   C  2s       0.89113
     2   C  2p       1.10802    0.91773    1.09913

     3   H  1s       0.88614

     4   H  1s       1.02168

     5   H  1s       1.02168

 Active orbital charges:

   CEN ATOM         s          p       ELECTRONS ->SPIN.DEN
     1   O       0.00001    0.78499      0.78499    0.78499
     2   C       0.00071    0.01246      0.01317    0.01317
     3   H       0.13834                 0.13834    0.13834
     4   H       0.03175                 0.03175    0.03175
     5   H       0.03175                 0.03175    0.03175

 Active orbital charges, AO contributions:

   CEN ATOM SHL      SPHERICAL COMPONENTS
     1   O  1s       0.00000
     1   O  2s       0.00001
     1   O  2p       0.76806    0.01693    0.00000

     2   C  1s       0.00000
     2   C  2s       0.00071
     2   C  2p       0.01128    0.00118    0.00000

     3   H  1s       0.13834

     4   H  1s       0.03175

     5   H  1s       0.03175

 Summary of localized orbital composition:   [THRPRINT= 0.020]

   ORB  GRP  ORB.ENERGY      CENTERS/CHARGES
     1   1   -16.421383      O  1   2.000
     2   1    -8.158112      C  2   2.000
     3   1    -0.418954      O  1   1.140   C  2   0.859
     4   1    -0.257008      O  1   1.990
     5   1    -0.178105      C  2   1.009   H  4   0.951   O  1   0.027
     6   1    -0.178105      C  2   1.009   H  5   0.951   O  1   0.027
     7   1    -0.147681      C  2   1.054   H  3   0.720   O  1   0.223
     8   1     0.045009      O  1   1.864   C  2   0.064   H  5   0.036   H  4   0.036
     9   2     0.131172      O  1   0.785   H  3   0.138   H  5   0.032   H  4   0.032

 Localized orbitals saved to record      2200.2  (orbital set 4)


 **********************************************************************************************************************************
 DATASETS  * FILE   NREC   LENGTH (MB)   RECORD NAMES
              1      20       32.48       500      610      700      900      950      970     1000      129      960     1100   
                                          VAR    BASINP    GEOM    SYMINP    ZMAT    AOBASIS   BASIS     P2S    ABASIS      S 
                                         1400     1410     1200     1210     1080     1600     1650     1300     1700     1800   
                                           T        V       H0       H01     AOSYM     SMH    MOLCAS    ERIS     OPER     GRID   

              2       5        2.92       700     1000      520     1800     2200   
                                         GEOM     BASIS   MCVARS    GRID      UKS  

 PROGRAMS   *        TOTAL      IBBA       UKS       INT
 CPU TIMES  *         5.66      0.02      5.08      0.41
 REAL TIME  *         7.68 SEC
 DISK USED  *        41.20 MB      
 **********************************************************************************************************************************
 Molecular orbitals read from record     2200.2  Type=UKS/LOCAL(IBO)  
 Occupation numbers read from record     2200.2  Type=UKS/LOCAL(IBO)  
 Orbital energies read from record       2200.2  Type=UKS/LOCAL(IBO)  
 Redundancy group numbers read from rec  2200.2  Type=UKS/BETA (state 1.1)

 IBBA/SVP energy=      0.000000000000

        UKS-SCF 
   -100.85695504
 **********************************************************************************************************************************
 Molpro calculation terminated
