
 Primary working directories    : /tmp/sb13343
 Secondary working directories  : /tmp/sb13343
 Wavefunction directory         : /panfs/panasas01/chem/sb13343/wfu/
 Main file repository           : /tmp/sb13343/

 SHA1      : b4a5b34a9e711420743f49e6833241d17c61fb3c
 NAME      : 2099.9.b4a5b34
 ARCHNAME  : linux/x86_64_openmp
 FC        : /cm/shared/languages/GCC-6.1/bin/gfortran
 BLASLIB   : -lblas
 id        : simonbennie

 Nodes     nprocs
 node32-008    1

 Using customized tuning parameters: mindgm=1; mindgv=20; mindgc=4; mindgr=1; noblas=0; minvec=7
 default implementation of scratch files=df  

 memory,500,m
 geomtyp=xyz
 nosym
 noorient
 geometry={
 O         -0.07179        0.79048        0.00000
 C          0.07053       -0.57065        0.00000
 H         -0.96431       -0.97345        0.00000
 H          0.55775       -0.96326        0.90880
 H          0.55775       -0.96326       -0.90880
 }
 basis={ default,svp }
 {ks,B3LYP3,direct;wf,17,1,1}
 {ibba,bonds=1}

 Variables initialized (895), CPU time= 0.01 sec
 Commands  initialized (725), CPU time= 0.01 sec, 591 directives.
 Default parameters read. Elapsed time= 0.08 sec

 Checking input...
 Passed
1


                                         ***  PROGRAM SYSTEM MOLPRO  ***
                                       Copyright, TTI GmbH Stuttgart, 2015
                                    Version 2099.9 linked May 26 2017 16:03:21


 **********************************************************************************************************************************
 LABEL *                                                                                 
  64 bit serial version                                                                  DATE: 08-Jun-17          TIME: 17:08:36  
 **********************************************************************************************************************************

 SHA1:             b4a5b34a9e711420743f49e6833241d17c61fb3c
 **********************************************************************************************************************************
 SETTING GEOMTYP        =    XYZ

 Variable memory set to  500000000 words,  buffer space 

 ZSYMEL=NOSYM

 SETTING BASIS          =    SVP


 Recomputing integrals since basis changed


 Using spherical harmonics

 Library entry O      S def2-SVP             selected for orbital group  1
 Library entry O      P def2-SVP             selected for orbital group  1
 Library entry O      D def2-SVP             selected for orbital group  1
 Library entry C      S def2-SVP             selected for orbital group  2
 Library entry C      P def2-SVP             selected for orbital group  2
 Library entry C      D def2-SVP             selected for orbital group  2
 Library entry H      S def2-SVP             selected for orbital group  3
 Library entry H      P def2-SVP             selected for orbital group  3


 PROGRAM * SEWARD (Integral evaluation for generally contracted gaussian basis sets)     Author: Roland Lindh, 1990

 Geometry written to block  1 of record 700


 Point group  C1  



 ATOMIC COORDINATES

 NR  ATOM    CHARGE       X              Y              Z

   1  O       8.00   -0.135663438    1.493790707    0.000000000
   2  C       6.00    0.133282384   -1.078372213    0.000000000
   3  H       1.00   -1.822281799   -1.839553896    0.000000000
   4  H       1.00    1.053994746   -1.820297587    1.717383102
   5  H       1.00    1.053994746   -1.820297587   -1.717383102

 Bond lengths in Bohr (Angstrom)

 1-2  2.586185210  2-3  2.098482506  2-4  2.085082548  2-5  2.085082548
     ( 1.368550276)     ( 1.110469120)     ( 1.103378167)     ( 1.103378167)

 Bond angles

  1-2-3  105.29875708   1-2-4  113.56671130   1-2-5  113.56671130   3-2-4  106.40524792

  3-2-5  106.40524792   4-2-5  110.90419060

 NUCLEAR CHARGE:                   17
 NUMBER OF PRIMITIVE AOS:          71
 NUMBER OF SYMMETRY AOS:           69
 NUMBER OF CONTRACTIONS:           43   (  43A   )
 NUMBER OF CORE ORBITALS:           2   (   2A   )
 NUMBER OF VALENCE ORBITALS:       11   (  11A   )


 NUCLEAR REPULSION ENERGY   34.28824494


 Eigenvalues of metric

         1 0.119E-01 0.382E-01 0.461E-01 0.536E-01 0.110E+00 0.137E+00 0.139E+00 0.243E+00


 Contracted 2-electron integrals neglected if value below      1.0D-11
 AO integral compression algorithm  1   Integral accuracy      1.0D-11

     2.359 MB (compressed) written to integral file ( 48.8%)


 NUMBER OF SORTED TWO-ELECTRON INTEGRALS:     447931.     BUFFER LENGTH:  32768
 NUMBER OF SEGMENTS:   1  SEGMENT LENGTH:     447931      RECORD LENGTH: 524288

 Memory used in sort:       1.00 MW

 SORT1 READ      553316. AND WROTE      366431. INTEGRALS IN      2 RECORDS. CPU TIME:     0.01 SEC, REAL TIME:     0.02 SEC
 SORT2 READ      366431. AND WROTE      447931. INTEGRALS IN      9 RECORDS. CPU TIME:     0.03 SEC, REAL TIME:     0.04 SEC

 FILE SIZES:   FILE 1:    32.4 MBYTE,  FILE 4:     8.4 MBYTE,   TOTAL:     40.9 MBYTE

 OPERATOR DM      FOR CENTER  0  COORDINATES:    0.000000    0.000000    0.000000


 **********************************************************************************************************************************
 DATASETS  * FILE   NREC   LENGTH (MB)   RECORD NAMES
              1      19       31.84       500      610      700      900      950      970     1000      129      960     1100   
                                          VAR    BASINP    GEOM    SYMINP    ZMAT    AOBASIS   BASIS     P2S    ABASIS      S 
                                         1400     1410     1200     1210     1080     1600     1650     1300     1700   
                                           T        V       H0       H01     AOSYM     SMH    MOLCAS    ERIS     OPER   

 PROGRAMS   *        TOTAL       INT
 CPU TIMES  *         0.58      0.42
 REAL TIME  *         1.06 SEC
 DISK USED  *        41.20 MB      
 **********************************************************************************************************************************

 Density functional group B3LYP3=B88+DIRAC+LYP+VWN3
 Functional: B88(Automatically generated (new) B88)                            Gradient terms: 1
 Functional: DIRAC(Automatically generated (new) DIRAC)                        Gradient terms: 0
 Functional: LYP(Automatically generated (new) LYP)                            Gradient terms: 1
 Functional: VWN3(Automatically generated (new) VWN3)                          Gradient terms: 0
 Use grid at  1800.2


 Exact exchange will be calculated, factor:  0.2000

 Functional: B88                       Factor:  0.7200
 Functional: DIRAC                     Factor:  0.0800
 Functional: LYP                       Factor:  0.8100
 Functional: VWN3                      Factor:  0.1900

 Generated new metagrid on record  1800.2 with target accuracy 1.0D-06 and 19990 points in CPU time    0.5
 Computed new grid on record 1800.1 in CPU time    0.5
   38039 words reserved for DFT integration

 PROGRAM * RKS-SCF (Restricted open shell Kohn-Sham)     Authors: W. Meyer, H.-J. Werner, P.J. Knowles, 1993

 NUMBER OF ELECTRONS:       9+    8-    SPACE SYMMETRY=1    SPIN SYMMETRY: Doublet 
 CONVERGENCE THRESHOLDS:    1.00E-05 (Density)    1.00E-06 (Energy)
 MAX. NUMBER OF ITERATIONS:       60
 INTERPOLATION TYPE:            DIIS
 INTERPOLATION STEPS:              2 (START)      1 (STEP)
 LEVEL SHIFTS:                 -0.60 (CLOSED) -0.30 (OPEN) 



 Use fine grid record 1800.2 for energy threshold  1.0D-06
 Orbital guess generated from atomic densities. Full valence occupancy:    9

 Molecular orbital dump at record        2100.2

 Initial alpha occupancy:   9
 Initial beta  occupancy:   8
 Wave function symmetry:    1

 ITERATION    DDIFF          GRAD             ENERGY        2-EL.EN.            DIPOLE MOMENTS         DIIS   ORB.
    1      0.000D+00      0.000D+00      -114.91978207    177.712937   -0.06594   -1.40126    0.00000    0    start
    2      0.000D+00      0.992D-02      -114.95340446    173.112980   -0.00420   -0.83541    0.00000    1    diag,B
    3      0.112D-01      0.467D-02      -114.95939362    174.215867   -0.01295   -0.90630    0.00000    2    diag,B
    4      0.375D-02      0.944D-03      -114.96041117    174.080018   -0.01350   -0.83181    0.00000    3    diag,B
    5      0.137D-02      0.593D-03      -114.96089562    174.051866   -0.01348   -0.79861    0.00000    4    diag,B
    6      0.113D-02      0.191D-03      -114.96098339    174.040544   -0.01330   -0.78369    0.00000    5    diag,B
    7      0.558D-03      0.604D-04      -114.96099044    174.038692   -0.01294   -0.78236    0.00000    6    fixocc
    8      0.158D-03      0.163D-04      -114.96099085    174.040240   -0.01282   -0.78282    0.00000    7    diag,B
    9      0.460D-04      0.383D-05      -114.96099088    174.040291   -0.01283   -0.78291    0.00000    8    diag,B
   10      0.140D-04      0.137D-05      -114.96099088    174.040331   -0.01284   -0.78292    0.00000    9    orth
   11      0.486D-05      0.538D-06      -114.96099089    174.040330   -0.01284   -0.78292    0.00000    0    orth

 Final alpha occupancy:   9
 Final beta  occupancy:   8

 !RKS STATE 1.1 Energy               -114.960990885593
 Nuclear energy                        34.28824494
 One-electron energy                 -224.08651678
 Two-electron energy                   87.02016503
 Density functional                   -12.18288407     B88=-14.46629936 DIRAC=-13.02479075 LYP= -0.55971659 VWN3= -1.43049910
 Virial quotient                       -1.00829069
 !RKS STATE 1.1 Dipole moment          -0.01284259    -0.78292142     0.00000000
 Dipole moment /Debye                  -0.03264046    -1.98985742     0.00000000

 Orbital energies:

         1.1          2.1          3.1          4.1          5.1          6.1          7.1          8.1          9.1         10.1
    -19.160427   -10.244927    -0.983876    -0.657490    -0.459096    -0.455103    -0.422125    -0.273768    -0.342510     0.063865

        11.1
      0.115230

 HOMO      9.1    -0.342510 =      -9.3202eV
 LUMO     10.1     0.063865 =       1.7378eV
 LUMO-HOMO         0.406375 =      11.0580eV


 **********************************************************************************************************************************
 DATASETS  * FILE   NREC   LENGTH (MB)   RECORD NAMES
              1      20       32.48       500      610      700      900      950      970     1000      129      960     1100   
                                          VAR    BASINP    GEOM    SYMINP    ZMAT    AOBASIS   BASIS     P2S    ABASIS      S 
                                         1400     1410     1200     1210     1080     1600     1650     1300     1700     1800   
                                           T        V       H0       H01     AOSYM     SMH    MOLCAS    ERIS     OPER     GRID   

              2       5        2.87       700     1000      520     1800     2100   
                                         GEOM     BASIS   MCVARS    GRID      RKS  

 PROGRAMS   *        TOTAL        KS       INT
 CPU TIMES  *         2.97      2.40      0.42
 REAL TIME  *         3.55 SEC
 DISK USED  *        41.20 MB      
 **********************************************************************************************************************************


 PROGRAM * Intrinsic Basis Bonding Analysis (IBBA)          Author: G. Knizia

 Molecular orbitals read from record     2100.2  Type=RKS/CANONICAL (state 1.1)
 Fock matrix read from record            2100.2  Type=RKS/TOTAL (state 1.1)
 Orbital energies read from record       2100.2  Type=RKS/CANONICAL (state 1.1)
 Density matrix read from record         2100.2  Type=RKS/CHARGE (state 1.1)

 Number of core orbitals:           2 (   2 )
 Number of closed-shell orbitals:   6 (   6 )
 Number of active  orbitals:        1 (   1 )

 Basis set MINAO-AUTO-PP generated.      Number of basis functions:   13 

 Polarized AO type:                A = (O Ot + (1-O)(1-Ot)) P12
 Orthogonalization method:         Symmetric (Loewdin)
 Localization functional:          L = sum[A,i] <i|n_A|i>^4 -> max

 Localization group 1:   8 orbitals, occupancy  2.000
 Iterative localization: IB/PM,    6 iter; Final gradient 0.42E-08

 Bond order analysis:       [THRPRINT= 0.020]

   CEN ATOM   CEN ATOM     WIBERG.BO      RENORM.BO
     1   O  -   2   C       1.204525       2.022954
     1   O  -   3   H       0.095534       0.651240
     1   O  -   4   H       0.051786       0.129225
     1   O  -   5   H       0.051786       0.129225

     2   C  -   1   O       1.204525       2.022954
     2   C  -   5   H       0.922051       0.939115
     2   C  -   4   H       0.922051       0.939115
     2   C  -   3   H       0.837301       0.997188

     3   H  -   2   C       0.837301       0.997188
     3   H  -   1   O       0.095534       0.651240

     4   H  -   2   C       0.922051       0.939115
     4   H  -   1   O       0.051786       0.129225

     5   H  -   2   C       0.922051       0.939115
     5   H  -   1   O       0.051786       0.129225


 Valency analysis:

   CEN ATOM   TOT.VALENCE
     1   O       1.403633
     2   C       3.885928
     3   H       0.945092
     4   H       0.980623
     5   H       0.980623
 Localization group 2:   1 orbitals, occupancy  1.000
 Iterative localization: IB/PM,    1 iter; Final gradient 0.00E+00

 Bond order analysis:       [THRPRINT= 0.020]

   CEN ATOM   CEN ATOM     WIBERG.BO      RENORM.BO
     1   O  -   3   H       0.112577       0.500000
     1   O  -   2   C       0.038758       0.500000
     1   O  -   4   H       0.023243       0.500000
     1   O  -   5   H       0.023243       0.500000

     2   C  -   1   O       0.038758       0.500000

     3   H  -   1   O       0.112577       0.500000

     4   H  -   1   O       0.023243       0.500000

     5   H  -   1   O       0.023243       0.500000


 Valency analysis:

   CEN ATOM   TOT.VALENCE
     1   O       0.197821
     2   C       0.042661
     3   H       0.118652
     4   H       0.025812
     5   H       0.025812

 Total charge composition:

   CEN ATOM         s          p       ELECTRONS ->P.CHARGE
     1   O       3.76981    4.49231      8.26212   -0.26212
     2   C       3.00800    3.15311      6.16111   -0.16111
     3   H       0.82901                 0.82901    0.17099
     4   H       0.87388                 0.87388    0.12612
     5   H       0.87388                 0.87388    0.12612

 Total charge composition, AO contributions:

   CEN ATOM SHL      SPHERICAL COMPONENTS
     1   O  1s       1.99812
     1   O  2s       1.77170
     1   O  2p       1.08598    1.46360    1.94273

     2   C  1s       1.99176
     2   C  2s       1.01624
     2   C  2p       1.14742    0.83486    1.17083

     3   H  1s       0.82901

     4   H  1s       0.87388

     5   H  1s       0.87388

 Active orbital charges:

   CEN ATOM         s          p       ELECTRONS ->SPIN.DEN
     1   O       0.00000    0.88870      0.88870    0.88870
     2   C       0.00000    0.02181      0.02181    0.02181
     3   H       0.06334                 0.06334    0.06334
     4   H       0.01308                 0.01308    0.01308
     5   H       0.01308                 0.01308    0.01308

 Active orbital charges, AO contributions:

   CEN ATOM SHL      SPHERICAL COMPONENTS
     1   O  1s       0.00000
     1   O  2s       0.00000
     1   O  2p       0.87297    0.01573    0.00000

     2   C  1s       0.00000
     2   C  2s       0.00000
     2   C  2p       0.02158    0.00022    0.00000

     3   H  1s       0.06334

     4   H  1s       0.01308

     5   H  1s       0.01308

 Summary of localized orbital composition:   [THRPRINT= 0.020]

   ORB  GRP  ORB.ENERGY      CENTERS/CHARGES
     1   1   -18.880180      O  1   2.000
     2   1   -10.135647      C  2   2.000
     3   1    -0.856692      O  1   1.995
     4   1    -0.843341      O  1   1.246   C  2   0.754
     5   1    -0.554969      C  2   1.100   H  3   0.760   O  1   0.137
     6   1    -0.540323      C  2   1.131   H  5   0.840   O  1   0.026
     7   1    -0.540323      C  2   1.131   H  4   0.840   O  1   0.026
     8   1    -0.305337      O  1   1.943   C  2   0.022   (other: 0.036)
     9   2    -0.235678      O  1   0.889   H  3   0.063   C  2   0.022   (other: 0.026)

 Localized orbitals saved to record      2100.2  (orbital set 2)


 **********************************************************************************************************************************
 DATASETS  * FILE   NREC   LENGTH (MB)   RECORD NAMES
              1      20       32.48       500      610      700      900      950      970     1000      129      960     1100   
                                          VAR    BASINP    GEOM    SYMINP    ZMAT    AOBASIS   BASIS     P2S    ABASIS      S 
                                         1400     1410     1200     1210     1080     1600     1650     1300     1700     1800   
                                           T        V       H0       H01     AOSYM     SMH    MOLCAS    ERIS     OPER     GRID   

              2       5        2.89       700     1000      520     1800     2100   
                                         GEOM     BASIS   MCVARS    GRID      RKS  

 PROGRAMS   *        TOTAL      IBBA        KS       INT
 CPU TIMES  *         2.99      0.02      2.40      0.42
 REAL TIME  *         3.61 SEC
 DISK USED  *        41.20 MB      
 **********************************************************************************************************************************
 Molecular orbitals read from record     2100.2  Type=RKS/LOCAL(IBO)  
 Occupation numbers read from record     2100.2  Type=RKS/LOCAL(IBO)  
 Orbital energies read from record       2100.2  Type=RKS/LOCAL(IBO)  
 Redundancy group numbers read from rec  2100.2  Type=RKS/LOCAL(IBO)  

 IBBA/SVP energy=      0.000000000000

        KS-SCF  
   -114.96099089
 **********************************************************************************************************************************
 Molpro calculation terminated
