
 Primary working directories    : /tmp/sb13343
 Secondary working directories  : /tmp/sb13343
 Wavefunction directory         : /panfs/panasas01/chem/sb13343/wfu/
 Main file repository           : /tmp/sb13343/

 SHA1      : b4a5b34a9e711420743f49e6833241d17c61fb3c
 NAME      : 2099.9.b4a5b34
 ARCHNAME  : linux/x86_64_openmp
 FC        : /cm/shared/languages/GCC-6.1/bin/gfortran
 BLASLIB   : -lblas
 id        : simonbennie

 Nodes     nprocs
 node32-039    1

 Using customized tuning parameters: mindgm=1; mindgv=20; mindgc=4; mindgr=1; noblas=0; minvec=7
 default implementation of scratch files=df  

 memory,500,m
 geomtyp=xyz
 nosym
 noorient
 geometry={
 O         -0.07179        0.79048        0.00000
 C          0.07053       -0.57065        0.00000
 H         -0.96431       -0.97345        0.00000
 H          0.55775       -0.96326        0.90880
 H          0.55775       -0.96326       -0.90880
 }
 basis={ default,svp }
 {ks,PBE0MOL,direct;wf,17,1,1}
 {ibba,bonds=1}

 Variables initialized (895), CPU time= 0.00 sec
 Commands  initialized (725), CPU time= 0.01 sec, 591 directives.
 Default parameters read. Elapsed time= 0.08 sec

 Checking input...
 Passed
1


                                         ***  PROGRAM SYSTEM MOLPRO  ***
                                       Copyright, TTI GmbH Stuttgart, 2015
                                    Version 2099.9 linked May 26 2017 16:03:21


 **********************************************************************************************************************************
 LABEL *                                                                                 
  64 bit serial version                                                                  DATE: 08-Jun-17          TIME: 17:18:46  
 **********************************************************************************************************************************

 SHA1:             b4a5b34a9e711420743f49e6833241d17c61fb3c
 **********************************************************************************************************************************
 SETTING GEOMTYP        =    XYZ

 Variable memory set to  500000000 words,  buffer space 

 ZSYMEL=NOSYM

 SETTING BASIS          =    SVP


 Recomputing integrals since basis changed


 Using spherical harmonics

 Library entry O      S def2-SVP             selected for orbital group  1
 Library entry O      P def2-SVP             selected for orbital group  1
 Library entry O      D def2-SVP             selected for orbital group  1
 Library entry C      S def2-SVP             selected for orbital group  2
 Library entry C      P def2-SVP             selected for orbital group  2
 Library entry C      D def2-SVP             selected for orbital group  2
 Library entry H      S def2-SVP             selected for orbital group  3
 Library entry H      P def2-SVP             selected for orbital group  3


 PROGRAM * SEWARD (Integral evaluation for generally contracted gaussian basis sets)     Author: Roland Lindh, 1990

 Geometry written to block  1 of record 700


 Point group  C1  



 ATOMIC COORDINATES

 NR  ATOM    CHARGE       X              Y              Z

   1  O       8.00   -0.135663438    1.493790707    0.000000000
   2  C       6.00    0.133282384   -1.078372213    0.000000000
   3  H       1.00   -1.822281799   -1.839553896    0.000000000
   4  H       1.00    1.053994746   -1.820297587    1.717383102
   5  H       1.00    1.053994746   -1.820297587   -1.717383102

 Bond lengths in Bohr (Angstrom)

 1-2  2.586185210  2-3  2.098482506  2-4  2.085082548  2-5  2.085082548
     ( 1.368550276)     ( 1.110469120)     ( 1.103378167)     ( 1.103378167)

 Bond angles

  1-2-3  105.29875708   1-2-4  113.56671130   1-2-5  113.56671130   3-2-4  106.40524792

  3-2-5  106.40524792   4-2-5  110.90419060

 NUCLEAR CHARGE:                   17
 NUMBER OF PRIMITIVE AOS:          71
 NUMBER OF SYMMETRY AOS:           69
 NUMBER OF CONTRACTIONS:           43   (  43A   )
 NUMBER OF CORE ORBITALS:           2   (   2A   )
 NUMBER OF VALENCE ORBITALS:       11   (  11A   )


 NUCLEAR REPULSION ENERGY   34.28824494


 Eigenvalues of metric

         1 0.119E-01 0.382E-01 0.461E-01 0.536E-01 0.110E+00 0.137E+00 0.139E+00 0.243E+00


 Contracted 2-electron integrals neglected if value below      1.0D-11
 AO integral compression algorithm  1   Integral accuracy      1.0D-11

     2.359 MB (compressed) written to integral file ( 48.8%)


 NUMBER OF SORTED TWO-ELECTRON INTEGRALS:     447931.     BUFFER LENGTH:  32768
 NUMBER OF SEGMENTS:   1  SEGMENT LENGTH:     447931      RECORD LENGTH: 524288

 Memory used in sort:       1.00 MW

 SORT1 READ      553316. AND WROTE      366431. INTEGRALS IN      2 RECORDS. CPU TIME:     0.00 SEC, REAL TIME:     0.01 SEC
 SORT2 READ      366431. AND WROTE      447931. INTEGRALS IN      9 RECORDS. CPU TIME:     0.03 SEC, REAL TIME:     0.04 SEC

 FILE SIZES:   FILE 1:    32.4 MBYTE,  FILE 4:     8.4 MBYTE,   TOTAL:     40.9 MBYTE

 OPERATOR DM      FOR CENTER  0  COORDINATES:    0.000000    0.000000    0.000000


 **********************************************************************************************************************************
 DATASETS  * FILE   NREC   LENGTH (MB)   RECORD NAMES
              1      19       31.84       500      610      700      900      950      970     1000      129      960     1100   
                                          VAR    BASINP    GEOM    SYMINP    ZMAT    AOBASIS   BASIS     P2S    ABASIS      S 
                                         1400     1410     1200     1210     1080     1600     1650     1300     1700   
                                           T        V       H0       H01     AOSYM     SMH    MOLCAS    ERIS     OPER   

 PROGRAMS   *        TOTAL       INT
 CPU TIMES  *         0.40      0.26
 REAL TIME  *         0.77 SEC
 DISK USED  *        41.20 MB      
 **********************************************************************************************************************************

 Density functional group PBE0MOL=PBEX+PW91C
 Functional: PBEX(Automatically generated (new) PBEX)                          Gradient terms: 1
 Functional: PW91C(Automatically generated (new) PW91C)                        Gradient terms: 1
 Use grid at  1800.2


 Exact exchange will be calculated, factor:  0.2500

 Functional: PBEX                      Factor:  0.7500
 Functional: PW91C                     Factor:  1.0000

 Generated new metagrid on record  1800.2 with target accuracy 1.0D-06 and 19990 points in CPU time    0.5
 Computed new grid on record 1800.1 in CPU time    0.5
   38039 words reserved for DFT integration

 PROGRAM * RKS-SCF (Restricted open shell Kohn-Sham)     Authors: W. Meyer, H.-J. Werner, P.J. Knowles, 1993

 NUMBER OF ELECTRONS:       9+    8-    SPACE SYMMETRY=1    SPIN SYMMETRY: Doublet 
 CONVERGENCE THRESHOLDS:    1.00E-05 (Density)    1.00E-06 (Energy)
 MAX. NUMBER OF ITERATIONS:       60
 INTERPOLATION TYPE:            DIIS
 INTERPOLATION STEPS:              2 (START)      1 (STEP)
 LEVEL SHIFTS:                 -0.60 (CLOSED) -0.30 (OPEN) 



 Use fine grid record 1800.2 for energy threshold  1.0D-06
 Orbital guess generated from atomic densities. Full valence occupancy:    9

 Molecular orbital dump at record        2100.2

 Initial alpha occupancy:   9
 Initial beta  occupancy:   8
 Wave function symmetry:    1

 ITERATION    DDIFF          GRAD             ENERGY        2-EL.EN.            DIPOLE MOMENTS         DIIS   ORB.
    1      0.000D+00      0.000D+00      -114.83237480    175.755858   -0.06995   -1.41658    0.00000    0    start
    2      0.000D+00      0.890D-02      -114.86138293    171.784915   -0.00879   -0.85714    0.00000    1    diag,B
    3      0.977D-02      0.424D-02      -114.86667825    172.687643   -0.01480   -0.91421    0.00000    2    diag,B
    4      0.326D-02      0.900D-03      -114.86790608    172.578008   -0.01438   -0.84117    0.00000    3    diag,B
    5      0.126D-02      0.603D-03      -114.86851214    172.552231   -0.01318   -0.80500    0.00000    4    diag,B
    6      0.112D-02      0.194D-03      -114.86861017    172.542740   -0.01227   -0.79064    0.00000    5    diag,B
    7      0.522D-03      0.588D-04      -114.86861660    172.541339   -0.01166   -0.78993    0.00000    6    fixocc
    8      0.141D-03      0.165D-04      -114.86861701    172.543206   -0.01149   -0.79055    0.00000    7    diag,B
    9      0.478D-04      0.438D-05      -114.86861705    172.543283   -0.01147   -0.79068    0.00000    8    diag,B
   10      0.166D-04      0.164D-05      -114.86861705    172.543351   -0.01148   -0.79069    0.00000    9    orth
   11      0.574D-05      0.676D-06      -114.86861706    172.543345   -0.01149   -0.79069    0.00000    0    orth

 Final alpha occupancy:   9
 Final beta  occupancy:   8

 !RKS STATE 1.1 Energy               -114.868617055979
 Nuclear energy                        34.28824494
 One-electron energy                 -224.06218539
 Two-electron energy                   86.27167248
 Density functional                   -11.36634908     PBEX=-14.37531424 PW91C= -0.58486340
 Virial quotient                       -1.00776239
 !RKS STATE 1.1 Dipole moment          -0.01149090    -0.79069110     0.00000000
 Dipole moment /Debye                  -0.02920505    -2.00960470     0.00000000

 Orbital energies:

         1.1          2.1          3.1          4.1          5.1          6.1          7.1          8.1          9.1         10.1
    -19.242315   -10.293120    -1.011270    -0.675645    -0.471765    -0.465232    -0.437027    -0.286453    -0.362148     0.077479

        11.1
      0.128193

 HOMO      9.1    -0.362148 =      -9.8545eV
 LUMO     10.1     0.077479 =       2.1083eV
 LUMO-HOMO         0.439627 =      11.9629eV


 **********************************************************************************************************************************
 DATASETS  * FILE   NREC   LENGTH (MB)   RECORD NAMES
              1      20       32.48       500      610      700      900      950      970     1000      129      960     1100   
                                          VAR    BASINP    GEOM    SYMINP    ZMAT    AOBASIS   BASIS     P2S    ABASIS      S 
                                         1400     1410     1200     1210     1080     1600     1650     1300     1700     1800   
                                           T        V       H0       H01     AOSYM     SMH    MOLCAS    ERIS     OPER     GRID   

              2       5        2.87       700     1000      520     1800     2100   
                                         GEOM     BASIS   MCVARS    GRID      RKS  

 PROGRAMS   *        TOTAL        KS       INT
 CPU TIMES  *         2.81      2.40      0.26
 REAL TIME  *         3.25 SEC
 DISK USED  *        41.20 MB      
 **********************************************************************************************************************************


 PROGRAM * Intrinsic Basis Bonding Analysis (IBBA)          Author: G. Knizia

 Molecular orbitals read from record     2100.2  Type=RKS/CANONICAL (state 1.1)
 Fock matrix read from record            2100.2  Type=RKS/TOTAL (state 1.1)
 Orbital energies read from record       2100.2  Type=RKS/CANONICAL (state 1.1)
 Density matrix read from record         2100.2  Type=RKS/CHARGE (state 1.1)

 Number of core orbitals:           2 (   2 )
 Number of closed-shell orbitals:   6 (   6 )
 Number of active  orbitals:        1 (   1 )

 Basis set MINAO-AUTO-PP generated.      Number of basis functions:   13 

 Polarized AO type:                A = (O Ot + (1-O)(1-Ot)) P12
 Orthogonalization method:         Symmetric (Loewdin)
 Localization functional:          L = sum[A,i] <i|n_A|i>^4 -> max

 Localization group 1:   8 orbitals, occupancy  2.000
 Iterative localization: IB/PM,    6 iter; Final gradient 0.47E-08

 Bond order analysis:       [THRPRINT= 0.020]

   CEN ATOM   CEN ATOM     WIBERG.BO      RENORM.BO
     1   O  -   2   C       1.192659       2.022118
     1   O  -   3   H       0.090097       0.654394
     1   O  -   4   H       0.049999       0.129261
     1   O  -   5   H       0.049999       0.129261

     2   C  -   1   O       1.192659       2.022118
     2   C  -   5   H       0.922916       0.940578
     2   C  -   4   H       0.922916       0.940578
     2   C  -   3   H       0.843008       0.997332

     3   H  -   2   C       0.843008       0.997332
     3   H  -   1   O       0.090097       0.654394

     4   H  -   2   C       0.922916       0.940578
     4   H  -   1   O       0.049999       0.129261

     5   H  -   2   C       0.922916       0.940578
     5   H  -   1   O       0.049999       0.129261


 Valency analysis:

   CEN ATOM   TOT.VALENCE
     1   O       1.382754
     2   C       3.881497
     3   H       0.944663
     4   H       0.979271
     5   H       0.979271
 Localization group 2:   1 orbitals, occupancy  1.000
 Iterative localization: IB/PM,    1 iter; Final gradient 0.00E+00

 Bond order analysis:       [THRPRINT= 0.020]

   CEN ATOM   CEN ATOM     WIBERG.BO      RENORM.BO
     1   O  -   3   H       0.107080       0.500000
     1   O  -   2   C       0.036795       0.500000
     1   O  -   4   H       0.022050       0.500000
     1   O  -   5   H       0.022050       0.500000

     2   C  -   1   O       0.036795       0.500000

     3   H  -   1   O       0.107080       0.500000

     4   H  -   1   O       0.022050       0.500000

     5   H  -   1   O       0.022050       0.500000


 Valency analysis:

   CEN ATOM   TOT.VALENCE
     1   O       0.187975
     2   C       0.040268
     3   H       0.112487
     4   H       0.024333
     5   H       0.024333

 Total charge composition:

   CEN ATOM         s          p       ELECTRONS ->P.CHARGE
     1   O       3.77033    4.48639      8.25672   -0.25672
     2   C       3.01294    3.16907      6.18201   -0.18201
     3   H       0.82458                 0.82458    0.17542
     4   H       0.86834                 0.86834    0.13166
     5   H       0.86834                 0.86834    0.13166

 Total charge composition, AO contributions:

   CEN ATOM SHL      SPHERICAL COMPONENTS
     1   O  1s       1.99810
     1   O  2s       1.77223
     1   O  2p       1.08083    1.46142    1.94414

     2   C  1s       1.99163
     2   C  2s       1.02131
     2   C  2p       1.15624    0.83701    1.17582

     3   H  1s       0.82458

     4   H  1s       0.86834

     5   H  1s       0.86834

 Active orbital charges:

   CEN ATOM         s          p       ELECTRONS ->SPIN.DEN
     1   O       0.00000    0.89498      0.89498    0.89498
     2   C       0.00000    0.02056      0.02056    0.02056
     3   H       0.05982                 0.05982    0.05982
     4   H       0.01232                 0.01232    0.01232
     5   H       0.01232                 0.01232    0.01232

 Active orbital charges, AO contributions:

   CEN ATOM SHL      SPHERICAL COMPONENTS
     1   O  1s       0.00000
     1   O  2s       0.00000
     1   O  2p       0.87923    0.01576    0.00000

     2   C  1s       0.00000
     2   C  2s       0.00000
     2   C  2p       0.02033    0.00022    0.00000

     3   H  1s       0.05982

     4   H  1s       0.01232

     5   H  1s       0.01232

 Summary of localized orbital composition:   [THRPRINT= 0.020]

   ORB  GRP  ORB.ENERGY      CENTERS/CHARGES
     1   1   -18.953780      O  1   2.000
     2   1   -10.182636      C  2   2.000
     3   1    -0.888053      O  1   1.995
     4   1    -0.864075      O  1   1.244   C  2   0.756
     5   1    -0.567570      C  2   1.109   H  3   0.760   O  1   0.129
     6   1    -0.553088      C  2   1.137   H  5   0.836   O  1   0.025
     7   1    -0.553088      C  2   1.137   H  4   0.836   O  1   0.025
     8   1    -0.320539      O  1   1.944   C  2   0.021   (other: 0.035)
     9   2    -0.236400      O  1   0.895   H  3   0.060   C  2   0.021   (other: 0.025)

 Localized orbitals saved to record      2100.2  (orbital set 2)


 **********************************************************************************************************************************
 DATASETS  * FILE   NREC   LENGTH (MB)   RECORD NAMES
              1      20       32.48       500      610      700      900      950      970     1000      129      960     1100   
                                          VAR    BASINP    GEOM    SYMINP    ZMAT    AOBASIS   BASIS     P2S    ABASIS      S 
                                         1400     1410     1200     1210     1080     1600     1650     1300     1700     1800   
                                           T        V       H0       H01     AOSYM     SMH    MOLCAS    ERIS     OPER     GRID   

              2       5        2.89       700     1000      520     1800     2100   
                                         GEOM     BASIS   MCVARS    GRID      RKS  

 PROGRAMS   *        TOTAL      IBBA        KS       INT
 CPU TIMES  *         2.83      0.02      2.40      0.26
 REAL TIME  *         3.32 SEC
 DISK USED  *        41.20 MB      
 **********************************************************************************************************************************
 Molecular orbitals read from record     2100.2  Type=RKS/LOCAL(IBO)  
 Occupation numbers read from record     2100.2  Type=RKS/LOCAL(IBO)  
 Orbital energies read from record       2100.2  Type=RKS/LOCAL(IBO)  
 Redundancy group numbers read from rec  2100.2  Type=RKS/LOCAL(IBO)  

 IBBA/SVP energy=      0.000000000000

        KS-SCF  
   -114.86861706
 **********************************************************************************************************************************
 Molpro calculation terminated
