
 Primary working directories    : /tmp/sb13343
 Secondary working directories  : /tmp/sb13343
 Wavefunction directory         : /panfs/panasas01/chem/sb13343/wfu/
 Main file repository           : /tmp/sb13343/

 SHA1      : b4a5b34a9e711420743f49e6833241d17c61fb3c
 NAME      : 2099.9.b4a5b34
 ARCHNAME  : linux/x86_64_openmp
 FC        : /cm/shared/languages/GCC-6.1/bin/gfortran
 BLASLIB   : -lblas
 id        : simonbennie

 Nodes     nprocs
 node32-039    1

 Using customized tuning parameters: mindgm=1; mindgv=20; mindgc=4; mindgr=1; noblas=0; minvec=7
 default implementation of scratch files=df  

 memory,500,m
 geomtyp=xyz
 nosym
 noorient
 geometry={
 O         -0.07179        0.79048        0.00000
 C          0.07053       -0.57065        0.00000
 H         -0.96431       -0.97345        0.00000
 H          0.55775       -0.96326        0.90880
 H          0.55775       -0.96326       -0.90880
 }
 basis={ default,svp }
 {ks,MM06,direct;wf,17,1,1}
 {ibba,bonds=1}

 Variables initialized (895), CPU time= 0.00 sec
 Commands  initialized (725), CPU time= 0.01 sec, 591 directives.
 Default parameters read. Elapsed time= 0.08 sec

 Checking input...
 Passed
1


                                         ***  PROGRAM SYSTEM MOLPRO  ***
                                       Copyright, TTI GmbH Stuttgart, 2015
                                    Version 2099.9 linked May 26 2017 16:03:21


 **********************************************************************************************************************************
 LABEL *                                                                                 
  64 bit serial version                                                                  DATE: 08-Jun-17          TIME: 17:13:24  
 **********************************************************************************************************************************

 SHA1:             b4a5b34a9e711420743f49e6833241d17c61fb3c
 **********************************************************************************************************************************
 SETTING GEOMTYP        =    XYZ

 Variable memory set to  500000000 words,  buffer space 

 ZSYMEL=NOSYM

 SETTING BASIS          =    SVP


 Recomputing integrals since basis changed


 Using spherical harmonics

 Library entry O      S def2-SVP             selected for orbital group  1
 Library entry O      P def2-SVP             selected for orbital group  1
 Library entry O      D def2-SVP             selected for orbital group  1
 Library entry C      S def2-SVP             selected for orbital group  2
 Library entry C      P def2-SVP             selected for orbital group  2
 Library entry C      D def2-SVP             selected for orbital group  2
 Library entry H      S def2-SVP             selected for orbital group  3
 Library entry H      P def2-SVP             selected for orbital group  3


 PROGRAM * SEWARD (Integral evaluation for generally contracted gaussian basis sets)     Author: Roland Lindh, 1990

 Geometry written to block  1 of record 700


 Point group  C1  



 ATOMIC COORDINATES

 NR  ATOM    CHARGE       X              Y              Z

   1  O       8.00   -0.135663438    1.493790707    0.000000000
   2  C       6.00    0.133282384   -1.078372213    0.000000000
   3  H       1.00   -1.822281799   -1.839553896    0.000000000
   4  H       1.00    1.053994746   -1.820297587    1.717383102
   5  H       1.00    1.053994746   -1.820297587   -1.717383102

 Bond lengths in Bohr (Angstrom)

 1-2  2.586185210  2-3  2.098482506  2-4  2.085082548  2-5  2.085082548
     ( 1.368550276)     ( 1.110469120)     ( 1.103378167)     ( 1.103378167)

 Bond angles

  1-2-3  105.29875708   1-2-4  113.56671130   1-2-5  113.56671130   3-2-4  106.40524792

  3-2-5  106.40524792   4-2-5  110.90419060

 NUCLEAR CHARGE:                   17
 NUMBER OF PRIMITIVE AOS:          71
 NUMBER OF SYMMETRY AOS:           69
 NUMBER OF CONTRACTIONS:           43   (  43A   )
 NUMBER OF CORE ORBITALS:           2   (   2A   )
 NUMBER OF VALENCE ORBITALS:       11   (  11A   )


 NUCLEAR REPULSION ENERGY   34.28824494


 Eigenvalues of metric

         1 0.119E-01 0.382E-01 0.461E-01 0.536E-01 0.110E+00 0.137E+00 0.139E+00 0.243E+00


 Contracted 2-electron integrals neglected if value below      1.0D-11
 AO integral compression algorithm  1   Integral accuracy      1.0D-11

     2.359 MB (compressed) written to integral file ( 48.8%)


 NUMBER OF SORTED TWO-ELECTRON INTEGRALS:     447931.     BUFFER LENGTH:  32768
 NUMBER OF SEGMENTS:   1  SEGMENT LENGTH:     447931      RECORD LENGTH: 524288

 Memory used in sort:       1.00 MW

 SORT1 READ      553316. AND WROTE      366431. INTEGRALS IN      2 RECORDS. CPU TIME:     0.01 SEC, REAL TIME:     0.02 SEC
 SORT2 READ      366431. AND WROTE      447931. INTEGRALS IN      9 RECORDS. CPU TIME:     0.02 SEC, REAL TIME:     0.04 SEC

 FILE SIZES:   FILE 1:    32.4 MBYTE,  FILE 4:     8.4 MBYTE,   TOTAL:     40.9 MBYTE

 OPERATOR DM      FOR CENTER  0  COORDINATES:    0.000000    0.000000    0.000000


 **********************************************************************************************************************************
 DATASETS  * FILE   NREC   LENGTH (MB)   RECORD NAMES
              1      19       31.84       500      610      700      900      950      970     1000      129      960     1100   
                                          VAR    BASINP    GEOM    SYMINP    ZMAT    AOBASIS   BASIS     P2S    ABASIS      S 
                                         1400     1410     1200     1210     1080     1600     1650     1300     1700   
                                           T        V       H0       H01     AOSYM     SMH    MOLCAS    ERIS     OPER   

 PROGRAMS   *        TOTAL       INT
 CPU TIMES  *         0.41      0.27
 REAL TIME  *         0.76 SEC
 DISK USED  *        41.20 MB      
 **********************************************************************************************************************************

 Density functional group MM06=M06X+M06C
 Functional: M06X(Automatically generated (new) M06X)                          Gradient terms: 2
 Functional: M06C(Automatically generated (new) M06C)                          Gradient terms: 2
 Use grid at  1800.2


 Exact exchange will be calculated, factor:  0.2700

 Functional: M06X                      Factor:  0.7300
 Functional: M06C                      Factor:  1.0000

 Generated new metagrid on record  1800.2 with target accuracy 1.0D-06 and 19990 points in CPU time    0.5
 Computed new grid on record 1800.1 in CPU time    0.5
   70805 words reserved for DFT integration

 PROGRAM * RKS-SCF (Restricted open shell Kohn-Sham)     Authors: W. Meyer, H.-J. Werner, P.J. Knowles, 1993

 NUMBER OF ELECTRONS:       9+    8-    SPACE SYMMETRY=1    SPIN SYMMETRY: Doublet 
 CONVERGENCE THRESHOLDS:    1.00E-05 (Density)    1.00E-06 (Energy)
 MAX. NUMBER OF ITERATIONS:       60
 INTERPOLATION TYPE:            DIIS
 INTERPOLATION STEPS:              2 (START)      1 (STEP)
 LEVEL SHIFTS:                 -0.60 (CLOSED) -0.30 (OPEN) 



 Use fine grid record 1800.2 for energy threshold  1.0D-06
 Orbital guess generated from atomic densities. Full valence occupancy:    9

 Molecular orbital dump at record        2100.2

 Initial alpha occupancy:   9
 Initial beta  occupancy:   8
 Wave function symmetry:    1

 ITERATION    DDIFF          GRAD             ENERGY        2-EL.EN.            DIPOLE MOMENTS         DIIS   ORB.
    1      0.000D+00      0.000D+00      -112.07314689    171.066920   -0.08290   -1.09381    0.00000    0    start
    2      0.000D+00      0.581D-02      -112.08645256    169.803203   -0.02956   -0.89612    0.00000    1    diag,B
    3      0.537D-02      0.160D-02      -112.08790262    169.844493   -0.03391   -0.80357    0.00000    2    diag,B
    4      0.192D-02      0.700D-03      -112.08837651    169.853611   -0.03410   -0.77803    0.00000    3    diag,B
    5      0.103D-02      0.299D-03      -112.08855672    169.774921   -0.03393   -0.74896    0.00000    4    diag,B
    6      0.734D-03      0.172D-03      -112.08860656    169.777421   -0.03386   -0.73946    0.00000    5    diag,B
    7      0.479D-03      0.441D-04      -112.08861063    169.772255   -0.03359   -0.73821    0.00000    6    fixocc
    8      0.137D-03      0.139D-04      -112.08861092    169.773405   -0.03345   -0.73859    0.00000    7    diag,B
    9      0.449D-04      0.300D-05      -112.08861094    169.773481   -0.03343   -0.73869    0.00000    8    diag,B
   10      0.118D-04      0.846D-06      -112.08861094    169.773520   -0.03342   -0.73870    0.00000    9    orth
   11      0.344D-05      0.276D-06      -112.08861094    169.773524   -0.03342   -0.73870    0.00000    0    orth

 Final alpha occupancy:   9
 Final beta  occupancy:   8

 !RKS STATE 1.1 Energy               -112.088610936841
 Nuclear energy                        34.28824494
 One-electron energy                 -223.06848542
 Two-electron energy                   84.88676212
 Density functional                    -8.19513258     M06X=-10.30920731 M06C= -0.66941124
 Virial quotient                       -0.99495967
 !RKS STATE 1.1 Dipole moment          -0.03341794    -0.73869797     0.00000000
 Dipole moment /Debye                  -0.08493436    -1.87745998     0.00000000

 Orbital energies:

         1.1          2.1          3.1          4.1          5.1          6.1          7.1          8.1          9.1         10.1
    -18.817242    -9.962863    -0.923018    -0.595452    -0.405078    -0.403228    -0.365370    -0.214654    -0.266685     0.103000

        11.1
      0.154267

 HOMO      9.1    -0.266685 =      -7.2569eV
 LUMO     10.1     0.103000 =       2.8028eV
 LUMO-HOMO         0.369686 =      10.0597eV


 **********************************************************************************************************************************
 DATASETS  * FILE   NREC   LENGTH (MB)   RECORD NAMES
              1      20       32.48       500      610      700      900      950      970     1000      129      960     1100   
                                          VAR    BASINP    GEOM    SYMINP    ZMAT    AOBASIS   BASIS     P2S    ABASIS      S 
                                         1400     1410     1200     1210     1080     1600     1650     1300     1700     1800   
                                           T        V       H0       H01     AOSYM     SMH    MOLCAS    ERIS     OPER     GRID   

              2       5        2.87       700     1000      520     1800     2100   
                                         GEOM     BASIS   MCVARS    GRID      RKS  

 PROGRAMS   *        TOTAL        KS       INT
 CPU TIMES  *         8.50      8.09      0.27
 REAL TIME  *         9.28 SEC
 DISK USED  *        41.20 MB      
 **********************************************************************************************************************************


 PROGRAM * Intrinsic Basis Bonding Analysis (IBBA)          Author: G. Knizia

 Molecular orbitals read from record     2100.2  Type=RKS/CANONICAL (state 1.1)
 Fock matrix read from record            2100.2  Type=RKS/TOTAL (state 1.1)
 Orbital energies read from record       2100.2  Type=RKS/CANONICAL (state 1.1)
 Density matrix read from record         2100.2  Type=RKS/CHARGE (state 1.1)

 Number of core orbitals:           2 (   2 )
 Number of closed-shell orbitals:   6 (   6 )
 Number of active  orbitals:        1 (   1 )

 Basis set MINAO-AUTO-PP generated.      Number of basis functions:   13 

 Polarized AO type:                A = (O Ot + (1-O)(1-Ot)) P12
 Orthogonalization method:         Symmetric (Loewdin)
 Localization functional:          L = sum[A,i] <i|n_A|i>^4 -> max

 Localization group 1:   8 orbitals, occupancy  2.000
 Iterative localization: IB/PM,    6 iter; Final gradient 0.38E-08

 Bond order analysis:       [THRPRINT= 0.020]

   CEN ATOM   CEN ATOM     WIBERG.BO      RENORM.BO
     1   O  -   2   C       1.252000       2.027748
     1   O  -   3   H       0.106822       0.632722
     1   O  -   4   H       0.059758       0.129515
     1   O  -   5   H       0.059758       0.129515

     2   C  -   1   O       1.252000       2.027748
     2   C  -   5   H       0.915758       0.928956
     2   C  -   4   H       0.915758       0.928956
     2   C  -   3   H       0.821107       0.997035

     3   H  -   2   C       0.821107       0.997035
     3   H  -   1   O       0.106822       0.632722

     4   H  -   2   C       0.915758       0.928956
     4   H  -   1   O       0.059758       0.129515

     5   H  -   2   C       0.915758       0.928956
     5   H  -   1   O       0.059758       0.129515


 Valency analysis:

   CEN ATOM   TOT.VALENCE
     1   O       1.478338
     2   C       3.904622
     3   H       0.945110
     4   H       0.985018
     5   H       0.985018
 Localization group 2:   1 orbitals, occupancy  1.000
 Iterative localization: IB/PM,    1 iter; Final gradient 0.00E+00

 Bond order analysis:       [THRPRINT= 0.020]

   CEN ATOM   CEN ATOM     WIBERG.BO      RENORM.BO
     1   O  -   3   H       0.130883       0.500000
     1   O  -   2   C       0.041649       0.500000
     1   O  -   4   H       0.027722       0.500000
     1   O  -   5   H       0.027722       0.500000

     2   C  -   1   O       0.041649       0.500000

     3   H  -   1   O       0.130883       0.500000

     4   H  -   1   O       0.027722       0.500000

     5   H  -   1   O       0.027722       0.500000


 Valency analysis:

   CEN ATOM   TOT.VALENCE
     1   O       0.227976
     2   C       0.046789
     3   H       0.139301
     4   H       0.031400
     5   H       0.031400

 Total charge composition:

   CEN ATOM         s          p       ELECTRONS ->P.CHARGE
     1   O       3.75739    4.48533      8.24272   -0.24272
     2   C       2.98128    3.14785      6.12913   -0.12913
     3   H       0.84104                 0.84104    0.15896
     4   H       0.89356                 0.89356    0.10644
     5   H       0.89356                 0.89356    0.10644

 Total charge composition, AO contributions:

   CEN ATOM SHL      SPHERICAL COMPONENTS
     1   O  1s       1.99835
     1   O  2s       1.75904
     1   O  2p       1.09498    1.45855    1.93180

     2   C  1s       1.99316
     2   C  2s       0.98813
     2   C  2p       1.13587    0.85157    1.16040

     3   H  1s       0.84104

     4   H  1s       0.89356

     5   H  1s       0.89356

 Active orbital charges:

   CEN ATOM         s          p       ELECTRONS ->SPIN.DEN
     1   O       0.00001    0.86879      0.86880    0.86880
     2   C       0.00000    0.02397      0.02397    0.02397
     3   H       0.07532                 0.07532    0.07532
     4   H       0.01595                 0.01595    0.01595
     5   H       0.01595                 0.01595    0.01595

 Active orbital charges, AO contributions:

   CEN ATOM SHL      SPHERICAL COMPONENTS
     1   O  1s       0.00000
     1   O  2s       0.00001
     1   O  2p       0.85307    0.01572    0.00000

     2   C  1s       0.00000
     2   C  2s       0.00000
     2   C  2p       0.02372    0.00025    0.00000

     3   H  1s       0.07532

     4   H  1s       0.01595

     5   H  1s       0.01595

 Summary of localized orbital composition:   [THRPRINT= 0.020]

   ORB  GRP  ORB.ENERGY      CENTERS/CHARGES
     1   1   -18.550994      O  1   2.000
     2   1    -9.860235      C  2   2.000
     3   1    -0.787571      O  1   1.229   C  2   0.771
     4   1    -0.780893      O  1   1.995
     5   1    -0.498124      C  2   1.081   H  3   0.758   O  1   0.158
     6   1    -0.479919      C  2   1.112   H  5   0.854   O  1   0.030
     7   1    -0.479919      C  2   1.112   H  4   0.854   O  1   0.030
     8   1    -0.249251      O  1   1.932   C  2   0.027   H  4   0.021   H  5   0.021
     9   2    -0.168023      O  1   0.869   H  3   0.075   C  2   0.024   (other: 0.032)

 Localized orbitals saved to record      2100.2  (orbital set 2)


 **********************************************************************************************************************************
 DATASETS  * FILE   NREC   LENGTH (MB)   RECORD NAMES
              1      20       32.48       500      610      700      900      950      970     1000      129      960     1100   
                                          VAR    BASINP    GEOM    SYMINP    ZMAT    AOBASIS   BASIS     P2S    ABASIS      S 
                                         1400     1410     1200     1210     1080     1600     1650     1300     1700     1800   
                                           T        V       H0       H01     AOSYM     SMH    MOLCAS    ERIS     OPER     GRID   

              2       5        2.89       700     1000      520     1800     2100   
                                         GEOM     BASIS   MCVARS    GRID      RKS  

 PROGRAMS   *        TOTAL      IBBA        KS       INT
 CPU TIMES  *         8.53      0.01      8.09      0.27
 REAL TIME  *         9.34 SEC
 DISK USED  *        41.20 MB      
 **********************************************************************************************************************************
 Molecular orbitals read from record     2100.2  Type=RKS/LOCAL(IBO)  
 Occupation numbers read from record     2100.2  Type=RKS/LOCAL(IBO)  
 Orbital energies read from record       2100.2  Type=RKS/LOCAL(IBO)  
 Redundancy group numbers read from rec  2100.2  Type=RKS/LOCAL(IBO)  

 IBBA/SVP energy=      0.000000000000

        KS-SCF  
   -112.08861094
 **********************************************************************************************************************************
 Molpro calculation terminated
