
 Primary working directories    : /tmp/sb13343
 Secondary working directories  : /tmp/sb13343
 Wavefunction directory         : /panfs/panasas01/chem/sb13343/wfu/
 Main file repository           : /tmp/sb13343/

 SHA1      : b4a5b34a9e711420743f49e6833241d17c61fb3c
 NAME      : 2099.9.b4a5b34
 ARCHNAME  : linux/x86_64_openmp
 FC        : /cm/shared/languages/GCC-6.1/bin/gfortran
 BLASLIB   : -lblas
 id        : simonbennie

 Nodes     nprocs
 node33-003    1

 Using customized tuning parameters: mindgm=1; mindgv=20; mindgc=4; mindgr=1; noblas=0; minvec=7
 default implementation of scratch files=df  

 memory,500,m
 geomtyp=xyz
 nosym
 noorient
 geometry={
 O         -0.07179        0.79048        0.00000
 C          0.07053       -0.57065        0.00000
 H         -0.96431       -0.97345        0.00000
 H          0.55775       -0.96326        0.90880
 H          0.55775       -0.96326       -0.90880
 }
 basis={ default,svp }
 {uks,MM06-HF,direct;wf,17,1,1}
 {ibba,bonds=1}

 Variables initialized (895), CPU time= 0.01 sec
 Commands  initialized (725), CPU time= 0.01 sec, 591 directives.
 Default parameters read. Elapsed time= 0.09 sec

 Checking input...
 Passed
1


                                         ***  PROGRAM SYSTEM MOLPRO  ***
                                       Copyright, TTI GmbH Stuttgart, 2015
                                    Version 2099.9 linked May 26 2017 16:03:21


 **********************************************************************************************************************************
 LABEL *                                                                                 
  64 bit serial version                                                                  DATE: 08-Jun-17          TIME: 17:14:28  
 **********************************************************************************************************************************

 SHA1:             b4a5b34a9e711420743f49e6833241d17c61fb3c
 **********************************************************************************************************************************
 SETTING GEOMTYP        =    XYZ

 Variable memory set to  500000000 words,  buffer space 

 ZSYMEL=NOSYM

 SETTING BASIS          =    SVP


 Recomputing integrals since basis changed


 Using spherical harmonics

 Library entry O      S def2-SVP             selected for orbital group  1
 Library entry O      P def2-SVP             selected for orbital group  1
 Library entry O      D def2-SVP             selected for orbital group  1
 Library entry C      S def2-SVP             selected for orbital group  2
 Library entry C      P def2-SVP             selected for orbital group  2
 Library entry C      D def2-SVP             selected for orbital group  2
 Library entry H      S def2-SVP             selected for orbital group  3
 Library entry H      P def2-SVP             selected for orbital group  3


 PROGRAM * SEWARD (Integral evaluation for generally contracted gaussian basis sets)     Author: Roland Lindh, 1990

 Geometry written to block  1 of record 700


 Point group  C1  



 ATOMIC COORDINATES

 NR  ATOM    CHARGE       X              Y              Z

   1  O       8.00   -0.135663438    1.493790707    0.000000000
   2  C       6.00    0.133282384   -1.078372213    0.000000000
   3  H       1.00   -1.822281799   -1.839553896    0.000000000
   4  H       1.00    1.053994746   -1.820297587    1.717383102
   5  H       1.00    1.053994746   -1.820297587   -1.717383102

 Bond lengths in Bohr (Angstrom)

 1-2  2.586185210  2-3  2.098482506  2-4  2.085082548  2-5  2.085082548
     ( 1.368550276)     ( 1.110469120)     ( 1.103378167)     ( 1.103378167)

 Bond angles

  1-2-3  105.29875708   1-2-4  113.56671130   1-2-5  113.56671130   3-2-4  106.40524792

  3-2-5  106.40524792   4-2-5  110.90419060

 NUCLEAR CHARGE:                   17
 NUMBER OF PRIMITIVE AOS:          71
 NUMBER OF SYMMETRY AOS:           69
 NUMBER OF CONTRACTIONS:           43   (  43A   )
 NUMBER OF CORE ORBITALS:           2   (   2A   )
 NUMBER OF VALENCE ORBITALS:       11   (  11A   )


 NUCLEAR REPULSION ENERGY   34.28824494


 Eigenvalues of metric

         1 0.119E-01 0.382E-01 0.461E-01 0.536E-01 0.110E+00 0.137E+00 0.139E+00 0.243E+00


 Contracted 2-electron integrals neglected if value below      1.0D-11
 AO integral compression algorithm  1   Integral accuracy      1.0D-11

     2.359 MB (compressed) written to integral file ( 48.8%)


 NUMBER OF SORTED TWO-ELECTRON INTEGRALS:     447931.     BUFFER LENGTH:  32768
 NUMBER OF SEGMENTS:   1  SEGMENT LENGTH:     447931      RECORD LENGTH: 524288

 Memory used in sort:       1.00 MW

 SORT1 READ      553316. AND WROTE      366431. INTEGRALS IN      2 RECORDS. CPU TIME:     0.01 SEC, REAL TIME:     0.02 SEC
 SORT2 READ      366431. AND WROTE      447931. INTEGRALS IN      9 RECORDS. CPU TIME:     0.03 SEC, REAL TIME:     0.04 SEC

 FILE SIZES:   FILE 1:    32.4 MBYTE,  FILE 4:     8.4 MBYTE,   TOTAL:     40.9 MBYTE

 OPERATOR DM      FOR CENTER  0  COORDINATES:    0.000000    0.000000    0.000000


 **********************************************************************************************************************************
 DATASETS  * FILE   NREC   LENGTH (MB)   RECORD NAMES
              1      19       31.84       500      610      700      900      950      970     1000      129      960     1100   
                                          VAR    BASINP    GEOM    SYMINP    ZMAT    AOBASIS   BASIS     P2S    ABASIS      S 
                                         1400     1410     1200     1210     1080     1600     1650     1300     1700   
                                           T        V       H0       H01     AOSYM     SMH    MOLCAS    ERIS     OPER   

 PROGRAMS   *        TOTAL       INT
 CPU TIMES  *         0.40      0.27
 REAL TIME  *         0.76 SEC
 DISK USED  *        41.20 MB      
 **********************************************************************************************************************************

 Density functional group MM06-HF=M06HFX+M06HFC
 Functional: M06HFX(Automatically generated (new) M06HFX)                      Gradient terms: 2
 Functional: M06HFC(Automatically generated (new) M06HFC)                      Gradient terms: 2
 Use grid at  1800.2


 Exact exchange will be calculated, factor:  1.0000

 Functional: M06HFX                    Factor:  1.0000
 Functional: M06HFC                    Factor:  1.0000

 Generated new metagrid on record  1800.2 with target accuracy 1.0D-06 and 19990 points in CPU time    0.5
 Computed new grid on record 1800.1 in CPU time    0.5
   70805 words reserved for DFT integration

 PROGRAM * UKS-SCF (Unrestricted Kohn-Sham)     Authors: W. Meyer, H.-J. Werner, P.J. Knowles, 1993

 NUMBER OF ELECTRONS:       9+    8-    SPACE SYMMETRY=1    SPIN SYMMETRY: Doublet 
 CONVERGENCE THRESHOLDS:    1.00E-05 (Density)    1.00E-06 (Energy)
 MAX. NUMBER OF ITERATIONS:       60
 INTERPOLATION TYPE:            DIIS
 INTERPOLATION STEPS:              2 (START)      1 (STEP)
 LEVEL SHIFTS:                 -0.20 (ALPHA)  -0.20 (BETA) 



 Use fine grid record 1800.2 for energy threshold  1.0D-06
 Orbital guess generated from atomic densities. Full valence occupancy:    9

 Molecular orbital dump at record        2200.2

 Initial alpha occupation   9
 Initial beta  occupation   8

 ITERATION    DDIFF          GRAD             ENERGY        2-EL.EN.            DIPOLE MOMENTS         DIIS
    1      0.000D+00      0.000D+00      -114.83743269    152.045367   -0.10111   -1.71531    0.00000    0
    2      0.805D-02      0.704D-02      -114.88009772    150.614392   -0.05593   -1.11863    0.00000    1
    3      0.326D-02      0.327D-02      -114.89070694    150.998570   -0.03753   -1.08895    0.00000    2
    4      0.225D-02      0.192D-02      -114.89952302    150.890494   -0.01619   -0.94815    0.00000    3
    5      0.227D-02      0.122D-02      -114.90434763    150.832985   -0.00050   -0.86453    0.00000    4
    6      0.136D-02      0.568D-03      -114.90545344    150.769433    0.00579   -0.82869    0.00000    5
    7      0.305D-03      0.131D-03      -114.90550821    150.775210    0.00590   -0.82322    0.00000    6
    8      0.675D-04      0.433D-04      -114.90551234    150.770313    0.00540   -0.82296    0.00000    7
    9      0.302D-04      0.203D-04      -114.90551364    150.772450    0.00497   -0.82331    0.00000    8
   10      0.229D-04      0.118D-04      -114.90551417    150.772119    0.00475   -0.82342    0.00000    8
   11      0.151D-04      0.627D-05      -114.90551435    150.772025    0.00461   -0.82342    0.00000    8
   12      0.830D-05      0.295D-05      -114.90551439    150.772216    0.00453   -0.82347    0.00000    7
   13      0.307D-05      0.128D-05      -114.90551440    150.772105    0.00450   -0.82346    0.00000    8

 Final alpha occupancy:   9
 Final beta  occupancy:   8

 !UKS STATE 1.1 Energy               -114.905514395384
 Nuclear energy                        34.28824494
 One-electron energy                 -223.99755969
 Two-electron energy                   75.38605267
 Density functional                    -0.58225232     M06HFX= 0.03005334 M06HFC=-0.61230567
 Virial quotient                       -1.00817267
 !UKS STATE 1.1 Dipole moment           0.00449512    -0.82345849     0.00000000
 Dipole moment /Debye                   0.01142470    -2.09288562     0.00000000

 Orbital energies for positive spin:

         1.1          2.1          3.1          4.1          5.1          6.1          7.1          8.1          9.1         10.1
    -20.247284   -11.035612    -1.244710    -0.863657    -0.665419    -0.640149    -0.607818    -0.493714    -0.463104     0.136595

        11.1
      0.202285

 Orbital energies for negative spin:

         1.1          2.1          3.1          4.1          5.1          6.1          7.1          8.1          9.1         10.1
    -20.234458   -11.035923    -1.208263    -0.844375    -0.631574    -0.585956    -0.576763    -0.441729     0.033285     0.132744

        11.1
      0.205410

 HOMO     -8.1    -0.441729 =     -12.0201eV
 LUMO     -9.1     0.033285 =       0.9057eV
 LUMO-HOMO         0.475014 =      12.9258eV

 EXPECTATION VALUE OF S**2:             0.75334588

 Occupation number threshold for canonical orbitals:  1.999000 (occupied),  0.001000 (virtual)

 Number of pseudo-canonical orbitals per symmetry:    8
 Number of active natural orbitals per symmetry:      1

 Natural orbitals saved to record    2200.2 (Orbital set 3)

 Orbital spaces for UNO-CAS (Min. occupation: 0.020  Max. occupation: 1.980):

 Closed:        8
 Active:        1


 **********************************************************************************************************************************
 DATASETS  * FILE   NREC   LENGTH (MB)   RECORD NAMES
              1      20       32.48       500      610      700      900      950      970     1000      129      960     1100   
                                          VAR    BASINP    GEOM    SYMINP    ZMAT    AOBASIS   BASIS     P2S    ABASIS      S 
                                         1400     1410     1200     1210     1080     1600     1650     1300     1700     1800   
                                           T        V       H0       H01     AOSYM     SMH    MOLCAS    ERIS     OPER     GRID   

              2       5        2.90       700     1000      520     1800     2200   
                                         GEOM     BASIS   MCVARS    GRID      UKS  

 PROGRAMS   *        TOTAL       UKS       INT
 CPU TIMES  *         9.92      9.52      0.27
 REAL TIME  *        11.20 SEC
 DISK USED  *        41.20 MB      
 **********************************************************************************************************************************


 PROGRAM * Intrinsic Basis Bonding Analysis (IBBA)          Author: G. Knizia

 Molecular orbitals read from record     2200.2  Type=UKS/ALPHA (state 1.1)
 Fock matrix read from record            2200.2  Type=UKS/TOTAL (state 1.1)
 Orbital energies read from record       2200.2  Type=UKS/ALPHA (state 1.1)
 Density matrix read from record         2200.2  Type=UKS/CHARGE (state 1.1)

 Number of core orbitals:           2 (   2 )
 Number of closed-shell orbitals:   6 (   6 )
 Number of active  orbitals:        1 (   1 )

 Basis set MINAO-AUTO-PP generated.      Number of basis functions:   13 

 Polarized AO type:                A = (O Ot + (1-O)(1-Ot)) P12
 Orthogonalization method:         Symmetric (Loewdin)
 Localization functional:          L = sum[A,i] <i|n_A|i>^4 -> max

 Localization group 1:   8 orbitals, occupancy  2.000
 Iterative localization: IB/PM,    6 iter; Final gradient 0.31E-09

 Bond order analysis:       [THRPRINT= 0.020]

   CEN ATOM   CEN ATOM     WIBERG.BO      RENORM.BO
     1   O  -   2   C       1.541121       2.011906
     1   O  -   5   H       0.150807       0.334397
     1   O  -   4   H       0.150807       0.334397
     1   O  -   3   H       0.021686       0.012179

     2   C  -   1   O       1.541121       2.011906
     2   C  -   3   H       0.967267       0.962501
     2   C  -   4   H       0.690209       0.984253
     2   C  -   5   H       0.690209       0.984253

     3   H  -   2   C       0.967267       0.962501
     3   H  -   1   O       0.021686       0.012179

     4   H  -   2   C       0.690209       0.984253
     4   H  -   1   O       0.150807       0.334397
     4   H  -   5   H       0.053333       0.116677

     5   H  -   2   C       0.690209       0.984253
     5   H  -   1   O       0.150807       0.334397
     5   H  -   4   H       0.053333       0.116677


 Valency analysis:

   CEN ATOM   TOT.VALENCE
     1   O       1.864420
     2   C       3.888804
     3   H       0.990423
     4   H       0.895084
     5   H       0.895084
 Localization group 2:   1 orbitals, occupancy  1.000
 Iterative localization: IB/PM,    1 iter; Final gradient 0.00E+00

 Bond order analysis:       [THRPRINT= 0.020]

   CEN ATOM   CEN ATOM     WIBERG.BO      RENORM.BO
     1   O  -   2   C       0.169236       0.500000
     1   O  -   5   H       0.137846       0.500000
     1   O  -   4   H       0.137846       0.500000

     2   C  -   1   O       0.169236       0.500000
     2   C  -   5   H       0.026302       0.500000
     2   C  -   4   H       0.026302       0.500000


     4   H  -   1   O       0.137846       0.500000
     4   H  -   2   C       0.026302       0.500000
     4   H  -   5   H       0.021423       0.500000

     5   H  -   1   O       0.137846       0.500000
     5   H  -   2   C       0.026302       0.500000
     5   H  -   4   H       0.021423       0.500000


 Valency analysis:

   CEN ATOM   TOT.VALENCE
     1   O       0.444928
     2   C       0.221840
     3   H       0.000000
     4   H       0.185571
     5   H       0.185571

 Total charge composition:

   CEN ATOM         s          p       ELECTRONS ->P.CHARGE
     1   O       3.75391    4.79707      8.55098   -0.55098
     2   C       2.98223    3.00546      5.98770    0.01230
     3   H       0.90214                 0.90214    0.09786
     4   H       0.77959                 0.77959    0.22041
     5   H       0.77959                 0.77959    0.22041

 Total charge composition, AO contributions:

   CEN ATOM SHL      SPHERICAL COMPONENTS
     1   O  1s       1.99798
     1   O  2s       1.75594
     1   O  2p       1.96540    1.51928    1.31239

     2   C  1s       1.99110
     2   C  2s       0.99113
     2   C  2p       1.15884    0.81116    1.03546

     3   H  1s       0.90214

     4   H  1s       0.77959

     5   H  1s       0.77959

 Active orbital charges:

   CEN ATOM         s          p       ELECTRONS ->SPIN.DEN
     1   O       0.00000    0.66594      0.66594    0.66594
     2   C       0.00000    0.12707      0.12707    0.12707
     3   H       0.00000                 0.00000    0.00000
     4   H       0.10350                 0.10350    0.10350
     5   H       0.10350                 0.10350    0.10350

 Active orbital charges, AO contributions:

   CEN ATOM SHL      SPHERICAL COMPONENTS
     1   O  1s       0.00000
     1   O  2s       0.00000
     1   O  2p       0.00000    0.00000    0.66594

     2   C  1s       0.00000
     2   C  2s       0.00000
     2   C  2p       0.00000    0.00000    0.12707

     3   H  1s       0.00000

     4   H  1s       0.10350

     5   H  1s       0.10350

 Summary of localized orbital composition:   [THRPRINT= 0.020]

   ORB  GRP  ORB.ENERGY      CENTERS/CHARGES
     1   1   -19.938229      O  1   2.000
     2   1   -10.921061      C  2   2.000
     3   1    -1.074472      O  1   1.996
     4   1    -1.066449      O  1   1.270   C  2   0.730
     5   1    -0.814566      C  2   1.103   H  4   0.449   H  5   0.449
     6   1    -0.698288      C  2   1.108   H  3   0.890
     7   1    -0.635331      C  2   0.908   O  1   0.646   H  5   0.223   H  4   0.223
     8   1    -0.274839      O  1   1.972   (other: 0.028)
     9   2    -0.452387      O  1   0.666   C  2   0.127   H  5   0.103   H  4   0.103

 Localized orbitals saved to record      2200.2  (orbital set 4)


 **********************************************************************************************************************************
 DATASETS  * FILE   NREC   LENGTH (MB)   RECORD NAMES
              1      20       32.48       500      610      700      900      950      970     1000      129      960     1100   
                                          VAR    BASINP    GEOM    SYMINP    ZMAT    AOBASIS   BASIS     P2S    ABASIS      S 
                                         1400     1410     1200     1210     1080     1600     1650     1300     1700     1800   
                                           T        V       H0       H01     AOSYM     SMH    MOLCAS    ERIS     OPER     GRID   

              2       5        2.92       700     1000      520     1800     2200   
                                         GEOM     BASIS   MCVARS    GRID      UKS  

 PROGRAMS   *        TOTAL      IBBA       UKS       INT
 CPU TIMES  *         9.95      0.01      9.52      0.27
 REAL TIME  *        11.27 SEC
 DISK USED  *        41.20 MB      
 **********************************************************************************************************************************
 Molecular orbitals read from record     2200.2  Type=UKS/LOCAL(IBO)  
 Occupation numbers read from record     2200.2  Type=UKS/LOCAL(IBO)  
 Orbital energies read from record       2200.2  Type=UKS/LOCAL(IBO)  
 Redundancy group numbers read from rec  2200.2  Type=UKS/BETA (state 1.1)

 IBBA/SVP energy=      0.000000000000

        UKS-SCF 
   -114.90551440
 **********************************************************************************************************************************
 Molpro calculation terminated
