
 Primary working directories    : /tmp/sb13343
 Secondary working directories  : /tmp/sb13343
 Wavefunction directory         : /panfs/panasas01/chem/sb13343/wfu/
 Main file repository           : /tmp/sb13343/

 SHA1      : b4a5b34a9e711420743f49e6833241d17c61fb3c
 NAME      : 2099.9.b4a5b34
 ARCHNAME  : linux/x86_64_openmp
 FC        : /cm/shared/languages/GCC-6.1/bin/gfortran
 BLASLIB   : -lblas
 id        : simonbennie

 Nodes     nprocs
 node34-009    1

 Using customized tuning parameters: mindgm=1; mindgv=20; mindgc=4; mindgr=1; noblas=0; minvec=7
 default implementation of scratch files=df  

 memory,500,m
 geomtyp=xyz
 nosym
 noorient
 geometry={
 O          0.00000        0.00000       -0.10921
 H          0.00000        0.00000        0.87370
 }
 basis={ default,sto-3g }
 {ks,M05-2X,direct;wf,9,1,1}
 {ibba,bonds=1}

 Variables initialized (895), CPU time= 0.01 sec
 Commands  initialized (725), CPU time= 0.01 sec, 591 directives.
 Default parameters read. Elapsed time= 0.08 sec

 Checking input...
 Passed
1


                                         ***  PROGRAM SYSTEM MOLPRO  ***
                                       Copyright, TTI GmbH Stuttgart, 2015
                                    Version 2099.9 linked May 26 2017 16:03:21


 **********************************************************************************************************************************
 LABEL *                                                                                 
  64 bit serial version                                                                  DATE: 08-Jun-17          TIME: 18:28:06  
 **********************************************************************************************************************************

 SHA1:             b4a5b34a9e711420743f49e6833241d17c61fb3c
 **********************************************************************************************************************************
 SETTING GEOMTYP        =    XYZ

 Variable memory set to  500000000 words,  buffer space 

 ZSYMEL=NOSYM

 SETTING BASIS          =    STO-3G


 Recomputing integrals since basis changed


 Using spherical harmonics

 Library entry O      S STO-3G               selected for orbital group  1
 Library entry O      P STO-3G               selected for orbital group  1
 Library entry H      S STO-3G               selected for orbital group  2


 PROGRAM * SEWARD (Integral evaluation for generally contracted gaussian basis sets)     Author: Roland Lindh, 1990

 Geometry written to block  1 of record 700


 Point group  C1  



 ATOMIC COORDINATES

 NR  ATOM    CHARGE       X              Y              Z

   1  O       8.00    0.000000000    0.000000000   -0.206376990
   2  H       1.00    0.000000000    0.000000000    1.651053715

 Bond lengths in Bohr (Angstrom)

 1-2  1.857430705
     ( 0.982910000)

 NUCLEAR CHARGE:                    9
 NUMBER OF PRIMITIVE AOS:          18
 NUMBER OF SYMMETRY AOS:           18
 NUMBER OF CONTRACTIONS:            6   (   6A   )
 NUMBER OF CORE ORBITALS:           1   (   1A   )
 NUMBER OF VALENCE ORBITALS:        5   (   5A   )


 NUCLEAR REPULSION ENERGY    4.30702474

 EXTRA SYMMETRY OF AOS IN SYMMETRY 1:   1 1 2 3 1 1

 Eigenvalues of metric

         1 0.387E+00 0.840E+00 0.100E+01 0.100E+01 0.113E+01 0.164E+01


 Contracted 2-electron integrals neglected if value below      1.0D-11
 AO integral compression algorithm  1   Integral accuracy      1.0D-11

     0.262 MB (compressed) written to integral file (100.0%)


 NUMBER OF SORTED TWO-ELECTRON INTEGRALS:        231.     BUFFER LENGTH:  32768
 NUMBER OF SEGMENTS:   1  SEGMENT LENGTH:        231      RECORD LENGTH: 524288

 Memory used in sort:       0.56 MW

 SORT1 READ         319. AND WROTE          83. INTEGRALS IN      1 RECORDS. CPU TIME:     0.00 SEC, REAL TIME:     0.01 SEC
 SORT2 READ          83. AND WROTE         231. INTEGRALS IN      1 RECORDS. CPU TIME:     0.00 SEC, REAL TIME:     0.00 SEC

 FILE SIZES:   FILE 1:    30.2 MBYTE,  FILE 4:     4.2 MBYTE,   TOTAL:     34.4 MBYTE

 OPERATOR DM      FOR CENTER  0  COORDINATES:    0.000000    0.000000    0.000000


 **********************************************************************************************************************************
 DATASETS  * FILE   NREC   LENGTH (MB)   RECORD NAMES
              1      19       29.95       500      610      700      900      950      970     1000      129      960     1100   
                                          VAR    BASINP    GEOM    SYMINP    ZMAT    AOBASIS   BASIS     P2S    ABASIS      S 
                                         1400     1410     1200     1210     1080     1600     1650     1300     1700   
                                           T        V       H0       H01     AOSYM     SMH    MOLCAS    ERIS     OPER   

 PROGRAMS   *        TOTAL       INT
 CPU TIMES  *         0.33      0.18
 REAL TIME  *         0.62 SEC
 DISK USED  *        34.71 MB      
 **********************************************************************************************************************************

 Density functional group M05-2X=XC-M05-2X
 Functional: XC-M05-2X(via MFM 1.6)                                            Gradient terms: 1
 Use grid at  1800.2


 Exact exchange will be calculated, factor:  0.5600

 Functional: XC-M05-2X                 Factor:  1.0000

 Generated new metagrid on record  1800.2 with target accuracy 1.0D-06 and 8278 points in CPU time    0.1
 Computed new grid on record 1800.1 in CPU time    0.1
    8594 words reserved for DFT integration

 PROGRAM * RKS-SCF (Restricted open shell Kohn-Sham)     Authors: W. Meyer, H.-J. Werner, P.J. Knowles, 1993

 NUMBER OF ELECTRONS:       5+    4-    SPACE SYMMETRY=1    SPIN SYMMETRY: Doublet 
 CONVERGENCE THRESHOLDS:    1.00E-05 (Density)    1.00E-06 (Energy)
 MAX. NUMBER OF ITERATIONS:       60
 INTERPOLATION TYPE:            DIIS
 INTERPOLATION STEPS:              2 (START)      1 (STEP)
 LEVEL SHIFTS:                 -0.60 (CLOSED) -0.30 (OPEN) 



 Use fine grid record 1800.2 for energy threshold  1.0D-06
 Orbital guess generated from atomic densities. Full valence occupancy:    5

 Molecular orbital dump at record        2100.2

 Initial alpha occupancy:   5
 Initial beta  occupancy:   4
 Wave function symmetry:    1

 ITERATION    DDIFF          GRAD             ENERGY        2-EL.EN.            DIPOLE MOMENTS         DIIS   ORB.
    1      0.000D+00      0.000D+00       -74.69953202     75.896175   -0.00000   -0.00000    0.96230    0    start
    2      0.000D+00      0.448D-01       -74.73054304     74.756785    0.00000   -0.00000    0.63385    1    diag,B
    3      0.711D-01      0.133D-01       -74.73367368     74.343203    0.00000   -0.00000    0.49317    2    diag,B
    4      0.312D-01      0.219D-02       -74.73374831     74.346254    0.00000   -0.00000    0.48449    3    diag,B
    5      0.445D-02      0.320D-03       -74.73375128     74.340905    0.00000   -0.00000    0.48146    4    diag,B
    6      0.946D-03      0.101D-03       -74.73375243     74.341432    0.00000   -0.00000    0.48165    5    diag,B
    7      0.297D-03      0.998D-04       -74.73360482     74.341671   -0.00000   -0.00000    0.48026    6    fixocc
    8      0.797D-01      0.444D-03       -74.73382660     74.341621   -0.00000   -0.00000    0.48205    7    diag,B
    9      0.462D-01      0.974D-04       -74.73382751     74.341715   -0.00000   -0.00000    0.48175    8    diag,B
   10      0.242D-02      0.339D-04       -74.73382752     74.341725   -0.00000   -0.00000    0.48172    9    orth
   11      0.651D-04      0.273D-04       -74.73382754     74.341753   -0.00000   -0.00000    0.48164    9    diag,B
   12      0.299D-03      0.797D-05       -74.73382754     74.341761   -0.00000   -0.00000    0.48161    9    diag,B
   13      0.196D-03      0.230D-05       -74.73382754     74.341761   -0.00000   -0.00000    0.48161    9    diag,B
   14      0.715D-04      0.169D-05       -74.73382752     74.341761   -0.00000   -0.00000    0.48160    9    diag,B
   15      0.179D-03      0.658D-06       -74.73382753     74.341762   -0.00000   -0.00000    0.48160    9    diag,B
   16      0.590D-04      0.199D-06       -74.73382753     74.341763   -0.00000   -0.00000    0.48160    9    diag,B
   17      0.274D-04      0.163D-07       -74.73382753     74.341763   -0.00000   -0.00000    0.48160    9    diag,B
   18      0.215D-05      0.108D-08       -74.73382753     74.341763   -0.00000   -0.00000    0.48160    0    orth

 Final alpha occupancy:   5
 Final beta  occupancy:   4

 !RKS STATE 1.1 Energy                -74.733827531079
 Nuclear energy                         4.30702474
 One-electron energy                 -112.00595875
 Two-electron energy                   37.17088141
 Density functional                    -4.20577493     XC-M05-2X=-4.20577493
 Virial quotient                       -1.00992549
 !RKS STATE 1.1 Dipole moment          -0.00000000    -0.00000000     0.48159804
 Dipole moment /Debye                  -0.00000000    -0.00000000     1.22401995

 Orbital energies:

         1.1          2.1          3.1          4.1          5.1          6.1
    -19.414307    -1.008513    -0.414840    -0.260802    -0.361635     0.442638

 HOMO      5.1    -0.361635 =      -9.8406eV
 LUMO      6.1     0.442638 =      12.0448eV
 LUMO-HOMO         0.804273 =      21.8854eV


 **********************************************************************************************************************************
 DATASETS  * FILE   NREC   LENGTH (MB)   RECORD NAMES
              1      20       30.22       500      610      700      900      950      970     1000      129      960     1100   
                                          VAR    BASINP    GEOM    SYMINP    ZMAT    AOBASIS   BASIS     P2S    ABASIS      S 
                                         1400     1410     1200     1210     1080     1600     1650     1300     1700     1800   
                                           T        V       H0       H01     AOSYM     SMH    MOLCAS    ERIS     OPER     GRID   

              2       5        2.76       700     1000      520     1800     2100   
                                         GEOM     BASIS   MCVARS    GRID      RKS  

 PROGRAMS   *        TOTAL        KS       INT
 CPU TIMES  *         1.23      0.90      0.18
 REAL TIME  *         1.59 SEC
 DISK USED  *        34.71 MB      
 **********************************************************************************************************************************


 PROGRAM * Intrinsic Basis Bonding Analysis (IBBA)          Author: G. Knizia

 Molecular orbitals read from record     2100.2  Type=RKS/CANONICAL (state 1.1)
 Fock matrix read from record            2100.2  Type=RKS/TOTAL (state 1.1)
 Orbital energies read from record       2100.2  Type=RKS/CANONICAL (state 1.1)
 Density matrix read from record         2100.2  Type=RKS/CHARGE (state 1.1)

 Number of core orbitals:           1 (   1 )
 Number of closed-shell orbitals:   3 (   3 )
 Number of active  orbitals:        1 (   1 )

 Basis set MINAO-AUTO-PP generated.      Number of basis functions:   6 

 Polarized AO type:                A = (O Ot + (1-O)(1-Ot)) P12
 Orthogonalization method:         Symmetric (Loewdin)
 Localization functional:          L = sum[A,i] <i|n_A|i>^4 -> max

 Localization group 1:   4 orbitals, occupancy  2.000
 Iterative localization: IB/PM,    3 iter; Final gradient 0.61E-16

 Bond order analysis:       [THRPRINT= 0.020]

   CEN ATOM   CEN ATOM     WIBERG.BO      RENORM.BO
     1   O  -   2   H       0.954410       1.000000

     2   H  -   1   O       0.954410       1.000000


 Valency analysis:

   CEN ATOM   TOT.VALENCE
     1   O       0.954410
     2   H       0.954410
 Localization group 2:   1 orbitals, occupancy  1.000
 Iterative localization: IB/PM,    1 iter; Final gradient 0.00E+00

 Bond order analysis:       [THRPRINT= 0.020]

   CEN ATOM   CEN ATOM     WIBERG.BO      RENORM.BO



 Valency analysis:

   CEN ATOM   TOT.VALENCE
     1   O      -0.000000
     2   H       0.000000

 Total charge composition:

   CEN ATOM         s          p       ELECTRONS ->P.CHARGE
     1   O       3.83965    4.37386      8.21352   -0.21352
     2   H       0.78648                 0.78648    0.21352

 Total charge composition, AO contributions:

   CEN ATOM SHL      SPHERICAL COMPONENTS
     1   O  1s       1.99839
     1   O  2s       1.84126
     1   O  2p       1.23808    1.76192    1.37386

     2   H  1s       0.78648

 Active orbital charges:

   CEN ATOM         s          p       ELECTRONS ->SPIN.DEN
     1   O       0.00000    1.00000      1.00000    1.00000
     2   H       0.00000                 0.00000    0.00000

 Active orbital charges, AO contributions:

   CEN ATOM SHL      SPHERICAL COMPONENTS
     1   O  1s       0.00000
     1   O  2s       0.00000
     1   O  2p       0.76192    0.23808    0.00000

     2   H  1s       0.00000

 Summary of localized orbital composition:   [THRPRINT= 0.020]

   ORB  GRP  ORB.ENERGY      CENTERS/CHARGES
     1   1   -19.309049      O  1   2.000
     2   1    -0.770086      O  1   1.214   H  2   0.786
     3   1    -0.758524      O  1   2.000
     4   1    -0.260802      O  1   2.000
     5   2    -0.116836      O  1   1.000

 Localized orbitals saved to record      2100.2  (orbital set 2)


 **********************************************************************************************************************************
 DATASETS  * FILE   NREC   LENGTH (MB)   RECORD NAMES
              1      20       30.22       500      610      700      900      950      970     1000      129      960     1100   
                                          VAR    BASINP    GEOM    SYMINP    ZMAT    AOBASIS   BASIS     P2S    ABASIS      S 
                                         1400     1410     1200     1210     1080     1600     1650     1300     1700     1800   
                                           T        V       H0       H01     AOSYM     SMH    MOLCAS    ERIS     OPER     GRID   

              2       5        2.77       700     1000      520     1800     2100   
                                         GEOM     BASIS   MCVARS    GRID      RKS  

 PROGRAMS   *        TOTAL      IBBA        KS       INT
 CPU TIMES  *         1.25      0.02      0.90      0.18
 REAL TIME  *         1.63 SEC
 DISK USED  *        34.71 MB      
 **********************************************************************************************************************************
 Molecular orbitals read from record     2100.2  Type=RKS/LOCAL(IBO)  
 Occupation numbers read from record     2100.2  Type=RKS/LOCAL(IBO)  
 Orbital energies read from record       2100.2  Type=RKS/LOCAL(IBO)  
 Redundancy group numbers read from rec  2100.2  Type=RKS/LOCAL(IBO)  

 IBBA/STO-3G energy=      0.000000000000

        KS-SCF  
    -74.73382753
 **********************************************************************************************************************************
 Molpro calculation terminated
