
 Primary working directories    : /tmp/sb13343
 Secondary working directories  : /tmp/sb13343
 Wavefunction directory         : /panfs/panasas01/chem/sb13343/wfu/
 Main file repository           : /tmp/sb13343/

 SHA1      : b4a5b34a9e711420743f49e6833241d17c61fb3c
 NAME      : 2099.9.b4a5b34
 ARCHNAME  : linux/x86_64_openmp
 FC        : /cm/shared/languages/GCC-6.1/bin/gfortran
 BLASLIB   : -lblas
 id        : simonbennie

 Nodes     nprocs
 node35-048    1

 Using customized tuning parameters: mindgm=1; mindgv=20; mindgc=4; mindgr=1; noblas=0; minvec=7
 default implementation of scratch files=df  

 memory,500,m
 geomtyp=xyz
 nosym
 noorient
 geometry={
 O          0.00000        0.00000       -0.10921
 H          0.00000        0.00000        0.87370
 }
 basis={ default,svp }
 {uks,MM06-L,direct;wf,9,1,1}
 {ibba,bonds=1}

 Variables initialized (895), CPU time= 0.00 sec
 Commands  initialized (725), CPU time= 0.02 sec, 591 directives.
 Default parameters read. Elapsed time= 0.20 sec

 Checking input...
 Passed
1


                                         ***  PROGRAM SYSTEM MOLPRO  ***
                                       Copyright, TTI GmbH Stuttgart, 2015
                                    Version 2099.9 linked May 26 2017 16:03:21


 **********************************************************************************************************************************
 LABEL *                                                                                 
  64 bit serial version                                                                  DATE: 08-Jun-17          TIME: 19:00:39  
 **********************************************************************************************************************************

 SHA1:             b4a5b34a9e711420743f49e6833241d17c61fb3c
 **********************************************************************************************************************************
 SETTING GEOMTYP        =    XYZ

 Variable memory set to  500000000 words,  buffer space 

 ZSYMEL=NOSYM

 SETTING BASIS          =    SVP


 Recomputing integrals since basis changed


 Using spherical harmonics

 Library entry O      S def2-SVP             selected for orbital group  1
 Library entry O      P def2-SVP             selected for orbital group  1
 Library entry O      D def2-SVP             selected for orbital group  1
 Library entry H      S def2-SVP             selected for orbital group  2
 Library entry H      P def2-SVP             selected for orbital group  2


 PROGRAM * SEWARD (Integral evaluation for generally contracted gaussian basis sets)     Author: Roland Lindh, 1990

 Geometry written to block  1 of record 700


 Point group  C1  



 ATOMIC COORDINATES

 NR  ATOM    CHARGE       X              Y              Z

   1  O       8.00    0.000000000    0.000000000   -0.206376990
   2  H       1.00    0.000000000    0.000000000    1.651053715

 Bond lengths in Bohr (Angstrom)

 1-2  1.857430705
     ( 0.982910000)

 NUCLEAR CHARGE:                    9
 NUMBER OF PRIMITIVE AOS:          32
 NUMBER OF SYMMETRY AOS:           31
 NUMBER OF CONTRACTIONS:           19   (  19A   )
 NUMBER OF CORE ORBITALS:           1   (   1A   )
 NUMBER OF VALENCE ORBITALS:        5   (   5A   )


 NUCLEAR REPULSION ENERGY    4.30702474

 EXTRA SYMMETRY OF AOS IN SYMMETRY 1:   1 1 1 2 3 1 2 3 1 1   4 2 5 3 1 1 2 3 1

 Eigenvalues of metric

         1 0.561E-01 0.161E+00 0.307E+00 0.400E+00 0.438E+00 0.438E+00 0.670E+00 0.670E+00


 Contracted 2-electron integrals neglected if value below      1.0D-11
 AO integral compression algorithm  1   Integral accuracy      1.0D-11

     0.262 MB (compressed) written to integral file ( 48.6%)


 NUMBER OF SORTED TWO-ELECTRON INTEGRALS:      18145.     BUFFER LENGTH:  32768
 NUMBER OF SEGMENTS:   1  SEGMENT LENGTH:      18145      RECORD LENGTH: 524288

 Memory used in sort:       0.58 MW

 SORT1 READ       24532. AND WROTE        4125. INTEGRALS IN      1 RECORDS. CPU TIME:     0.00 SEC, REAL TIME:     0.01 SEC
 SORT2 READ        4125. AND WROTE       18145. INTEGRALS IN      1 RECORDS. CPU TIME:     0.00 SEC, REAL TIME:     0.01 SEC

 FILE SIZES:   FILE 1:    30.2 MBYTE,  FILE 4:     4.2 MBYTE,   TOTAL:     34.5 MBYTE

 OPERATOR DM      FOR CENTER  0  COORDINATES:    0.000000    0.000000    0.000000


 **********************************************************************************************************************************
 DATASETS  * FILE   NREC   LENGTH (MB)   RECORD NAMES
              1      19       30.01       500      610      700      900      950      970     1000      129      960     1100   
                                          VAR    BASINP    GEOM    SYMINP    ZMAT    AOBASIS   BASIS     P2S    ABASIS      S 
                                         1400     1410     1200     1210     1080     1600     1650     1300     1700   
                                           T        V       H0       H01     AOSYM     SMH    MOLCAS    ERIS     OPER   

 PROGRAMS   *        TOTAL       INT
 CPU TIMES  *         0.33      0.19
 REAL TIME  *         0.92 SEC
 DISK USED  *        34.73 MB      
 **********************************************************************************************************************************

 Density functional group MM06-L=M06LX+M06LC
 Functional: M06LX(Automatically generated (new) M06LX)                        Gradient terms: 2
 Functional: M06LC(Automatically generated (new) M06LC)                        Gradient terms: 2
 Use grid at  1800.2

 Functional: M06LX                     Factor:  1.0000
 Functional: M06LC                     Factor:  1.0000

 Generated new metagrid on record  1800.2 with target accuracy 1.0D-06 and 8278 points in CPU time    0.1
 Computed new grid on record 1800.1 in CPU time    0.1
   33346 words reserved for DFT integration

 PROGRAM * UKS-SCF (Unrestricted Kohn-Sham)     Authors: W. Meyer, H.-J. Werner, P.J. Knowles, 1993

 NUMBER OF ELECTRONS:       5+    4-    SPACE SYMMETRY=1    SPIN SYMMETRY: Doublet 
 CONVERGENCE THRESHOLDS:    1.00E-05 (Density)    1.00E-06 (Energy)
 MAX. NUMBER OF ITERATIONS:       60
 INTERPOLATION TYPE:            DIIS
 INTERPOLATION STEPS:              2 (START)      1 (STEP)
 LEVEL SHIFTS:                 -0.20 (ALPHA)  -0.20 (BETA) 



 Use fine grid record 1800.2 for energy threshold  1.0D-06
 Orbital guess generated from atomic densities. Full valence occupancy:    5

 Molecular orbital dump at record        2200.2

 Initial alpha occupation   5
 Initial beta  occupation   4

 ITERATION    DDIFF          GRAD             ENERGY        2-EL.EN.            DIPOLE MOMENTS         DIIS
    1      0.000D+00      0.000D+00       -75.64317428     84.451731   -0.00000   -0.00000    0.89793    0
    2      0.183D-01      0.108D-01       -75.65622435     82.147985   -0.00000   -0.00000    0.66812    1
    3      0.622D-02      0.575D-02       -75.65964050     82.997240   -0.00000   -0.00000    0.70608    2
    4      0.108D-02      0.903D-03       -75.65981659     82.946881   -0.00000    0.00000    0.69096    3
    5      0.339D-03      0.228D-03       -75.65983499     82.950197   -0.00000    0.00000    0.68732    4
    6      0.149D-03      0.724D-04       -75.65983901     82.949650   -0.00000    0.00000    0.68632    5
    7      0.928D-04      0.321D-04       -75.65984067     82.950381   -0.00000    0.00000    0.68634    6
    8      0.925D-04      0.293D-04       -75.65984213     82.950216   -0.00000    0.00000    0.68637    6
    9      0.106D-03      0.290D-04       -75.65984379     82.950213   -0.00000    0.00000    0.68637    6
   10      0.333D-03      0.291D-04       -75.65983858     82.950324   -0.00000    0.00000    0.68639    5
   11      0.174D-02      0.284D-04       -75.65981198     82.950917    0.00000    0.00000    0.68647    6
   12      0.174D-03      0.319D-04       -75.65980936     82.951004    0.00000    0.00000    0.68648    7
   13      0.329D-02      0.330D-04       -75.65975813     82.956361    0.00000    0.00000    0.68655    8
   14      0.309D-03      0.147D-03       -75.65976470     82.952917    0.00000    0.00000    0.68677    3
   15      0.276D-02      0.773D-04       -75.65972211     82.955865    0.00000    0.00000    0.68711    4
   16      0.480D-02      0.164D-03       -75.65979542     82.950583    0.00000    0.00000    0.68665    4
   17      0.851D-03      0.303D-04       -75.65980800     82.951208   -0.00000   -0.00000    0.68650    5
   18      0.402D-04      0.361D-04       -75.65980859     82.951277   -0.00000   -0.00000    0.68650    6
   19      0.980D-04      0.366D-04       -75.65981005     82.951300   -0.00000   -0.00000    0.68649    7
   20      0.166D-02      0.364D-04       -75.65978563     82.950284   -0.00000    0.00000    0.68679    4
   21      0.158D-02      0.276D-04       -75.65976235     82.950708   -0.00000    0.00000    0.68702    5
   22      0.696D-02      0.378D-04       -75.65986666     82.955856    0.00000   -0.00000    0.68582    6
   23      0.204D-03      0.120D-03       -75.65986976     82.955996    0.00000   -0.00000    0.68580    5
   24      0.912D-02      0.123D-03       -75.65973276     82.946458   -0.00000    0.00000    0.68785    6
   25      0.692D-03      0.778D-04       -75.65972327     82.946957   -0.00000    0.00000    0.68798    7
   26      0.415D-02      0.702D-04       -75.65968060     82.954459    0.00000    0.00000    0.68870    8
   27      0.247D-02      0.158D-03       -75.65970212     82.948275   -0.00000    0.00000    0.68827    9
   28      0.232D-01      0.750D-04       -75.65956261     83.027512   -0.00000   -0.00000    0.68260    9
   29      0.207D-01      0.136D-02       -75.65974070     82.946310    0.00000    0.00000    0.68745    4
   30      0.250D-03      0.492D-04       -75.65973724     82.947653    0.00000    0.00000    0.68752    5
   31      0.128D-03      0.398D-04       -75.65973543     82.947512    0.00000    0.00000    0.68753    6
   32      0.613D-03      0.380D-04       -75.65972685     82.948058   -0.00000    0.00000    0.68770    5
   33      0.216D-03      0.299D-04       -75.65972388     82.948330   -0.00000   -0.00000    0.68775    5
   34      0.331D-03      0.272D-04       -75.65971941     82.948518   -0.00000   -0.00000    0.68781    5
   35      0.105D-03      0.260D-04       -75.65971802     82.948441   -0.00000   -0.00000    0.68782    6
   36      0.345D-03      0.254D-04       -75.65971355     82.948461   -0.00000    0.00000    0.68792    7
   37      0.529D-02      0.245D-04       -75.65968180     82.952442    0.00000    0.00000    0.68911    8
   38      0.237D-02      0.112D-03       -75.65968541     82.948063    0.00000    0.00000    0.68844    9
   39      0.159D-02      0.165D-04       -75.65968146     82.948128    0.00000    0.00000    0.68874    9
   40      0.466D-03      0.263D-04       -75.65968224     82.948490    0.00000    0.00000    0.68876    9
   41      0.713D-03      0.332D-04       -75.65968150     82.946944    0.00000    0.00000    0.68851    9
   42      0.333D-04      0.315D-05       -75.65968149     82.947038    0.00000    0.00000    0.68853    9
   43      0.202D-04      0.125D-05       -75.65968149     82.947061    0.00000    0.00000    0.68854    9
   44      0.111D-04      0.453D-06       -75.65968149     82.947077    0.00000    0.00000    0.68854    6
   45      0.610D-06      0.257D-07       -75.65968149     82.947078    0.00000    0.00000    0.68854    4
   46      0.173D-07      0.270D-08       -75.65968149     82.947078    0.00000    0.00000    0.68854    4

 Final alpha occupancy:   5
 Final beta  occupancy:   4

 !UKS STATE 1.1 Energy                -75.659681487974
 Nuclear energy                         4.30702474
 One-electron energy                 -112.54390497
 Two-electron energy                   41.47353899
 Density functional                    -8.89634024     M06LX=-8.57404833 M06LC=-0.32229191
 Virial quotient                       -1.00576304
 !UKS STATE 1.1 Dipole moment           0.00000000     0.00000000     0.68853983
 Dipole moment /Debye                   0.00000000     0.00000000     1.74997907

 Orbital energies for positive spin:

         1.1          2.1          3.1          4.1          5.1          6.1          7.1
    -19.031531    -0.967429    -0.428968    -0.361845    -0.290936     0.051240     0.541422

 Orbital energies for negative spin:

         1.1          2.1          3.1          4.1          5.1          6.1          7.1
    -19.007641    -0.868698    -0.396798    -0.253239    -0.170714     0.057605     0.537181

 HOMO     -4.1    -0.253239 =      -6.8910eV
 LUMO     -5.1    -0.170714 =      -4.6454eV
 LUMO-HOMO         0.082525 =       2.2456eV

 EXPECTATION VALUE OF S**2:             0.75312854

 Occupation number threshold for canonical orbitals:  1.999000 (occupied),  0.001000 (virtual)

 Number of pseudo-canonical orbitals per symmetry:    3
 Number of active natural orbitals per symmetry:      3

 Natural orbitals saved to record    2200.2 (Orbital set 3)

 Orbital spaces for UNO-CAS (Min. occupation: 0.020  Max. occupation: 1.980):

 Closed:        4
 Active:        1


 **********************************************************************************************************************************
 DATASETS  * FILE   NREC   LENGTH (MB)   RECORD NAMES
              1      20       30.27       500      610      700      900      950      970     1000      129      960     1100   
                                          VAR    BASINP    GEOM    SYMINP    ZMAT    AOBASIS   BASIS     P2S    ABASIS      S 
                                         1400     1410     1200     1210     1080     1600     1650     1300     1700     1800   
                                           T        V       H0       H01     AOSYM     SMH    MOLCAS    ERIS     OPER     GRID   

              2       5        2.78       700     1000      520     1800     2200   
                                         GEOM     BASIS   MCVARS    GRID      UKS  

 PROGRAMS   *        TOTAL       UKS       INT
 CPU TIMES  *         4.89      4.56      0.19
 REAL TIME  *         6.57 SEC
 DISK USED  *        34.73 MB      
 **********************************************************************************************************************************


 PROGRAM * Intrinsic Basis Bonding Analysis (IBBA)          Author: G. Knizia

 Molecular orbitals read from record     2200.2  Type=UKS/ALPHA (state 1.1)
 Fock matrix read from record            2200.2  Type=UKS/TOTAL (state 1.1)
 Orbital energies read from record       2200.2  Type=UKS/ALPHA (state 1.1)
 Density matrix read from record         2200.2  Type=UKS/CHARGE (state 1.1)

 Number of core orbitals:           1 (   1 )
 Number of closed-shell orbitals:   3 (   3 )
 Number of active  orbitals:        1 (   1 )

 Basis set MINAO-AUTO-PP generated.      Number of basis functions:   6 

 Polarized AO type:                A = (O Ot + (1-O)(1-Ot)) P12
 Orthogonalization method:         Symmetric (Loewdin)
 Localization functional:          L = sum[A,i] <i|n_A|i>^4 -> max

 Localization group 1:   4 orbitals, occupancy  2.000
 Iterative localization: IB/PM,    3 iter; Final gradient 0.13E-15

 Bond order analysis:       [THRPRINT= 0.020]

   CEN ATOM   CEN ATOM     WIBERG.BO      RENORM.BO
     1   O  -   2   H       0.849115       1.000000

     2   H  -   1   O       0.849115       1.000000


 Valency analysis:

   CEN ATOM   TOT.VALENCE
     1   O       0.849115
     2   H       0.849115
 Localization group 2:   1 orbitals, occupancy  1.000
 Iterative localization: IB/PM,    1 iter; Final gradient 0.00E+00

 Bond order analysis:       [THRPRINT= 0.020]

   CEN ATOM   CEN ATOM     WIBERG.BO      RENORM.BO



 Valency analysis:

   CEN ATOM   TOT.VALENCE
     1   O      -0.000000
     2   H       0.000000

 Total charge composition:

   CEN ATOM         s          p       ELECTRONS ->P.CHARGE
     1   O       3.83673    4.55171      8.38844   -0.38844
     2   H       0.61156                 0.61156    0.38844

 Total charge composition, AO contributions:

   CEN ATOM SHL      SPHERICAL COMPONENTS
     1   O  1s       1.99827
     1   O  2s       1.83846
     1   O  2p       1.83869    1.16131    1.55171

     2   H  1s       0.61156

 Active orbital charges:

   CEN ATOM         s          p       ELECTRONS ->SPIN.DEN
     1   O       0.00000    1.00000      1.00000    1.00000
     2   H       0.00000                 0.00000    0.00000

 Active orbital charges, AO contributions:

   CEN ATOM SHL      SPHERICAL COMPONENTS
     1   O  1s       0.00000
     1   O  2s       0.00000
     1   O  2p       0.16131    0.83869    0.00000

     2   H  1s       0.00000

 Summary of localized orbital composition:   [THRPRINT= 0.020]

   ORB  GRP  ORB.ENERGY      CENTERS/CHARGES
     1   1   -18.903546      O  1   2.000
     2   1    -0.760708      O  1   1.388   H  2   0.612
     3   1    -0.683434      O  1   2.000
     4   1    -0.261571      O  1   2.000
     5   2    -0.271962      O  1   1.000

 Localized orbitals saved to record      2200.2  (orbital set 4)


 **********************************************************************************************************************************
 DATASETS  * FILE   NREC   LENGTH (MB)   RECORD NAMES
              1      20       30.27       500      610      700      900      950      970     1000      129      960     1100   
                                          VAR    BASINP    GEOM    SYMINP    ZMAT    AOBASIS   BASIS     P2S    ABASIS      S 
                                         1400     1410     1200     1210     1080     1600     1650     1300     1700     1800   
                                           T        V       H0       H01     AOSYM     SMH    MOLCAS    ERIS     OPER     GRID   

              2       5        2.79       700     1000      520     1800     2200   
                                         GEOM     BASIS   MCVARS    GRID      UKS  

 PROGRAMS   *        TOTAL      IBBA       UKS       INT
 CPU TIMES  *         4.91      0.02      4.56      0.19
 REAL TIME  *         6.61 SEC
 DISK USED  *        34.73 MB      
 **********************************************************************************************************************************
 Molecular orbitals read from record     2200.2  Type=UKS/LOCAL(IBO)  
 Occupation numbers read from record     2200.2  Type=UKS/LOCAL(IBO)  
 Orbital energies read from record       2200.2  Type=UKS/LOCAL(IBO)  
 Redundancy group numbers read from rec  2200.2  Type=UKS/BETA (state 1.1)

 IBBA/SVP energy=      0.000000000000

        UKS-SCF 
    -75.65968149
 **********************************************************************************************************************************
 Molpro calculation terminated
