
 Primary working directories    : /tmp/sb13343
 Secondary working directories  : /tmp/sb13343
 Wavefunction directory         : /panfs/panasas01/chem/sb13343/wfu/
 Main file repository           : /tmp/sb13343/

 SHA1      : b4a5b34a9e711420743f49e6833241d17c61fb3c
 NAME      : 2099.9.b4a5b34
 ARCHNAME  : linux/x86_64_openmp
 FC        : /cm/shared/languages/GCC-6.1/bin/gfortran
 BLASLIB   : -lblas
 id        : simonbennie

 Nodes     nprocs
 node33-025    1

 Using customized tuning parameters: mindgm=1; mindgv=20; mindgc=4; mindgr=1; noblas=0; minvec=7
 default implementation of scratch files=df  

 memory,500,m
 geomtyp=xyz
 nosym
 noorient
 geometry={
 O          0.00000        0.00000       -0.10921
 H          0.00000        0.00000        0.87370
 }
 basis={ default,sto-3g }
 {uks,PBE0MOL,direct;wf,9,1,1}
 {ibba,bonds=1}

 Variables initialized (895), CPU time= 0.00 sec
 Commands  initialized (725), CPU time= 0.01 sec, 591 directives.
 Default parameters read. Elapsed time= 0.07 sec

 Checking input...
 Passed
1


                                         ***  PROGRAM SYSTEM MOLPRO  ***
                                       Copyright, TTI GmbH Stuttgart, 2015
                                    Version 2099.9 linked May 26 2017 16:03:21


 **********************************************************************************************************************************
 LABEL *                                                                                 
  64 bit serial version                                                                  DATE: 08-Jun-17          TIME: 18:28:06  
 **********************************************************************************************************************************

 SHA1:             b4a5b34a9e711420743f49e6833241d17c61fb3c
 **********************************************************************************************************************************
 SETTING GEOMTYP        =    XYZ

 Variable memory set to  500000000 words,  buffer space 

 ZSYMEL=NOSYM

 SETTING BASIS          =    STO-3G


 Recomputing integrals since basis changed


 Using spherical harmonics

 Library entry O      S STO-3G               selected for orbital group  1
 Library entry O      P STO-3G               selected for orbital group  1
 Library entry H      S STO-3G               selected for orbital group  2


 PROGRAM * SEWARD (Integral evaluation for generally contracted gaussian basis sets)     Author: Roland Lindh, 1990

 Geometry written to block  1 of record 700


 Point group  C1  



 ATOMIC COORDINATES

 NR  ATOM    CHARGE       X              Y              Z

   1  O       8.00    0.000000000    0.000000000   -0.206376990
   2  H       1.00    0.000000000    0.000000000    1.651053715

 Bond lengths in Bohr (Angstrom)

 1-2  1.857430705
     ( 0.982910000)

 NUCLEAR CHARGE:                    9
 NUMBER OF PRIMITIVE AOS:          18
 NUMBER OF SYMMETRY AOS:           18
 NUMBER OF CONTRACTIONS:            6   (   6A   )
 NUMBER OF CORE ORBITALS:           1   (   1A   )
 NUMBER OF VALENCE ORBITALS:        5   (   5A   )


 NUCLEAR REPULSION ENERGY    4.30702474

 EXTRA SYMMETRY OF AOS IN SYMMETRY 1:   1 1 2 3 1 1

 Eigenvalues of metric

         1 0.387E+00 0.840E+00 0.100E+01 0.100E+01 0.113E+01 0.164E+01


 Contracted 2-electron integrals neglected if value below      1.0D-11
 AO integral compression algorithm  1   Integral accuracy      1.0D-11

     0.262 MB (compressed) written to integral file (100.0%)


 NUMBER OF SORTED TWO-ELECTRON INTEGRALS:        231.     BUFFER LENGTH:  32768
 NUMBER OF SEGMENTS:   1  SEGMENT LENGTH:        231      RECORD LENGTH: 524288

 Memory used in sort:       0.56 MW

 SORT1 READ         319. AND WROTE          83. INTEGRALS IN      1 RECORDS. CPU TIME:     0.00 SEC, REAL TIME:     0.01 SEC
 SORT2 READ          83. AND WROTE         231. INTEGRALS IN      1 RECORDS. CPU TIME:     0.00 SEC, REAL TIME:     0.00 SEC

 FILE SIZES:   FILE 1:    30.2 MBYTE,  FILE 4:     4.2 MBYTE,   TOTAL:     34.4 MBYTE

 OPERATOR DM      FOR CENTER  0  COORDINATES:    0.000000    0.000000    0.000000


 **********************************************************************************************************************************
 DATASETS  * FILE   NREC   LENGTH (MB)   RECORD NAMES
              1      19       29.95       500      610      700      900      950      970     1000      129      960     1100   
                                          VAR    BASINP    GEOM    SYMINP    ZMAT    AOBASIS   BASIS     P2S    ABASIS      S 
                                         1400     1410     1200     1210     1080     1600     1650     1300     1700   
                                           T        V       H0       H01     AOSYM     SMH    MOLCAS    ERIS     OPER   

 PROGRAMS   *        TOTAL       INT
 CPU TIMES  *         0.35      0.22
 REAL TIME  *         1.49 SEC
 DISK USED  *        34.71 MB      
 **********************************************************************************************************************************

 Density functional group PBE0MOL=PBEX+PW91C
 Functional: PBEX(Automatically generated (new) PBEX)                          Gradient terms: 1
 Functional: PW91C(Automatically generated (new) PW91C)                        Gradient terms: 1
 Use grid at  1800.2


 Exact exchange will be calculated, factor:  0.2500

 Functional: PBEX                      Factor:  0.7500
 Functional: PW91C                     Factor:  1.0000

 Generated new metagrid on record  1800.2 with target accuracy 1.0D-06 and 8278 points in CPU time    0.1
 Computed new grid on record 1800.1 in CPU time    0.1
    8594 words reserved for DFT integration

 PROGRAM * UKS-SCF (Unrestricted Kohn-Sham)     Authors: W. Meyer, H.-J. Werner, P.J. Knowles, 1993

 NUMBER OF ELECTRONS:       5+    4-    SPACE SYMMETRY=1    SPIN SYMMETRY: Doublet 
 CONVERGENCE THRESHOLDS:    1.00E-05 (Density)    1.00E-06 (Energy)
 MAX. NUMBER OF ITERATIONS:       60
 INTERPOLATION TYPE:            DIIS
 INTERPOLATION STEPS:              2 (START)      1 (STEP)
 LEVEL SHIFTS:                 -0.20 (ALPHA)  -0.20 (BETA) 



 Use fine grid record 1800.2 for energy threshold  1.0D-06
 Orbital guess generated from atomic densities. Full valence occupancy:    5

 Molecular orbital dump at record        2200.2

 Initial alpha occupation   5
 Initial beta  occupation   4

 ITERATION    DDIFF          GRAD             ENERGY        2-EL.EN.            DIPOLE MOMENTS         DIIS
    1      0.000D+00      0.000D+00       -74.58443838     81.363245    0.00000   -0.00000    0.94995    0
    2      0.844D-01      0.316D-01       -74.61736776     79.950232    0.00000    0.00000    0.55353    1
    3      0.159D-01      0.499D-02       -74.61822879     79.766212    0.00000    0.00000    0.48552    2
    4      0.268D-02      0.112D-02       -74.61827344     79.766718   -0.00000    0.00000    0.47995    3
    5      0.221D-03      0.310D-03       -74.61828029     79.764669    0.00000    0.00000    0.47913    4
    6      0.138D-03      0.126D-03       -74.61828127     79.765655   -0.00000    0.00000    0.47964    5
    7      0.244D-04      0.126D-04       -74.61828128     79.765567    0.00000    0.00000    0.47959    5
    8      0.166D-04      0.520D-05       -74.61828129     79.765572    0.00000    0.00000    0.47959    5
    9      0.149D-04      0.515D-05       -74.61828129     79.765572    0.00000    0.00000    0.47959    4
   10      0.152D-04      0.515D-05       -74.61828129     79.765572    0.00000    0.00000    0.47959    1
   11      0.152D-04      0.515D-05       -74.61828129     79.765572    0.00000    0.00000    0.47959    1
   12      0.152D-04      0.515D-05       -74.61828130     79.765572    0.00000    0.00000    0.47959    1
   13      0.152D-04      0.515D-05       -74.61828130     79.765572    0.00000    0.00000    0.47959    1
   14      0.152D-04      0.515D-05       -74.61828130     79.765572    0.00000    0.00000    0.47959    1
   15      0.152D-04      0.515D-05       -74.61828130     79.765572    0.00000   -0.00000    0.47959    1
   16      0.152D-04      0.515D-05       -74.61828131     79.765572    0.00000   -0.00000    0.47959    1
   17      0.152D-04      0.515D-05       -74.61828131     79.765572    0.00000   -0.00000    0.47959    1
   18      0.152D-04      0.515D-05       -74.61828131     79.765572    0.00000   -0.00000    0.47959    1
   19      0.152D-04      0.515D-05       -74.61828132     79.765572   -0.00000   -0.00000    0.47959    1
   20      0.152D-04      0.515D-05       -74.61828132     79.765572   -0.00000   -0.00000    0.47959    1
   21      0.152D-04      0.515D-05       -74.61828132     79.765571   -0.00000   -0.00000    0.47959    1
   22      0.152D-04      0.515D-05       -74.61828132     79.765571   -0.00000   -0.00000    0.47959    1
   23      0.152D-04      0.515D-05       -74.61828133     79.765571   -0.00000   -0.00000    0.47959    1
   24      0.152D-04      0.515D-05       -74.61828133     79.765571   -0.00000   -0.00000    0.47959    1
   25      0.152D-04      0.515D-05       -74.61828133     79.765571   -0.00000   -0.00000    0.47959    1
   26      0.153D-04      0.515D-05       -74.61828134     79.765571   -0.00000   -0.00000    0.47959    1
   27      0.153D-04      0.515D-05       -74.61828134     79.765571   -0.00000   -0.00000    0.47959    1
   28      0.153D-04      0.515D-05       -74.61828134     79.765571   -0.00000   -0.00000    0.47959    1
   29      0.153D-04      0.515D-05       -74.61828134     79.765571   -0.00000   -0.00000    0.47959    1
   30      0.153D-04      0.515D-05       -74.61828135     79.765571   -0.00000   -0.00000    0.47959    1
   31      0.153D-04      0.515D-05       -74.61828135     79.765571   -0.00000   -0.00000    0.47959    1
   32      0.153D-04      0.515D-05       -74.61828135     79.765571   -0.00000   -0.00000    0.47959    1
   33      0.153D-04      0.515D-05       -74.61828135     79.765571   -0.00000   -0.00000    0.47959    1
   34      0.153D-04      0.515D-05       -74.61828136     79.765571   -0.00000   -0.00000    0.47959    1
   35      0.153D-04      0.515D-05       -74.61828136     79.765571   -0.00000   -0.00000    0.47959    1
   36      0.153D-04      0.515D-05       -74.61828136     79.765571   -0.00000   -0.00000    0.47959    1
   37      0.153D-04      0.515D-05       -74.61828137     79.765571   -0.00000   -0.00000    0.47959    1
   38      0.153D-04      0.515D-05       -74.61828137     79.765571   -0.00000   -0.00000    0.47959    1
   39      0.153D-04      0.515D-05       -74.61828137     79.765571   -0.00000   -0.00000    0.47959    1
   40      0.153D-04      0.515D-05       -74.61828137     79.765571   -0.00000   -0.00000    0.47959    1
   41      0.153D-04      0.515D-05       -74.61828138     79.765571   -0.00000   -0.00000    0.47959    1
   42      0.153D-04      0.515D-05       -74.61828138     79.765571   -0.00000   -0.00000    0.47959    1
   43      0.153D-04      0.515D-05       -74.61828138     79.765571   -0.00000   -0.00000    0.47959    1
   44      0.153D-04      0.515D-05       -74.61828139     79.765571   -0.00000   -0.00000    0.47959    1
   45      0.153D-04      0.515D-05       -74.61828139     79.765571   -0.00000   -0.00000    0.47959    1
   46      0.153D-04      0.515D-05       -74.61828139     79.765571   -0.00000   -0.00000    0.47959    1
   47      0.153D-04      0.515D-05       -74.61828139     79.765571   -0.00000   -0.00000    0.47959    1
   48      0.153D-04      0.515D-05       -74.61828140     79.765571   -0.00000   -0.00000    0.47959    1
   49      0.153D-04      0.515D-05       -74.61828140     79.765571   -0.00000   -0.00000    0.47959    1
   50      0.153D-04      0.515D-05       -74.61828140     79.765571   -0.00000   -0.00000    0.47959    1
   51      0.153D-04      0.515D-05       -74.61828140     79.765571   -0.00000   -0.00000    0.47959    1
   52      0.153D-04      0.515D-05       -74.61828141     79.765571   -0.00000   -0.00000    0.47959    1
   53      0.153D-04      0.515D-05       -74.61828141     79.765571   -0.00000   -0.00000    0.47959    1
   54      0.153D-04      0.515D-05       -74.61828141     79.765571   -0.00000   -0.00000    0.47959    1
   55      0.153D-04      0.515D-05       -74.61828142     79.765570   -0.00000   -0.00000    0.47959    1
   56      0.153D-04      0.515D-05       -74.61828142     79.765570   -0.00000   -0.00000    0.47959    1
   57      0.153D-04      0.515D-05       -74.61828142     79.765570   -0.00000   -0.00000    0.47959    1
   58      0.153D-04      0.515D-05       -74.61828142     79.765570   -0.00000   -0.00000    0.47959    1
   59      0.153D-04      0.515D-05       -74.61828143     79.765570   -0.00000   -0.00000    0.47959    1
   60      0.153D-04      0.515D-05       -74.61828143     79.765570   -0.00000   -0.00000    0.47959    1

 Final alpha occupancy:   5
 Final beta  occupancy:   4

 !UKS STATE 1.1 Energy                -74.618281429642
 Nuclear energy                         4.30702474
 One-electron energy                 -112.01523080
 Two-electron energy                   39.88278517
 Density functional                    -6.79286055     PBEX=-8.62868025 PW91C=-0.32135036
 Virial quotient                       -1.00820532
 !UKS STATE 1.1 Dipole moment          -0.00000000    -0.00000000     0.47959335
 Dipole moment /Debye                  -0.00000000    -0.00000000     1.21892487

 Orbital energies for positive spin:

         1.1          2.1          3.1          4.1          5.1          6.1
    -18.942748    -0.946835    -0.358188    -0.279580    -0.185906     0.377087

 Orbital energies for negative spin:

         1.1          2.1          3.1          4.1          5.1          6.1
    -18.924038    -0.866762    -0.326166    -0.153679     0.048045     0.398954

 HOMO     -4.1    -0.153679 =      -4.1818eV
 LUMO     -5.1     0.048045 =       1.3074eV
 LUMO-HOMO         0.201725 =       5.4892eV

 EXPECTATION VALUE OF S**2:             0.75114879

 Occupation number threshold for canonical orbitals:  1.999000 (occupied),  0.001000 (virtual)

 Number of pseudo-canonical orbitals per symmetry:    4
 Number of active natural orbitals per symmetry:      1

 Natural orbitals saved to record    2200.2 (Orbital set 3)

 Orbital spaces for UNO-CAS (Min. occupation: 0.020  Max. occupation: 1.980):

 Closed:        4
 Active:        1

 No convergence



 **********************************************************************************************************************************
 DATASETS  * FILE   NREC   LENGTH (MB)   RECORD NAMES
              1      20       30.22       500      610      700      900      950      970     1000      129      960     1100   
                                          VAR    BASINP    GEOM    SYMINP    ZMAT    AOBASIS   BASIS     P2S    ABASIS      S 
                                         1400     1410     1200     1210     1080     1600     1650     1300     1700     1800   
                                           T        V       H0       H01     AOSYM     SMH    MOLCAS    ERIS     OPER     GRID   

              2       5        2.77       700     1000      520     1800     2200   
                                         GEOM     BASIS   MCVARS    GRID      UKS  

 PROGRAMS   *        TOTAL       UKS       INT
 CPU TIMES  *         1.67      1.32      0.22
 REAL TIME  *         3.17 SEC
 DISK USED  *        34.71 MB      
 **********************************************************************************************************************************


 PROGRAM * Intrinsic Basis Bonding Analysis (IBBA)          Author: G. Knizia

 Molecular orbitals read from record     2200.2  Type=UKS/ALPHA (state 1.1)
 Fock matrix read from record            2200.2  Type=UKS/TOTAL (state 1.1)
 Orbital energies read from record       2200.2  Type=UKS/ALPHA (state 1.1)
 Density matrix read from record         2200.2  Type=UKS/CHARGE (state 1.1)

 Number of core orbitals:           1 (   1 )
 Number of closed-shell orbitals:   3 (   3 )
 Number of active  orbitals:        1 (   1 )

 Basis set MINAO-AUTO-PP generated.      Number of basis functions:   6 

 Polarized AO type:                A = (O Ot + (1-O)(1-Ot)) P12
 Orthogonalization method:         Symmetric (Loewdin)
 Localization functional:          L = sum[A,i] <i|n_A|i>^4 -> max

 Localization group 1:   4 orbitals, occupancy  2.000
 Iterative localization: IB/PM,    2 iter; Final gradient 0.45E-09

 Bond order analysis:       [THRPRINT= 0.020]

   CEN ATOM   CEN ATOM     WIBERG.BO      RENORM.BO
     1   O  -   2   H       0.938089       1.000000

     2   H  -   1   O       0.938089       1.000000


 Valency analysis:

   CEN ATOM   TOT.VALENCE
     1   O       0.938089
     2   H       0.938089
 Localization group 2:   1 orbitals, occupancy  1.000
 Iterative localization: IB/PM,    1 iter; Final gradient 0.00E+00

 Bond order analysis:       [THRPRINT= 0.020]

   CEN ATOM   CEN ATOM     WIBERG.BO      RENORM.BO



 Valency analysis:

   CEN ATOM   TOT.VALENCE
     1   O      -0.000000
     2   H       0.000000

 Total charge composition:

   CEN ATOM         s          p       ELECTRONS ->P.CHARGE
     1   O       3.85215    4.39667      8.24882   -0.24882
     2   H       0.75118                 0.75118    0.24882

 Total charge composition, AO contributions:

   CEN ATOM SHL      SPHERICAL COMPONENTS
     1   O  1s       1.99841
     1   O  2s       1.85373
     1   O  2p       1.88082    1.11918    1.39667

     2   H  1s       0.75118

 Active orbital charges:

   CEN ATOM         s          p       ELECTRONS ->SPIN.DEN
     1   O       0.00000    1.00000      1.00000    1.00000
     2   H       0.00000                 0.00000    0.00000

 Active orbital charges, AO contributions:

   CEN ATOM SHL      SPHERICAL COMPONENTS
     1   O  1s       0.00000
     1   O  2s       0.00000
     1   O  2p       0.11918    0.88082    0.00000

     2   H  1s       0.00000

 Summary of localized orbital composition:   [THRPRINT= 0.020]

   ORB  GRP  ORB.ENERGY      CENTERS/CHARGES
     1   1   -18.825773      O  1   2.000
     2   1    -0.691634      O  1   1.249   H  2   0.751
     3   1    -0.664334      O  1   2.000
     4   1    -0.115767      O  1   2.000
     5   2    -0.169793      O  1   1.000

 Localized orbitals saved to record      2200.2  (orbital set 4)


 **********************************************************************************************************************************
 DATASETS  * FILE   NREC   LENGTH (MB)   RECORD NAMES
              1      20       30.22       500      610      700      900      950      970     1000      129      960     1100   
                                          VAR    BASINP    GEOM    SYMINP    ZMAT    AOBASIS   BASIS     P2S    ABASIS      S 
                                         1400     1410     1200     1210     1080     1600     1650     1300     1700     1800   
                                           T        V       H0       H01     AOSYM     SMH    MOLCAS    ERIS     OPER     GRID   

              2       5        2.77       700     1000      520     1800     2200   
                                         GEOM     BASIS   MCVARS    GRID      UKS  

 PROGRAMS   *        TOTAL      IBBA       UKS       INT
 CPU TIMES  *         1.68      0.01      1.32      0.22
 REAL TIME  *         3.21 SEC
 DISK USED  *        34.71 MB      
 **********************************************************************************************************************************
 Molecular orbitals read from record     2200.2  Type=UKS/LOCAL(IBO)  
 Occupation numbers read from record     2200.2  Type=UKS/LOCAL(IBO)  
 Orbital energies read from record       2200.2  Type=UKS/LOCAL(IBO)  
 Redundancy group numbers read from rec  2200.2  Type=UKS/BETA (state 1.1)

 IBBA/STO-3G energy=      0.000000000000

        UKS-SCF 
    -74.61828143
 **********************************************************************************************************************************
 Molpro calculation terminated
