
 Primary working directories    : /local
 Secondary working directories  : /local
 Wavefunction directory         : /local/
 Main file repository           : /local/

 SHA1      : b4a5b34a9e711420743f49e6833241d17c61fb3c
 NAME      : 2099.9.b4a5b34
 ARCHNAME  : linux/x86_64_openmp
 FC        : /cm/shared/languages/GCC-6.1/bin/gfortran
 BLASLIB   : -lblas
 id        : simonbennie

 Nodes     nprocs
 node32-036    1

 Using customized tuning parameters: mindgm=1; mindgv=20; mindgc=4; mindgr=1; noblas=0; minvec=7
 default implementation of scratch files=df  

 memory,500,m
 geomtyp=xyz
 nosym
 noorient
 geometry={
 C         -1.53233        0.02247        0.00000
 C         -0.00192        0.01421        0.00000
 O          0.37239        1.40356        0.00000
 H          1.34248        1.44036        0.00000
 H         -1.92991       -0.99819        0.00000
 H         -1.90797        0.54382       -0.88653
 H         -1.90797        0.54382        0.88653
 C          0.54303       -0.66466       -1.26580
 C          0.54303       -0.66466        1.26580
 H          0.17836       -0.14752       -2.15943
 H          0.17836       -0.14752        2.15943
 H          0.23752       -1.71600       -1.32280
 H          0.23752       -1.71600        1.32280
 H          1.64084       -0.63767       -1.28032
 H          1.64084       -0.63767        1.28032
 }
 basis={ default,avtz }
 {uks,M08-SO,direct;wf,42,1,0}
 {ibba,bonds=1}

 Variables initialized (895), CPU time= 0.00 sec
 Commands  initialized (725), CPU time= 0.01 sec, 591 directives.
 Default parameters read. Elapsed time= 0.09 sec

 Checking input...
 Passed
1


                                         ***  PROGRAM SYSTEM MOLPRO  ***
                                       Copyright, TTI GmbH Stuttgart, 2015
                                    Version 2099.9 linked May 26 2017 16:03:21


 **********************************************************************************************************************************
 LABEL *                                                                                 
  64 bit serial version                                                                  DATE: 12-Jun-17          TIME: 14:16:20  
 **********************************************************************************************************************************

 SHA1:             b4a5b34a9e711420743f49e6833241d17c61fb3c
 **********************************************************************************************************************************
 SETTING GEOMTYP        =    XYZ

 Variable memory set to  500000000 words,  buffer space 

 ZSYMEL=NOSYM

 SETTING BASIS          =    AVTZ


 Recomputing integrals since basis changed


 Using spherical harmonics

 Library entry C      S aug-cc-pVTZ          selected for orbital group  1
 Library entry C      P aug-cc-pVTZ          selected for orbital group  1
 Library entry C      D aug-cc-pVTZ          selected for orbital group  1
 Library entry C      F aug-cc-pVTZ          selected for orbital group  1
 Library entry O      S aug-cc-pVTZ          selected for orbital group  2
 Library entry O      P aug-cc-pVTZ          selected for orbital group  2
 Library entry O      D aug-cc-pVTZ          selected for orbital group  2
 Library entry O      F aug-cc-pVTZ          selected for orbital group  2
 Library entry H      S aug-cc-pVTZ          selected for orbital group  3
 Library entry H      P aug-cc-pVTZ          selected for orbital group  3
 Library entry H      D aug-cc-pVTZ          selected for orbital group  3


 PROGRAM * SEWARD (Integral evaluation for generally contracted gaussian basis sets)     Author: Roland Lindh, 1990

 Geometry written to block  1 of record 700


 Point group  C1  



 ATOMIC COORDINATES

 NR  ATOM    CHARGE       X              Y              Z

   1  C       6.00   -2.895684032    0.042462146    0.000000000
   2  C       6.00   -0.003628274    0.026853008    0.000000000
   3  O       8.00    0.703715112    2.652343999    0.000000000
   4  H       1.00    2.536919528    2.721885921    0.000000000
   5  H       1.00   -3.647001345   -1.886305720    0.000000000
   6  H       1.00   -3.605540754    1.027670861   -1.675298901
   7  H       1.00   -3.605540754    1.027670861    1.675298901
   8  C       6.00    1.026177977   -1.256025366   -2.392015328
   9  C       6.00    1.026177977   -1.256025366    2.392015328
  10  H       1.00    0.337051552   -0.278772398   -4.080731285
  11  H       1.00    0.337051552   -0.278772398    4.080731285
  12  H       1.00    0.448847749   -3.242770030   -2.499729718
  13  H       1.00    0.448847749   -3.242770030    2.499729718
  14  H       1.00    3.100738214   -1.205021658   -2.419454152
  15  H       1.00    3.100738214   -1.205021658    2.419454152

 Bond lengths in Bohr (Angstrom)

 1-2  2.892097881  1-5  2.069933136  1-6  2.069096224  1-7  2.069096224  2-3  2.719106031
     ( 1.530432290)     ( 1.095361444)     ( 1.094918569)     ( 1.094918569)     ( 1.438888946)

  2- 8  2.903104402   2- 9  2.903104402   3- 4  1.834522965   8-10  2.069222119   8-12  2.071730422
       ( 1.536256691)       ( 1.536256691)       ( 0.970787746)       ( 1.094985190)       ( 1.096312526)

  8-14  2.075368508   9-11  2.069222119   9-13  2.071730422   9-15  2.075368508
       ( 1.098237719)       ( 1.094985190)       ( 1.096312526)       ( 1.098237719)

 Bond angles

  1-2-3  104.76902697   1-2-8  110.92255387   1-2-9  110.92255387   2-1-5  110.97328220

  2- 1- 6  110.22090701   2- 1- 7  110.22090701   2- 3- 4  107.25071562   2- 8-10  110.21836376

  2- 8-12  111.57747468   2- 8-14  110.77023896   2- 9-11  110.21836376   2- 9-13  111.57747468

  2- 9-15  110.77023896   3- 2- 8  109.53648747   3- 2- 9  109.53648747   5- 1- 6  108.61190457

  5- 1- 7  108.61190457   6- 1- 7  108.12870271   8- 2- 9  110.96453384  10- 8-12  108.52192632

 10- 8-14  108.08997829  11- 9-13  108.52192632  11- 9-15  108.08997829  12- 8-14  107.54424578

 13- 9-15  107.54424578

 NUCLEAR CHARGE:                   42
 NUMBER OF PRIMITIVE AOS:         605
 NUMBER OF SYMMETRY AOS:          540
 NUMBER OF CONTRACTIONS:          460   ( 460A   )
 NUMBER OF CORE ORBITALS:           5   (   5A   )
 NUMBER OF VALENCE ORBITALS:       30   (  30A   )


 NUCLEAR REPULSION ENERGY  198.77359127


 Eigenvalues of metric

         1 0.351E-05 0.596E-05 0.770E-05 0.977E-05 0.161E-04 0.173E-04 0.207E-04 0.297E-04


 Contracted 2-electron integrals neglected if value below      1.0D-12
 AO integral compression algorithm  1   Integral accuracy      1.0D-12

     24892.932 MB (compressed) written to integral file ( 51.7%)


 NUMBER OF SORTED TWO-ELECTRON INTEGRALS: 5621233465.     BUFFER LENGTH:  32768
 NUMBER OF SEGMENTS: 176  SEGMENT LENGTH:   31999951      RECORD LENGTH: 131072

 Memory used in sort:      32.16 MW

 SORT1 READ  6020115514. AND WROTE  5366777799. INTEGRALS IN  61513 RECORDS. CPU TIME:    82.79 SEC, REAL TIME:  3929.87 SEC
 SORT2 READ  5366777799. AND WROTE  5621233465. INTEGRALS IN  94959 RECORDS. CPU TIME:   124.51 SEC, REAL TIME:  3881.77 SEC

 FILE SIZES:   FILE 1: 24930.9 MBYTE,  FILE 4: 64501.1 MBYTE,   TOTAL:  89432.0 MBYTE

 OPERATOR DM      FOR CENTER  0  COORDINATES:    0.000000    0.000000    0.000000


 **********************************************************************************************************************************
 DATASETS  * FILE   NREC   LENGTH (MB)   RECORD NAMES
              1      19    23757.53       500      610      700      900      950      970     1000      129      960     1100   
                                          VAR    BASINP    GEOM    SYMINP    ZMAT    AOBASIS   BASIS     P2S    ABASIS      S 
                                         1400     1410     1200     1210     1080     1600     1650     1300     1700   
                                           T        V       H0       H01     AOSYM     SMH    MOLCAS    ERIS     OPER   

 PROGRAMS   *        TOTAL       INT
 CPU TIMES  *       421.03    420.89
 REAL TIME  *      8549.53 SEC
 DISK USED  *        89.43 GB      
 **********************************************************************************************************************************

 Density functional group M08-SO=XC-M08-SO
 Functional: XC-M08-SO(via MFM 1.6)                                            Gradient terms: 1
 Use grid at  1800.2


 Exact exchange will be calculated, factor:  0.5679

 Functional: XC-M08-SO                 Factor:  1.0000

 Generated new metagrid on record  1800.2 with target accuracy 1.0D-06 and 55396 points in CPU time    1.6
 Computed new grid on record 1800.1 in CPU time    1.8
  370324 words reserved for DFT integration

 PROGRAM * UKS-SCF (Unrestricted Kohn-Sham)     Authors: W. Meyer, H.-J. Werner, P.J. Knowles, 1993

 NUMBER OF ELECTRONS:      21+   21-    SPACE SYMMETRY=1    SPIN SYMMETRY: Singlet 
 CONVERGENCE THRESHOLDS:    1.00E-05 (Density)    1.00E-06 (Energy)
 MAX. NUMBER OF ITERATIONS:       60
 INTERPOLATION TYPE:            DIIS
 INTERPOLATION STEPS:              2 (START)      1 (STEP)
 LEVEL SHIFTS:                 -0.20 (ALPHA)  -0.20 (BETA) 



 Use fine grid record 1800.2 for energy threshold  1.0D-06
 Orbital guess generated from atomic densities. Full valence occupancy:   35

 Molecular orbital dump at record        2200.2

 Initial alpha occupation  21
 Initial beta  occupation  21

 ITERATION    DDIFF          GRAD             ENERGY        2-EL.EN.            DIPOLE MOMENTS         DIIS
    1      0.000D+00      0.000D+00      -233.46372614    594.335020    0.71014   -0.83953    0.00000    0
    2      0.112D-01      0.111D-02      -233.57901432    582.160397    0.31322   -0.53033    0.00000    1
    3      0.346D-02      0.462D-03      -233.59231864    584.646735    0.36362   -0.58824    0.00000    2
    4      0.187D-02      0.941D-04      -233.59365368    584.496433    0.34664   -0.55498    0.00000    3
    5      0.119D-02      0.473D-04      -233.59410876    584.429013    0.33829   -0.55926    0.00000    4
    6      0.383D-03      0.140D-04      -233.59416902    584.400055    0.33509   -0.55809    0.00000    5
    7      0.109D-03      0.281D-05      -233.59417201    584.392129    0.33437   -0.55872    0.00000    6
    8      0.239D-04      0.799D-06      -233.59417221    584.395840    0.33439   -0.55885   -0.00000    6
    9      0.950D-05      0.370D-06      -233.59417224    584.394300    0.33428   -0.55885    0.00000    7
   10      0.246D-05      0.895D-07      -233.59417224    584.394513    0.33427   -0.55889    0.00000    7

 Final alpha occupancy:  21
 Final beta  occupancy:  21

 !UKS STATE 1.1 Energy               -233.594172244946
 Nuclear energy                       198.77359127
 One-electron energy                 -709.16308160
 Two-electron energy                  292.19725659
 Density functional                   -15.40193850     XC-M08-SO=-15.40193850
 Virial quotient                       -1.00794068
 !UKS STATE 1.1 Dipole moment           0.33427313    -0.55888613     0.00000000
 Dipole moment /Debye                   0.84958191    -1.42045380     0.00000000

 Orbital energies for positive spin:

         1.1          2.1          3.1          4.1          5.1          6.1          7.1          8.1          9.1         10.1
    -19.562295   -10.559950   -10.490246   -10.490200   -10.484587    -1.129560    -0.887649    -0.785474    -0.784426    -0.653050

        11.1         12.1         13.1         14.1         15.1         16.1         17.1         18.1         19.1         20.1
     -0.569406    -0.531249    -0.528454    -0.488225    -0.471963    -0.450410    -0.436156    -0.429072    -0.420853    -0.389289

        21.1         22.1         23.1
     -0.352920    -0.029042    -0.011457

 Orbital energies for negative spin:

         1.1          2.1          3.1          4.1          5.1          6.1          7.1          8.1          9.1         10.1
    -19.562294   -10.559951   -10.490245   -10.490199   -10.484586    -1.129559    -0.887649    -0.785473    -0.784426    -0.653050

        11.1         12.1         13.1         14.1         15.1         16.1         17.1         18.1         19.1         20.1
     -0.569406    -0.531249    -0.528454    -0.488225    -0.471963    -0.450410    -0.436156    -0.429072    -0.420853    -0.389289

        21.1         22.1         23.1
     -0.352918    -0.029041    -0.011457

 HOMO    -21.1    -0.352918 =      -9.6034eV
 LUMO     22.1    -0.029042 =      -0.7903eV
 LUMO-HOMO         0.323876 =       8.8131eV

 EXPECTATION VALUE OF S**2:             0.00000000

 Occupation number threshold for canonical orbitals:  1.999000 (occupied),  0.001000 (virtual)

 Number of pseudo-canonical orbitals per symmetry:   21
 Number of active natural orbitals per symmetry:      0

 Natural orbitals saved to record    2200.2 (Orbital set 3)

 Orbital spaces for UNO-CAS (Min. occupation: 0.020  Max. occupation: 1.980):

 Closed:       21
 Active:        0


 **********************************************************************************************************************************
 DATASETS  * FILE   NREC   LENGTH (MB)   RECORD NAMES
              1      20    23759.30       500      610      700      900      950      970     1000      129      960     1100   
                                          VAR    BASINP    GEOM    SYMINP    ZMAT    AOBASIS   BASIS     P2S    ABASIS      S 
                                         1400     1410     1200     1210     1080     1600     1650     1300     1700     1800   
                                           T        V       H0       H01     AOSYM     SMH    MOLCAS    ERIS     OPER     GRID   

              2       5       11.56       700     1000      520     1800     2200   
                                         GEOM     BASIS   MCVARS    GRID      UKS  

 PROGRAMS   *        TOTAL       UKS       INT
 CPU TIMES  *      2400.54   1979.51    420.89
 REAL TIME  *     11080.17 SEC
 DISK USED  *        89.43 GB      
 **********************************************************************************************************************************


 PROGRAM * Intrinsic Basis Bonding Analysis (IBBA)          Author: G. Knizia

 Molecular orbitals read from record     2200.2  Type=UKS/ALPHA (state 1.1)
 Fock matrix read from record            2200.2  Type=UKS/TOTAL (state 1.1)
 Orbital energies read from record       2200.2  Type=UKS/ALPHA (state 1.1)
 Density matrix read from record         2200.2  Type=UKS/CHARGE (state 1.1)

 Number of core orbitals:           5 (   5 )
 Number of closed-shell orbitals:  16 (  16 )

 Basis set MINAO-AUTO-PP generated.      Number of basis functions:   35 

 Polarized AO type:                A = (O Ot + (1-O)(1-Ot)) P12
 Orthogonalization method:         Symmetric (Loewdin)
 Localization functional:          L = sum[A,i] <i|n_A|i>^4 -> max

 Localization group 1:  21 orbitals, occupancy  2.000
 Iterative localization: IB/PM,    7 iter; Final gradient 0.18E-08

 Bond order analysis:       [THRPRINT= 0.020]

   CEN ATOM   CEN ATOM     WIBERG.BO      RENORM.BO
     1   C  -   2   C       0.995670       0.993269
     1   C  -   5   H       0.963937       0.987767
     1   C  -   6   H       0.959456       0.982845
     1   C  -   7   H       0.959456       0.982845

     2   C  -   1   C       0.995670       0.993269
     2   C  -   9   C       0.995043       0.977568
     2   C  -   8   C       0.995043       0.977568
     2   C  -   3   O       0.932193       0.952774

     3   O  -   2   C       0.932193       0.952774
     3   O  -   4   H       0.864341       0.978075
     3   O  -   8   C       0.025263       0.012977
     3   O  -   9   C       0.025263       0.012977

     4   H  -   3   O       0.864341       0.978075

     5   H  -   1   C       0.963937       0.987767

     6   H  -   1   C       0.959456       0.982845

     7   H  -   1   C       0.959456       0.982845

     8   C  -   2   C       0.995043       0.977568
     8   C  -  14   H       0.963576       0.983471
     8   C  -  12   H       0.960492       0.983864
     8   C  -  10   H       0.959750       0.982701
     8   C  -   3   O       0.025263       0.012977

     9   C  -   2   C       0.995043       0.977568
     9   C  -  15   H       0.963576       0.983471
     9   C  -  13   H       0.960492       0.983864
     9   C  -  11   H       0.959750       0.982701
     9   C  -   3   O       0.025263       0.012977

    10   H  -   8   C       0.959750       0.982701

    11   H  -   9   C       0.959750       0.982701

    12   H  -   8   C       0.960492       0.983864

    13   H  -   9   C       0.960492       0.983864

    14   H  -   8   C       0.963576       0.983471

    15   H  -   9   C       0.963576       0.983471


 Valency analysis:

   CEN ATOM   TOT.VALENCE
     1   C       3.935113
     2   C       3.928648
     3   O       1.908100
     4   H       0.882466
     5   H       0.981994
     6   H       0.979534
     7   H       0.979534
     8   C       3.937722
     9   C       3.937722
    10   H       0.979400
    11   H       0.979400
    12   H       0.981142
    13   H       0.981142
    14   H       0.983588
    15   H       0.983588

 Total charge composition:

   CEN ATOM         s          p       ELECTRONS ->P.CHARGE
     1   C       3.02984    3.38169      6.41154   -0.41154
     2   C       2.92977    2.81140      5.74117    0.25883
     3   O       3.63309    4.94398      8.57707   -0.57707
     4   H       0.65717                 0.65717    0.34283
     5   H       0.86582                 0.86582    0.13418
     6   H       0.85694                 0.85694    0.14306
     7   H       0.85694                 0.85694    0.14306
     8   C       3.03559    3.39005      6.42564   -0.42564
     9   C       3.03559    3.39005      6.42564   -0.42564
    10   H       0.85647                 0.85647    0.14353
    11   H       0.85647                 0.85647    0.14353
    12   H       0.86268                 0.86268    0.13732
    13   H       0.86268                 0.86268    0.13732
    14   H       0.87189                 0.87189    0.12811
    15   H       0.87189                 0.87189    0.12811

 Total charge composition, AO contributions:

   CEN ATOM SHL      SPHERICAL COMPONENTS
     1   C  1s       1.99126
     1   C  2s       1.03858
     1   C  2p       1.04120    1.16481    1.17568

     2   C  1s       1.99285
     2   C  2s       0.93692
     2   C  2p       1.01194    0.78684    1.01262

     3   O  1s       1.99718
     3   O  2s       1.63591
     3   O  2p       1.48046    1.50260    1.96092

     4   H  1s       0.65717

     5   H  1s       0.86582

     6   H  1s       0.85694

     7   H  1s       0.85694

     8   C  1s       1.99136
     8   C  2s       1.04423
     8   C  2p       1.14618    1.14647    1.09740

     9   C  1s       1.99136
     9   C  2s       1.04423
     9   C  2p       1.14618    1.14647    1.09740

    10   H  1s       0.85647

    11   H  1s       0.85647

    12   H  1s       0.86268

    13   H  1s       0.86268

    14   H  1s       0.87189

    15   H  1s       0.87189

 Summary of localized orbital composition:   [THRPRINT= 0.020]

   ORB  GRP  ORB.ENERGY      CENTERS/CHARGES
     1   1   -19.401220      O  3   2.000
     2   1   -10.466148      C  2   2.000
     3   1   -10.373411      C  9   2.000
     4   1   -10.373411      C  8   2.000
     5   1   -10.366950      C  1   2.000
     6   1    -0.855387      O  3   1.344   H  4   0.647
     7   1    -0.815794      O  3   1.285   C  2   0.698
     8   1    -0.665924      O  3   1.983
     9   1    -0.655888      C  8   1.007   C  2   0.978
    10   1    -0.655888      C  9   1.007   C  2   0.978
    11   1    -0.655182      C  2   0.989   C  1   0.988   (other: 0.022)
    12   1    -0.583765      C  9   1.133   H 13   0.854
    13   1    -0.583765      C  8   1.133   H 12   0.854
    14   1    -0.581797      C  8   1.124   H 14   0.865
    15   1    -0.581797      C  9   1.124   H 15   0.865
    16   1    -0.580022      C  1   1.128   H  5   0.859
    17   1    -0.577654      C  9   1.141   H 11   0.849
    18   1    -0.577654      C  8   1.141   H 10   0.849
    19   1    -0.572530      C  1   1.140   H  7   0.849
    20   1    -0.572530      C  1   1.140   H  6   0.849
    21   1    -0.398705      O  3   1.961   (other: 0.039)

 Localized orbitals saved to record      2200.2  (orbital set 4)


 **********************************************************************************************************************************
 DATASETS  * FILE   NREC   LENGTH (MB)   RECORD NAMES
              1      20    23759.30       500      610      700      900      950      970     1000      129      960     1100   
                                          VAR    BASINP    GEOM    SYMINP    ZMAT    AOBASIS   BASIS     P2S    ABASIS      S 
                                         1400     1410     1200     1210     1080     1600     1650     1300     1700     1800   
                                           T        V       H0       H01     AOSYM     SMH    MOLCAS    ERIS     OPER     GRID   

              2       5       13.27       700     1000      520     1800     2200   
                                         GEOM     BASIS   MCVARS    GRID      UKS  

 PROGRAMS   *        TOTAL      IBBA       UKS       INT
 CPU TIMES  *      2400.80      0.26   1979.51    420.89
 REAL TIME  *     11080.54 SEC
 DISK USED  *        89.43 GB      
 **********************************************************************************************************************************
 Molecular orbitals read from record     2200.2  Type=UKS/LOCAL(IBO)  
 Occupation numbers read from record     2200.2  Type=UKS/LOCAL(IBO)  
 Orbital energies read from record       2200.2  Type=UKS/LOCAL(IBO)  
 Redundancy group numbers read from rec  2200.2  Type=UKS/BETA (state 1.1)

 IBBA/aug-cc-pVTZ energy=      0.000000000000

        UKS-SCF 
   -233.59417224
 **********************************************************************************************************************************
 Molpro calculation terminated
