
 Primary working directories    : /tmp/sb13343
 Secondary working directories  : /tmp/sb13343
 Wavefunction directory         : /panfs/panasas01/chem/sb13343/wfu/
 Main file repository           : /tmp/sb13343/

 SHA1      : b4a5b34a9e711420743f49e6833241d17c61fb3c
 NAME      : 2099.9.b4a5b34
 ARCHNAME  : linux/x86_64_openmp
 FC        : /cm/shared/languages/GCC-6.1/bin/gfortran
 BLASLIB   : -lblas
 id        : simonbennie

 Nodes     nprocs
 node32-036    1

 Using customized tuning parameters: mindgm=1; mindgv=20; mindgc=4; mindgr=1; noblas=0; minvec=7
 default implementation of scratch files=df  

 memory,500,m
 geomtyp=xyz
 nosym
 noorient
 geometry={
 C          0.00000        0.00000        0.00000
 C          0.00000        0.00000        1.53307
 O          1.40344        0.00000        1.86307
 C          1.76314        0.00000        3.22887
 H         -1.02289        0.00000       -0.39176
 H          0.51995       -0.88625       -0.37815
 H          0.51995        0.88625       -0.37815
 H          2.85677        0.00000        3.25413
 H          1.40708       -0.89217        3.76475
 H          1.40708        0.89217        3.76475
 C         -0.69252       -1.26694        2.06222
 C         -0.69252        1.26694        2.06222
 H         -0.15366       -2.16088        1.72982
 H         -0.15366        2.16088        1.72982
 H         -1.72011       -1.32515        1.68649
 H         -1.72011        1.32515        1.68649
 H         -0.74365       -1.28188        3.15638
 H         -0.74365        1.28188        3.15638
 }
 basis={ default,sto-3g }
 {uks,B-LYP,direct;wf,50,1,0}
 {ibba,bonds=1}

 Variables initialized (895), CPU time= 0.00 sec
 Commands  initialized (725), CPU time= 0.01 sec, 591 directives.
 Default parameters read. Elapsed time= 0.10 sec

 Checking input...
 Passed
1


                                         ***  PROGRAM SYSTEM MOLPRO  ***
                                       Copyright, TTI GmbH Stuttgart, 2015
                                    Version 2099.9 linked May 26 2017 16:03:21


 **********************************************************************************************************************************
 LABEL *                                                                                 
  64 bit serial version                                                                  DATE: 09-Jun-17          TIME: 01:30:05  
 **********************************************************************************************************************************

 SHA1:             b4a5b34a9e711420743f49e6833241d17c61fb3c
 **********************************************************************************************************************************
 SETTING GEOMTYP        =    XYZ

 Variable memory set to  500000000 words,  buffer space 

 ZSYMEL=NOSYM

 SETTING BASIS          =    STO-3G


 Recomputing integrals since basis changed


 Using spherical harmonics

 Library entry C      S STO-3G               selected for orbital group  1
 Library entry C      P STO-3G               selected for orbital group  1
 Library entry O      S STO-3G               selected for orbital group  2
 Library entry O      P STO-3G               selected for orbital group  2
 Library entry H      S STO-3G               selected for orbital group  4


 PROGRAM * SEWARD (Integral evaluation for generally contracted gaussian basis sets)     Author: Roland Lindh, 1990

 Geometry written to block  1 of record 700


 Point group  C1  



 ATOMIC COORDINATES

 NR  ATOM    CHARGE       X              Y              Z

   1  C       6.00    0.000000000    0.000000000    0.000000000
   2  C       6.00    0.000000000    0.000000000    2.897082430
   3  O       8.00    2.652117232    0.000000000    3.520692051
   4  C       6.00    3.331851719    0.000000000    6.101679992
   5  H       1.00   -1.932981956    0.000000000   -0.740319107
   6  H       1.00    0.982563098   -1.674769778   -0.714599934
   7  H       1.00    0.982563098    1.674769778   -0.714599934
   8  H       1.00    5.398512901    0.000000000    6.149414474
   9  H       1.00    2.658995835   -1.685956957    7.114346427
  10  H       1.00    2.658995835    1.685956957    7.114346427
  11  C       6.00   -1.308673136   -2.394169616    3.897031009
  12  C       6.00   -1.308673136    2.394169616    3.897031009
  13  H       1.00   -0.290375316   -4.083471388    3.268886045
  14  H       1.00   -0.290375316    4.083471388    3.268886045
  15  H       1.00   -3.250536804   -2.504170574    3.187004212
  16  H       1.00   -3.250536804    2.504170574    3.187004212
  17  H       1.00   -1.405294833   -2.422402125    5.964693745
  18  H       1.00   -1.405294833    2.422402125    5.964693745

 Bond lengths in Bohr (Angstrom)

 1-2  2.897082430  1-5  2.069901355  1-6  2.069042560  1-7  2.069042560  2-3  2.724447609
     ( 1.533070000)     ( 1.095344626)     ( 1.094890171)     ( 1.094890171)     ( 1.441715587)

  2-11  2.905954351   2-12  2.905954351   3- 4  2.668995640   4- 8  2.067212379   4- 9  2.078624355
       ( 1.537764818)       ( 1.537764818)       ( 1.412371669)       ( 1.093921681)       ( 1.099960639)

  4-10  2.078624355  11-13  2.070081404  11-15  2.070524757  11-17  2.070111596  12-14  2.070081404
       ( 1.099960639)       ( 1.095439904)       ( 1.095674516)       ( 1.095455880)       ( 1.095439904)

 12-16  2.070524757  12-18  2.070111596
       ( 1.095674516)       ( 1.095455880)

 Bond angles

  1- 2- 3  103.23196371   1- 2-11  110.12706952   1- 2-12  110.12706952   2- 1- 5  110.95650426

  2- 1- 6  110.20481748   2- 1- 7  110.20481748   2- 3- 4  117.98647004   2-11-13  110.26679927

  2-11-15  110.37287188   2-11-17  112.08316935   2-12-14  110.26679927   2-12-16  110.37287188

  2-12-18  112.08316935   3- 2-11  111.07703285   3- 2-12  111.07703285   3- 4- 8  106.07765410

  3- 4- 9  112.87219182   3- 4-10  112.87219182   5- 1- 6  108.65976572   5- 1- 7  108.65976572

  6- 1- 7  108.08288210   8- 4- 9  108.20190897   8- 4-10  108.20190897   9- 4-10  108.40564999

 11- 2-12  110.95103964  13-11-15  108.29648994  13-11-17  108.35544687  14-12-16  108.29648994

 14-12-18  108.35544687  15-11-17  107.33851825  16-12-18  107.33851825

 NUCLEAR CHARGE:                   50
 NUMBER OF PRIMITIVE AOS:         126
 NUMBER OF SYMMETRY AOS:          126
 NUMBER OF CONTRACTIONS:           42   (  42A   )
 NUMBER OF CORE ORBITALS:           6   (   6A   )
 NUMBER OF VALENCE ORBITALS:       36   (  36A   )


 NUCLEAR REPULSION ENERGY  270.15500869


 Eigenvalues of metric

         1 0.207E+00 0.226E+00 0.228E+00 0.234E+00 0.307E+00 0.355E+00 0.359E+00 0.362E+00


 Contracted 2-electron integrals neglected if value below      1.0D-11
 AO integral compression algorithm  1   Integral accuracy      1.0D-11

     2.884 MB (compressed) written to integral file ( 84.3%)


 NUMBER OF SORTED TWO-ELECTRON INTEGRALS:     408156.     BUFFER LENGTH:  32768
 NUMBER OF SEGMENTS:   1  SEGMENT LENGTH:     408156      RECORD LENGTH: 524288

 Memory used in sort:       0.97 MW

 SORT1 READ      453477. AND WROTE      382834. INTEGRALS IN      2 RECORDS. CPU TIME:     0.00 SEC, REAL TIME:     0.02 SEC
 SORT2 READ      382834. AND WROTE      408156. INTEGRALS IN     11 RECORDS. CPU TIME:     0.03 SEC, REAL TIME:     0.03 SEC

 FILE SIZES:   FILE 1:    33.2 MBYTE,  FILE 4:     8.4 MBYTE,   TOTAL:     41.6 MBYTE

 OPERATOR DM      FOR CENTER  0  COORDINATES:    0.000000    0.000000    0.000000


 **********************************************************************************************************************************
 DATASETS  * FILE   NREC   LENGTH (MB)   RECORD NAMES
              1      19       31.98       500      610      700      900      950      970     1000      129      960     1100   
                                          VAR    BASINP    GEOM    SYMINP    ZMAT    AOBASIS   BASIS     P2S    ABASIS      S 
                                         1400     1410     1200     1210     1080     1600     1650     1300     1700   
                                           T        V       H0       H01     AOSYM     SMH    MOLCAS    ERIS     OPER   

 PROGRAMS   *        TOTAL       INT
 CPU TIMES  *         0.78      0.63
 REAL TIME  *         1.17 SEC
 DISK USED  *        42.19 MB      
 **********************************************************************************************************************************

 Density functional group B-LYP=B88+LYP
 Functional: B88(Automatically generated (new) B88)                            Gradient terms: 1
 Functional: LYP(Automatically generated (new) LYP)                            Gradient terms: 1
 Use grid at  1800.2

 Functional: B88                       Factor:  1.0000
 Functional: LYP                       Factor:  1.0000

 Generated new metagrid on record  1800.2 with target accuracy 1.0D-06 and 66012 points in CPU time    1.9
 Computed new grid on record 1800.1 in CPU time    2.2
   38106 words reserved for DFT integration

 PROGRAM * UKS-SCF (Unrestricted Kohn-Sham)     Authors: W. Meyer, H.-J. Werner, P.J. Knowles, 1993

 NUMBER OF ELECTRONS:      25+   25-    SPACE SYMMETRY=1    SPIN SYMMETRY: Singlet 
 CONVERGENCE THRESHOLDS:    1.00E-05 (Density)    1.00E-06 (Energy)
 MAX. NUMBER OF ITERATIONS:       60
 INTERPOLATION TYPE:            DIIS
 INTERPOLATION STEPS:              2 (START)      1 (STEP)
 LEVEL SHIFTS:                 -0.20 (ALPHA)  -0.20 (BETA) 



 Use fine grid record 1800.2 for energy threshold  1.0D-06
 Orbital guess generated from atomic densities. Full valence occupancy:   25

 Molecular orbital dump at record        2200.2

 Initial alpha occupation  25
 Initial beta  occupation  25

 ITERATION    DDIFF          GRAD             ENERGY        2-EL.EN.            DIPOLE MOMENTS         DIIS
    1      0.000D+00      0.000D+00      -268.95025040    824.393381   -0.89983    0.00000    0.83180    0
    2      0.579D-01      0.185D-01      -269.36692440    799.667564   -0.20490    0.00000    0.01871    1
    3      0.982D-02      0.397D-02      -269.38452783    803.380941   -0.31239    0.00000    0.19461    2
    4      0.101D-02      0.376D-03      -269.38476189    803.351042   -0.32191    0.00000    0.20054    3
    5      0.428D-03      0.129D-03      -269.38479869    803.340932   -0.32153    0.00000    0.20388    4
    6      0.175D-03      0.330D-04      -269.38480201    803.340078   -0.31918    0.00000    0.20377    5
    7      0.382D-04      0.137D-04      -269.38480223    803.340236   -0.32013    0.00000    0.20449    6
    8      0.126D-04      0.408D-05      -269.38480226    803.340073   -0.31980    0.00000    0.20430    6
    9      0.205D-05      0.487D-06      -269.38480226    803.340166   -0.31981    0.00000    0.20432    6
   10      0.773D-06      0.250D-06      -269.38480226    803.340138   -0.31981    0.00000    0.20432    7

 Final alpha occupancy:  25
 Final beta  occupancy:  25

 !UKS STATE 1.1 Energy               -269.384802257303
 Nuclear energy                       270.15500869
 One-electron energy                 -901.13306948
 Two-electron energy                  401.67006917
 Density functional                   -40.07681064     B88=-38.45205793 LYP= -1.62475271
 Virial quotient                       -1.01610127
 !UKS STATE 1.1 Dipole moment          -0.31980619     0.00000000     0.20431508
 Dipole moment /Debye                  -0.81281302     0.00000000     0.51928312

 Orbital energies for positive spin:

         1.1          2.1          3.1          4.1          5.1          6.1          7.1          8.1          9.1         10.1
    -18.519941    -9.802770    -9.780428    -9.739383    -9.737937    -9.737856    -0.858908    -0.670300    -0.581148    -0.578415

        11.1         12.1         13.1         14.1         15.1         16.1         17.1         18.1         19.1         20.1
     -0.555240    -0.437519    -0.379859    -0.358116    -0.353938    -0.336740    -0.318081    -0.303208    -0.293750    -0.279613

        21.1         22.1         23.1         24.1         25.1         26.1         27.1
     -0.278055    -0.248651    -0.244139    -0.129549    -0.063460     0.236010     0.315498

 Orbital energies for negative spin:

         1.1          2.1          3.1          4.1          5.1          6.1          7.1          8.1          9.1         10.1
    -18.519941    -9.802770    -9.780428    -9.739383    -9.737937    -9.737856    -0.858908    -0.670300    -0.581148    -0.578415

        11.1         12.1         13.1         14.1         15.1         16.1         17.1         18.1         19.1         20.1
     -0.555240    -0.437519    -0.379859    -0.358116    -0.353938    -0.336740    -0.318081    -0.303208    -0.293750    -0.279613

        21.1         22.1         23.1         24.1         25.1         26.1         27.1
     -0.278055    -0.248651    -0.244139    -0.129549    -0.063460     0.236010     0.315498

 HOMO     25.1    -0.063460 =      -1.7268eV
 LUMO     26.1     0.236010 =       6.4221eV
 LUMO-HOMO         0.299470 =       8.1490eV

 EXPECTATION VALUE OF S**2:            -0.00000000

 Natural orbitals saved to record    2200.2 (Orbital set 3)

 Orbital spaces for UNO-CAS (Min. occupation: 0.020  Max. occupation: 1.980):

 Closed:       25
 Active:        0


 **********************************************************************************************************************************
 DATASETS  * FILE   NREC   LENGTH (MB)   RECORD NAMES
              1      20       34.09       500      610      700      900      950      970     1000      129      960     1100   
                                          VAR    BASINP    GEOM    SYMINP    ZMAT    AOBASIS   BASIS     P2S    ABASIS      S 
                                         1400     1410     1200     1210     1080     1600     1650     1300     1700     1800   
                                           T        V       H0       H01     AOSYM     SMH    MOLCAS    ERIS     OPER     GRID   

              2       5        3.13       700     1000      520     1800     2200   
                                         GEOM     BASIS   MCVARS    GRID      UKS  

 PROGRAMS   *        TOTAL       UKS       INT
 CPU TIMES  *         8.94      8.15      0.63
 REAL TIME  *         9.75 SEC
 DISK USED  *        42.19 MB      
 **********************************************************************************************************************************


 PROGRAM * Intrinsic Basis Bonding Analysis (IBBA)          Author: G. Knizia

 Molecular orbitals read from record     2200.2  Type=UKS/ALPHA (state 1.1)
 Fock matrix read from record            2200.2  Type=UKS/TOTAL (state 1.1)
 Orbital energies read from record       2200.2  Type=UKS/ALPHA (state 1.1)
 Density matrix read from record         2200.2  Type=UKS/CHARGE (state 1.1)

 Number of core orbitals:           6 (   6 )
 Number of closed-shell orbitals:  19 (  19 )

 Basis set MINAO-AUTO-PP generated.      Number of basis functions:   42 

 Polarized AO type:                A = (O Ot + (1-O)(1-Ot)) P12
 Orthogonalization method:         Symmetric (Loewdin)
 Localization functional:          L = sum[A,i] <i|n_A|i>^4 -> max

 Localization group 1:  25 orbitals, occupancy  2.000
 Iterative localization: IB/PM,    7 iter; Final gradient 0.56E-08

 Bond order analysis:       [THRPRINT= 0.020]

   CEN ATOM   CEN ATOM     WIBERG.BO      RENORM.BO
     1   C  -   2   C       0.989875       0.987263
     1   C  -   5   H       0.966336       0.989448
     1   C  -   6   H       0.963478       0.986721
     1   C  -   7   H       0.963478       0.986721

     2   C  -   1   C       0.989875       0.987263
     2   C  -  12   C       0.985172       0.959447
     2   C  -  11   C       0.985172       0.959447
     2   C  -   3   O       0.979664       0.960202

     3   O  -   4   C       1.025505       1.016265
     3   O  -   2   C       0.979664       0.960202
     3   O  -   9   H       0.033132       0.019633
     3   O  -  10   H       0.033132       0.019633
     3   O  -  11   C       0.028002       0.014832
     3   O  -  12   C       0.028002       0.014832

     4   C  -   3   O       1.025505       1.016265
     4   C  -   8   H       0.953802       0.972762
     4   C  -   9   H       0.950567       0.939533
     4   C  -  10   H       0.950567       0.939533

     5   H  -   1   C       0.966336       0.989448

     6   H  -   1   C       0.963478       0.986721

     7   H  -   1   C       0.963478       0.986721

     8   H  -   4   C       0.953802       0.972762

     9   H  -   4   C       0.950567       0.939533
     9   H  -   3   O       0.033132       0.019633

    10   H  -   4   C       0.950567       0.939533
    10   H  -   3   O       0.033132       0.019633

    11   C  -   2   C       0.985172       0.959447
    11   C  -  17   H       0.965309       0.985389
    11   C  -  13   H       0.964125       0.986502
    11   C  -  15   H       0.963981       0.988883
    11   C  -   3   O       0.028002       0.014832

    12   C  -   2   C       0.985172       0.959447
    12   C  -  18   H       0.965309       0.985389
    12   C  -  14   H       0.964125       0.986502
    12   C  -  16   H       0.963981       0.988883
    12   C  -   3   O       0.028002       0.014832

    13   H  -  11   C       0.964125       0.986502

    14   H  -  12   C       0.964125       0.986502

    15   H  -  11   C       0.963981       0.988883

    16   H  -  12   C       0.963981       0.988883

    17   H  -  11   C       0.965309       0.985389

    18   H  -  12   C       0.965309       0.985389


 Valency analysis:

   CEN ATOM   TOT.VALENCE
     1   C       3.935312
     2   C       3.970424
     3   O       2.186714
     4   C       3.904173
     5   H       0.983345
     6   H       0.981724
     7   H       0.981724
     8   H       0.980868
     9   H       0.988290
    10   H       0.988290
    11   C       3.936837
    12   C       3.936837
    13   H       0.982466
    14   H       0.982466
    15   H       0.982535
    16   H       0.982535
    17   H       0.984183
    18   H       0.984183

 Total charge composition:

   CEN ATOM         s          p       ELECTRONS ->P.CHARGE
     1   C       2.99906    3.38691      6.38597   -0.38597
     2   C       2.94900    2.93001      5.87901    0.12099
     3   O       3.66311    4.55066      8.21377   -0.21377
     4   C       3.00410    3.25391      6.25802   -0.25802
     5   H       0.87094                 0.87094    0.12906
     6   H       0.86481                 0.86481    0.13519
     7   H       0.86481                 0.86481    0.13519
     8   H       0.86168                 0.86168    0.13832
     9   H       0.89179                 0.89179    0.10821
    10   H       0.89179                 0.89179    0.10821
    11   C       2.99967    3.39938      6.39904   -0.39904
    12   C       2.99967    3.39938      6.39904   -0.39904
    13   H       0.86758                 0.86758    0.13242
    14   H       0.86758                 0.86758    0.13242
    15   H       0.86784                 0.86784    0.13216
    16   H       0.86784                 0.86784    0.13216
    17   H       0.87423                 0.87423    0.12577
    18   H       0.87423                 0.87423    0.12577

 Total charge composition, AO contributions:

   CEN ATOM SHL      SPHERICAL COMPONENTS
     1   C  1s       1.99209
     1   C  2s       1.00697
     1   C  2p       1.16562    1.17391    1.04739

     2   C  1s       1.99350
     2   C  2s       0.95550
     2   C  2p       0.86685    1.03263    1.03053

     3   O  1s       1.99748
     3   O  2s       1.66563
     3   O  2p       1.31374    1.90398    1.33294

     4   C  1s       1.99262
     4   C  2s       1.01148
     4   C  2p       1.16443    1.17520    0.91429

     5   H  1s       0.87094

     6   H  1s       0.86481

     7   H  1s       0.86481

     8   H  1s       0.86168

     9   H  1s       0.89179

    10   H  1s       0.89179

    11   C  1s       1.99215
    11   C  2s       1.00752
    11   C  2p       1.14811    1.09788    1.15338

    12   C  1s       1.99215
    12   C  2s       1.00752
    12   C  2p       1.14811    1.09788    1.15338

    13   H  1s       0.86758

    14   H  1s       0.86758

    15   H  1s       0.86784

    16   H  1s       0.86784

    17   H  1s       0.87423

    18   H  1s       0.87423

 Summary of localized orbital composition:   [THRPRINT= 0.020]

   ORB  GRP  ORB.ENERGY      CENTERS/CHARGES
     1   1   -18.362469      O  3   2.000
     2   1    -9.712175      C  2   2.000
     3   1    -9.675514      C  4   2.000
     4   1    -9.629783      C  1   2.000
     5   1    -9.628974      C 12   2.000
     6   1    -9.628974      C 11   2.000
     7   1    -0.585079      O  3   1.163   C  4   0.828
     8   1    -0.551199      O  3   1.171   C  2   0.804   (other: 0.026)
     9   1    -0.460787      C  2   0.995   C  1   0.981   (other: 0.024)
    10   1    -0.460047      C 11   0.995   C  2   0.991
    11   1    -0.460047      C 12   0.995   C  2   0.991
    12   1    -0.423094      C  4   1.138   H  8   0.852
    13   1    -0.421716      C  4   1.127   H 10   0.872
    14   1    -0.421716      C  4   1.127   H  9   0.872
    15   1    -0.416385      O  3   1.966   (other: 0.034)
    16   1    -0.408574      C  1   1.125   H  5   0.864
    17   1    -0.408207      C 12   1.124   H 18   0.867
    18   1    -0.408207      C 11   1.124   H 17   0.867
    19   1    -0.408000      C 11   1.128   H 15   0.860
    20   1    -0.408000      C 12   1.128   H 16   0.860
    21   1    -0.404617      C 12   1.130   H 14   0.861
    22   1    -0.404617      C 11   1.130   H 13   0.861
    23   1    -0.402147      C  1   1.133   H  6   0.858
    24   1    -0.402147      C  1   1.133   H  7   0.858
    25   1    -0.094526      O  3   1.904   C  2   0.022   (other: 0.074)

 Localized orbitals saved to record      2200.2  (orbital set 4)


 **********************************************************************************************************************************
 DATASETS  * FILE   NREC   LENGTH (MB)   RECORD NAMES
              1      20       34.09       500      610      700      900      950      970     1000      129      960     1100   
                                          VAR    BASINP    GEOM    SYMINP    ZMAT    AOBASIS   BASIS     P2S    ABASIS      S 
                                         1400     1410     1200     1210     1080     1600     1650     1300     1700     1800   
                                           T        V       H0       H01     AOSYM     SMH    MOLCAS    ERIS     OPER     GRID   

              2       5        3.15       700     1000      520     1800     2200   
                                         GEOM     BASIS   MCVARS    GRID      UKS  

 PROGRAMS   *        TOTAL      IBBA       UKS       INT
 CPU TIMES  *         8.97      0.03      8.15      0.63
 REAL TIME  *         9.91 SEC
 DISK USED  *        42.19 MB      
 **********************************************************************************************************************************
 Molecular orbitals read from record     2200.2  Type=UKS/LOCAL(IBO)  
 Occupation numbers read from record     2200.2  Type=UKS/LOCAL(IBO)  
 Orbital energies read from record       2200.2  Type=UKS/LOCAL(IBO)  
 Redundancy group numbers read from rec  2200.2  Type=UKS/BETA (state 1.1)

 IBBA/STO-3G energy=      0.000000000000

        UKS-SCF 
   -269.38480226
 **********************************************************************************************************************************
 Molpro calculation terminated
