
 Primary working directories    : /tmp/sb13343
 Secondary working directories  : /tmp/sb13343
 Wavefunction directory         : /panfs/panasas01/chem/sb13343/wfu/
 Main file repository           : /tmp/sb13343/

 SHA1      : b4a5b34a9e711420743f49e6833241d17c61fb3c
 NAME      : 2099.9.b4a5b34
 ARCHNAME  : linux/x86_64_openmp
 FC        : /cm/shared/languages/GCC-6.1/bin/gfortran
 BLASLIB   : -lblas
 id        : simonbennie

 Nodes     nprocs
 node32-007    1

 Using customized tuning parameters: mindgm=1; mindgv=20; mindgc=4; mindgr=1; noblas=0; minvec=7
 default implementation of scratch files=df  

 memory,500,m
 geomtyp=xyz
 nosym
 noorient
 geometry={
 C          0.00000        0.00000        0.00000
 C          0.00000        0.00000        1.53307
 O          1.40344        0.00000        1.86307
 C          1.76314        0.00000        3.22887
 H         -1.02289        0.00000       -0.39176
 H          0.51995       -0.88625       -0.37815
 H          0.51995        0.88625       -0.37815
 H          2.85677        0.00000        3.25413
 H          1.40708       -0.89217        3.76475
 H          1.40708        0.89217        3.76475
 C         -0.69252       -1.26694        2.06222
 C         -0.69252        1.26694        2.06222
 H         -0.15366       -2.16088        1.72982
 H         -0.15366        2.16088        1.72982
 H         -1.72011       -1.32515        1.68649
 H         -1.72011        1.32515        1.68649
 H         -0.74365       -1.28188        3.15638
 H         -0.74365        1.28188        3.15638
 }
 basis={ default,svp }
 {uks,SOGGA,direct;wf,50,1,0}
 {ibba,bonds=1}

 Variables initialized (895), CPU time= 0.01 sec
 Commands  initialized (725), CPU time= 0.01 sec, 591 directives.
 Default parameters read. Elapsed time= 0.08 sec

 Checking input...
 Passed
1


                                         ***  PROGRAM SYSTEM MOLPRO  ***
                                       Copyright, TTI GmbH Stuttgart, 2015
                                    Version 2099.9 linked May 26 2017 16:03:21


 **********************************************************************************************************************************
 LABEL *                                                                                 
  64 bit serial version                                                                  DATE: 09-Jun-17          TIME: 02:05:47  
 **********************************************************************************************************************************

 SHA1:             b4a5b34a9e711420743f49e6833241d17c61fb3c
 **********************************************************************************************************************************
 SETTING GEOMTYP        =    XYZ

 Variable memory set to  500000000 words,  buffer space 

 ZSYMEL=NOSYM

 SETTING BASIS          =    SVP


 Recomputing integrals since basis changed


 Using spherical harmonics

 Library entry C      S def2-SVP             selected for orbital group  1
 Library entry C      P def2-SVP             selected for orbital group  1
 Library entry C      D def2-SVP             selected for orbital group  1
 Library entry O      S def2-SVP             selected for orbital group  2
 Library entry O      P def2-SVP             selected for orbital group  2
 Library entry O      D def2-SVP             selected for orbital group  2
 Library entry H      S def2-SVP             selected for orbital group  4
 Library entry H      P def2-SVP             selected for orbital group  4


 PROGRAM * SEWARD (Integral evaluation for generally contracted gaussian basis sets)     Author: Roland Lindh, 1990

 Geometry written to block  1 of record 700


 Point group  C1  



 ATOMIC COORDINATES

 NR  ATOM    CHARGE       X              Y              Z

   1  C       6.00    0.000000000    0.000000000    0.000000000
   2  C       6.00    0.000000000    0.000000000    2.897082430
   3  O       8.00    2.652117232    0.000000000    3.520692051
   4  C       6.00    3.331851719    0.000000000    6.101679992
   5  H       1.00   -1.932981956    0.000000000   -0.740319107
   6  H       1.00    0.982563098   -1.674769778   -0.714599934
   7  H       1.00    0.982563098    1.674769778   -0.714599934
   8  H       1.00    5.398512901    0.000000000    6.149414474
   9  H       1.00    2.658995835   -1.685956957    7.114346427
  10  H       1.00    2.658995835    1.685956957    7.114346427
  11  C       6.00   -1.308673136   -2.394169616    3.897031009
  12  C       6.00   -1.308673136    2.394169616    3.897031009
  13  H       1.00   -0.290375316   -4.083471388    3.268886045
  14  H       1.00   -0.290375316    4.083471388    3.268886045
  15  H       1.00   -3.250536804   -2.504170574    3.187004212
  16  H       1.00   -3.250536804    2.504170574    3.187004212
  17  H       1.00   -1.405294833   -2.422402125    5.964693745
  18  H       1.00   -1.405294833    2.422402125    5.964693745

 Bond lengths in Bohr (Angstrom)

 1-2  2.897082430  1-5  2.069901355  1-6  2.069042560  1-7  2.069042560  2-3  2.724447609
     ( 1.533070000)     ( 1.095344626)     ( 1.094890171)     ( 1.094890171)     ( 1.441715587)

  2-11  2.905954351   2-12  2.905954351   3- 4  2.668995640   4- 8  2.067212379   4- 9  2.078624355
       ( 1.537764818)       ( 1.537764818)       ( 1.412371669)       ( 1.093921681)       ( 1.099960639)

  4-10  2.078624355  11-13  2.070081404  11-15  2.070524757  11-17  2.070111596  12-14  2.070081404
       ( 1.099960639)       ( 1.095439904)       ( 1.095674516)       ( 1.095455880)       ( 1.095439904)

 12-16  2.070524757  12-18  2.070111596
       ( 1.095674516)       ( 1.095455880)

 Bond angles

  1- 2- 3  103.23196371   1- 2-11  110.12706952   1- 2-12  110.12706952   2- 1- 5  110.95650426

  2- 1- 6  110.20481748   2- 1- 7  110.20481748   2- 3- 4  117.98647004   2-11-13  110.26679927

  2-11-15  110.37287188   2-11-17  112.08316935   2-12-14  110.26679927   2-12-16  110.37287188

  2-12-18  112.08316935   3- 2-11  111.07703285   3- 2-12  111.07703285   3- 4- 8  106.07765410

  3- 4- 9  112.87219182   3- 4-10  112.87219182   5- 1- 6  108.65976572   5- 1- 7  108.65976572

  6- 1- 7  108.08288210   8- 4- 9  108.20190897   8- 4-10  108.20190897   9- 4-10  108.40564999

 11- 2-12  110.95103964  13-11-15  108.29648994  13-11-17  108.35544687  14-12-16  108.29648994

 14-12-18  108.35544687  15-11-17  107.33851825  16-12-18  107.33851825

 NUCLEAR CHARGE:                   50
 NUMBER OF PRIMITIVE AOS:         234
 NUMBER OF SYMMETRY AOS:          228
 NUMBER OF CONTRACTIONS:          144   ( 144A   )
 NUMBER OF CORE ORBITALS:           6   (   6A   )
 NUMBER OF VALENCE ORBITALS:       36   (  36A   )


 NUCLEAR REPULSION ENERGY  270.15500869


 Eigenvalues of metric

         1 0.176E-02 0.508E-02 0.513E-02 0.102E-01 0.124E-01 0.215E-01 0.221E-01 0.252E-01


 Contracted 2-electron integrals neglected if value below      1.0D-11
 AO integral compression algorithm  1   Integral accuracy      1.0D-11

     186.384 MB (compressed) written to integral file ( 41.3%)


 NUMBER OF SORTED TWO-ELECTRON INTEGRALS:   54502020.     BUFFER LENGTH:  32768
 NUMBER OF SEGMENTS:   4  SEGMENT LENGTH:   15999503      RECORD LENGTH: 524288

 Memory used in sort:      16.56 MW

 SORT1 READ    56333432. AND WROTE    45703433. INTEGRALS IN    132 RECORDS. CPU TIME:     0.77 SEC, REAL TIME:     1.50 SEC
 SORT2 READ    45703433. AND WROTE    54502020. INTEGRALS IN    711 RECORDS. CPU TIME:     1.11 SEC, REAL TIME:     1.47 SEC

 FILE SIZES:   FILE 1:   217.4 MBYTE,  FILE 4:   553.7 MBYTE,   TOTAL:    771.1 MBYTE

 OPERATOR DM      FOR CENTER  0  COORDINATES:    0.000000    0.000000    0.000000


 **********************************************************************************************************************************
 DATASETS  * FILE   NREC   LENGTH (MB)   RECORD NAMES
              1      19      194.45       500      610      700      900      950      970     1000      129      960     1100   
                                          VAR    BASINP    GEOM    SYMINP    ZMAT    AOBASIS   BASIS     P2S    ABASIS      S 
                                         1400     1410     1200     1210     1080     1600     1650     1300     1700   
                                           T        V       H0       H01     AOSYM     SMH    MOLCAS    ERIS     OPER   

 PROGRAMS   *        TOTAL       INT
 CPU TIMES  *         7.62      7.48
 REAL TIME  *         9.57 SEC
 DISK USED  *       771.70 MB      
 **********************************************************************************************************************************

 Density functional group SOGGA=XC-SOGGA
 Functional: XC-SOGGA(via MFM 1.6)                                             Gradient terms: 1
 Use grid at  1800.2

 Functional: XC-SOGGA                  Factor:  1.0000

 Generated new metagrid on record  1800.2 with target accuracy 1.0D-06 and 66012 points in CPU time    2.0
 Computed new grid on record 1800.1 in CPU time    2.3
  118710 words reserved for DFT integration

 PROGRAM * UKS-SCF (Unrestricted Kohn-Sham)     Authors: W. Meyer, H.-J. Werner, P.J. Knowles, 1993

 NUMBER OF ELECTRONS:      25+   25-    SPACE SYMMETRY=1    SPIN SYMMETRY: Singlet 
 CONVERGENCE THRESHOLDS:    1.00E-05 (Density)    1.00E-06 (Energy)
 MAX. NUMBER OF ITERATIONS:       60
 INTERPOLATION TYPE:            DIIS
 INTERPOLATION STEPS:              2 (START)      1 (STEP)
 LEVEL SHIFTS:                 -0.20 (ALPHA)  -0.20 (BETA) 



 Use fine grid record 1800.2 for energy threshold  1.0D-06
 Orbital guess generated from atomic densities. Full valence occupancy:   25

 Molecular orbital dump at record        2200.2

 Initial alpha occupation  25
 Initial beta  occupation  25

 ITERATION    DDIFF          GRAD             ENERGY        2-EL.EN.            DIPOLE MOMENTS         DIIS
    1      0.000D+00      0.000D+00      -270.71193093    820.641026   -0.64119    0.00000    0.62190    0
    2      0.117D-01      0.505D-02      -270.95642991    794.447613   -0.32765    0.00000    0.22505    1
    3      0.379D-02      0.243D-02      -271.00966173    801.655516   -0.36677    0.00000    0.33011    2
    4      0.886D-03      0.249D-03      -271.01055184    801.225147   -0.33846    0.00000    0.30430    3
    5      0.492D-03      0.145D-03      -271.01085359    801.208457   -0.34467    0.00000    0.30750    4
    6      0.368D-03      0.470D-04      -271.01091493    801.145972   -0.33503    0.00000    0.30154    5
    7      0.685D-04      0.157D-04      -271.01091833    801.136089   -0.33865    0.00000    0.30218    6
    8      0.228D-04      0.782D-05      -271.01091908    801.141832   -0.33809    0.00000    0.30235    7
    9      0.799D-05      0.142D-05      -271.01091912    801.139706   -0.33783    0.00000    0.30207    7
   10      0.218D-05      0.455D-06      -271.01091912    801.140799   -0.33797    0.00000    0.30216    7

 Final alpha occupancy:  25
 Final beta  occupancy:  25

 !UKS STATE 1.1 Energy               -271.010919124504
 Nuclear energy                       270.15500869
 One-electron energy                 -903.41154346
 Two-electron energy                  400.57039941
 Density functional                   -38.32478377     XC-SOGGA=-38.32478377
 Virial quotient                       -1.00776470
 !UKS STATE 1.1 Dipole moment          -0.33797070     0.00000000     0.30215799
 Dipole moment /Debye                  -0.85897957     0.00000000     0.76795870

 Orbital energies for positive spin:

         1.1          2.1          3.1          4.1          5.1          6.1          7.1          8.1          9.1         10.1
    -18.668083    -9.884124    -9.860845    -9.818079    -9.818061    -9.812939    -0.916032    -0.710083    -0.614963    -0.608644

        11.1         12.1         13.1         14.1         15.1         16.1         17.1         18.1         19.1         20.1
     -0.588428    -0.480825    -0.427548    -0.405279    -0.400573    -0.373858    -0.357205    -0.343296    -0.326852    -0.319446

        21.1         22.1         23.1         24.1         25.1         26.1         27.1
     -0.309963    -0.291992    -0.290839    -0.243385    -0.195147     0.035280     0.064112

 Orbital energies for negative spin:

         1.1          2.1          3.1          4.1          5.1          6.1          7.1          8.1          9.1         10.1
    -18.668083    -9.884124    -9.860845    -9.818079    -9.818061    -9.812939    -0.916032    -0.710083    -0.614963    -0.608644

        11.1         12.1         13.1         14.1         15.1         16.1         17.1         18.1         19.1         20.1
     -0.588428    -0.480825    -0.427548    -0.405279    -0.400573    -0.373858    -0.357205    -0.343296    -0.326852    -0.319446

        21.1         22.1         23.1         24.1         25.1         26.1         27.1
     -0.309963    -0.291992    -0.290839    -0.243385    -0.195147     0.035280     0.064112

 HOMO     25.1    -0.195147 =      -5.3102eV
 LUMO     26.1     0.035280 =       0.9600eV
 LUMO-HOMO         0.230427 =       6.2702eV

 EXPECTATION VALUE OF S**2:            -0.00000000

 Natural orbitals saved to record    2200.2 (Orbital set 3)

 Orbital spaces for UNO-CAS (Min. occupation: 0.020  Max. occupation: 1.980):

 Closed:       25
 Active:        0


 **********************************************************************************************************************************
 DATASETS  * FILE   NREC   LENGTH (MB)   RECORD NAMES
              1      20      196.57       500      610      700      900      950      970     1000      129      960     1100   
                                          VAR    BASINP    GEOM    SYMINP    ZMAT    AOBASIS   BASIS     P2S    ABASIS      S 
                                         1400     1410     1200     1210     1080     1600     1650     1300     1700     1800   
                                           T        V       H0       H01     AOSYM     SMH    MOLCAS    ERIS     OPER     GRID   

              2       5        3.91       700     1000      520     1800     2200   
                                         GEOM     BASIS   MCVARS    GRID      UKS  

 PROGRAMS   *        TOTAL       UKS       INT
 CPU TIMES  *        43.88     36.26      7.48
 REAL TIME  *        60.65 SEC
 DISK USED  *       771.70 MB      
 **********************************************************************************************************************************


 PROGRAM * Intrinsic Basis Bonding Analysis (IBBA)          Author: G. Knizia

 Molecular orbitals read from record     2200.2  Type=UKS/ALPHA (state 1.1)
 Fock matrix read from record            2200.2  Type=UKS/TOTAL (state 1.1)
 Orbital energies read from record       2200.2  Type=UKS/ALPHA (state 1.1)
 Density matrix read from record         2200.2  Type=UKS/CHARGE (state 1.1)

 Number of core orbitals:           6 (   6 )
 Number of closed-shell orbitals:  19 (  19 )

 Basis set MINAO-AUTO-PP generated.      Number of basis functions:   42 

 Polarized AO type:                A = (O Ot + (1-O)(1-Ot)) P12
 Orthogonalization method:         Symmetric (Loewdin)
 Localization functional:          L = sum[A,i] <i|n_A|i>^4 -> max

 Localization group 1:  25 orbitals, occupancy  2.000
 Iterative localization: IB/PM,    7 iter; Final gradient 0.37E-08

 Bond order analysis:       [THRPRINT= 0.020]

   CEN ATOM   CEN ATOM     WIBERG.BO      RENORM.BO
     1   C  -   2   C       0.995556       0.993593
     1   C  -   5   H       0.958785       0.984467
     1   C  -   7   H       0.954257       0.979281
     1   C  -   6   H       0.954257       0.979281

     2   C  -   1   C       0.995556       0.993593
     2   C  -  12   C       0.991322       0.968815
     2   C  -  11   C       0.991322       0.968815
     2   C  -   3   O       0.930879       0.927107

     3   O  -   4   C       0.997364       1.014081
     3   O  -   2   C       0.930879       0.927107
     3   O  -   9   H       0.036396       0.021796
     3   O  -  10   H       0.036396       0.021796
     3   O  -  12   C       0.029200       0.015267
     3   O  -  11   C       0.029200       0.015267

     4   C  -   3   O       0.997364       1.014081
     4   C  -   8   H       0.951383       0.976423
     4   C  -   9   H       0.943746       0.931686
     4   C  -  10   H       0.943746       0.931686

     5   H  -   1   C       0.958785       0.984467

     6   H  -   1   C       0.954257       0.979281

     7   H  -   1   C       0.954257       0.979281

     8   H  -   4   C       0.951383       0.976423

     9   H  -   4   C       0.943746       0.931686
     9   H  -   3   O       0.036396       0.021796

    10   H  -   4   C       0.943746       0.931686
    10   H  -   3   O       0.036396       0.021796

    11   C  -   2   C       0.991322       0.968815
    11   C  -  17   H       0.956865       0.978817
    11   C  -  13   H       0.954733       0.979382
    11   C  -  15   H       0.954699       0.984803
    11   C  -   3   O       0.029200       0.015267

    12   C  -   2   C       0.991322       0.968815
    12   C  -  18   H       0.956865       0.978817
    12   C  -  14   H       0.954733       0.979382
    12   C  -  16   H       0.954699       0.984803
    12   C  -   3   O       0.029200       0.015267

    13   H  -  11   C       0.954733       0.979382

    14   H  -  12   C       0.954733       0.979382

    15   H  -  11   C       0.954699       0.984803

    16   H  -  12   C       0.954699       0.984803

    17   H  -  11   C       0.956865       0.978817

    18   H  -  12   C       0.956865       0.978817


 Valency analysis:

   CEN ATOM   TOT.VALENCE
     1   C       3.930270
     2   C       3.941479
     3   O       2.137124
     4   C       3.863696
     5   H       0.980963
     6   H       0.978202
     7   H       0.978202
     8   H       0.974940
     9   H       0.985952
    10   H       0.985952
    11   C       3.930428
    12   C       3.930428
    13   H       0.978503
    14   H       0.978503
    15   H       0.978745
    16   H       0.978745
    17   H       0.981241
    18   H       0.981241

 Total charge composition:

   CEN ATOM         s          p       ELECTRONS ->P.CHARGE
     1   C       3.02640    3.40057      6.42697   -0.42697
     2   C       2.92323    2.84721      5.77044    0.22956
     3   O       3.59953    4.77060      8.37012   -0.37012
     4   C       3.01636    3.21145      6.22781   -0.22781
     5   H       0.86203                 0.86203    0.13797
     6   H       0.85236                 0.85236    0.14764
     7   H       0.85236                 0.85236    0.14764
     8   H       0.84170                 0.84170    0.15830
     9   H       0.88147                 0.88147    0.11853
    10   H       0.88147                 0.88147    0.11853
    11   C       3.02619    3.41981      6.44601   -0.44601
    12   C       3.02619    3.41981      6.44601   -0.44601
    13   H       0.85338                 0.85338    0.14662
    14   H       0.85338                 0.85338    0.14662
    15   H       0.85421                 0.85421    0.14579
    16   H       0.85421                 0.85421    0.14579
    17   H       0.86304                 0.86304    0.13696
    18   H       0.86304                 0.86304    0.13696

 Total charge composition, AO contributions:

   CEN ATOM SHL      SPHERICAL COMPONENTS
     1   C  1s       1.99156
     1   C  2s       1.03484
     1   C  2p       1.16981    1.18292    1.04785

     2   C  1s       1.99320
     2   C  2s       0.93003
     2   C  2p       0.80879    1.01999    1.01843

     3   O  1s       1.99742
     3   O  2s       1.60211
     3   O  2p       1.42775    1.90141    1.44144

     4   C  1s       1.99217
     4   C  2s       1.02419
     4   C  2p       1.17027    1.18063    0.86055

     5   H  1s       0.86203

     6   H  1s       0.85236

     7   H  1s       0.85236

     8   H  1s       0.84170

     9   H  1s       0.88147

    10   H  1s       0.88147

    11   C  1s       1.99161
    11   C  2s       1.03459
    11   C  2p       1.15424    1.10445    1.16112

    12   C  1s       1.99161
    12   C  2s       1.03459
    12   C  2p       1.15424    1.10445    1.16112

    13   H  1s       0.85338

    14   H  1s       0.85338

    15   H  1s       0.85421

    16   H  1s       0.85421

    17   H  1s       0.86304

    18   H  1s       0.86304

 Summary of localized orbital composition:   [THRPRINT= 0.020]

   ORB  GRP  ORB.ENERGY      CENTERS/CHARGES
     1   1   -18.533773      O  3   2.000
     2   1    -9.796753      C  2   2.000
     3   1    -9.755243      C  4   2.000
     4   1    -9.708122      C 12   2.000
     5   1    -9.708122      C 11   2.000
     6   1    -9.702294      C  1   2.000
     7   1    -0.687638      O  3   1.240   C  4   0.752
     8   1    -0.659008      O  3   1.264   C  2   0.710   (other: 0.026)
     9   1    -0.510214      C 11   1.007   C  2   0.975
    10   1    -0.510214      C 12   1.007   C  2   0.975
    11   1    -0.507832      C  1   0.990   C  2   0.985   (other: 0.025)
    12   1    -0.461757      O  3   1.958   (other: 0.042)
    13   1    -0.454174      C  4   1.139   H 10   0.859
    14   1    -0.454174      C  4   1.139   H  9   0.859
    15   1    -0.452441      C  4   1.157   H  8   0.834
    16   1    -0.440661      C 11   1.137   H 15   0.845
    17   1    -0.440661      C 12   1.137   H 16   0.845
    18   1    -0.438934      C 12   1.134   H 18   0.854
    19   1    -0.438934      C 11   1.134   H 17   0.854
    20   1    -0.436941      C  1   1.131   H  5   0.854
    21   1    -0.434824      C 11   1.144   H 13   0.844
    22   1    -0.434824      C 12   1.144   H 14   0.844
    23   1    -0.429888      C  1   1.145   H  7   0.843
    24   1    -0.429888      C  1   1.145   H  6   0.843
    25   1    -0.239005      O  3   1.901   C  2   0.021   (other: 0.078)

 Localized orbitals saved to record      2200.2  (orbital set 4)


 **********************************************************************************************************************************
 DATASETS  * FILE   NREC   LENGTH (MB)   RECORD NAMES
              1      20      196.57       500      610      700      900      950      970     1000      129      960     1100   
                                          VAR    BASINP    GEOM    SYMINP    ZMAT    AOBASIS   BASIS     P2S    ABASIS      S 
                                         1400     1410     1200     1210     1080     1600     1650     1300     1700     1800   
                                           T        V       H0       H01     AOSYM     SMH    MOLCAS    ERIS     OPER     GRID   

              2       5        4.08       700     1000      520     1800     2200   
                                         GEOM     BASIS   MCVARS    GRID      UKS  

 PROGRAMS   *        TOTAL      IBBA       UKS       INT
 CPU TIMES  *        43.94      0.05     36.26      7.48
 REAL TIME  *        61.00 SEC
 DISK USED  *       771.70 MB      
 **********************************************************************************************************************************
 Molecular orbitals read from record     2200.2  Type=UKS/LOCAL(IBO)  
 Occupation numbers read from record     2200.2  Type=UKS/LOCAL(IBO)  
 Orbital energies read from record       2200.2  Type=UKS/LOCAL(IBO)  
 Redundancy group numbers read from rec  2200.2  Type=UKS/BETA (state 1.1)

 IBBA/SVP energy=      0.000000000000

        UKS-SCF 
   -271.01091912
 **********************************************************************************************************************************
 Molpro calculation terminated
