
 Primary working directories    : /local
 Secondary working directories  : /local
 Wavefunction directory         : /local/
 Main file repository           : /local/

 SHA1      : b4a5b34a9e711420743f49e6833241d17c61fb3c
 NAME      : 2099.9.b4a5b34
 ARCHNAME  : linux/x86_64_openmp
 FC        : /cm/shared/languages/GCC-6.1/bin/gfortran
 BLASLIB   : -lblas
 id        : simonbennie

 Nodes     nprocs
 node36-006    1

 Using customized tuning parameters: mindgm=1; mindgv=20; mindgc=4; mindgr=1; noblas=0; minvec=7
 default implementation of scratch files=df  

 memory,500,m
 geomtyp=xyz
 nosym
 noorient
 geometry={
 C         -1.53233        0.02247        0.00000
 C         -0.00192        0.01421        0.00000
 O          0.37239        1.40356        0.00000
 H          1.34248        1.44036        0.00000
 H         -1.92991       -0.99819        0.00000
 H         -1.90797        0.54382       -0.88653
 H         -1.90797        0.54382        0.88653
 C          0.54303       -0.66466       -1.26580
 C          0.54303       -0.66466        1.26580
 H          0.17836       -0.14752       -2.15943
 H          0.17836       -0.14752        2.15943
 H          0.23752       -1.71600       -1.32280
 H          0.23752       -1.71600        1.32280
 H          1.64084       -0.63767       -1.28032
 H          1.64084       -0.63767        1.28032
 }
 basis={ default,qzvp }
 {uks,M05,direct;wf,42,1,0}
 {ibba,bonds=1}

 Variables initialized (895), CPU time= 0.00 sec
 Commands  initialized (725), CPU time= 0.01 sec, 591 directives.
 Default parameters read. Elapsed time= 0.08 sec

 Checking input...
 Passed
1


                                         ***  PROGRAM SYSTEM MOLPRO  ***
                                       Copyright, TTI GmbH Stuttgart, 2015
                                    Version 2099.9 linked May 26 2017 16:03:21


 **********************************************************************************************************************************
 LABEL *                                                                                 
  64 bit serial version                                                                  DATE: 12-Jun-17          TIME: 16:39:10  
 **********************************************************************************************************************************

 SHA1:             b4a5b34a9e711420743f49e6833241d17c61fb3c
 **********************************************************************************************************************************
 SETTING GEOMTYP        =    XYZ

 Variable memory set to  500000000 words,  buffer space 

 ZSYMEL=NOSYM

 SETTING BASIS          =    QZVP


 Recomputing integrals since basis changed


 Using spherical harmonics

 Library entry C      S def2-QZVP            selected for orbital group  1
 Library entry C      P def2-QZVP            selected for orbital group  1
 Library entry C      D def2-QZVP            selected for orbital group  1
 Library entry C      F def2-QZVP            selected for orbital group  1
 Library entry C      G def2-QZVP            selected for orbital group  1
 Library entry O      S def2-QZVP            selected for orbital group  2
 Library entry O      P def2-QZVP            selected for orbital group  2
 Library entry O      D def2-QZVP            selected for orbital group  2
 Library entry O      F def2-QZVP            selected for orbital group  2
 Library entry O      G def2-QZVP            selected for orbital group  2
 Library entry H      S def2-QZVP            selected for orbital group  3
 Library entry H      P def2-QZVP            selected for orbital group  3
 Library entry H      D def2-QZVP            selected for orbital group  3
 Library entry H      F def2-QZVP            selected for orbital group  3


 PROGRAM * SEWARD (Integral evaluation for generally contracted gaussian basis sets)     Author: Roland Lindh, 1990

 Geometry written to block  1 of record 700


 Point group  C1  



 ATOMIC COORDINATES

 NR  ATOM    CHARGE       X              Y              Z

   1  C       6.00   -2.895684032    0.042462146    0.000000000
   2  C       6.00   -0.003628274    0.026853008    0.000000000
   3  O       8.00    0.703715112    2.652343999    0.000000000
   4  H       1.00    2.536919528    2.721885921    0.000000000
   5  H       1.00   -3.647001345   -1.886305720    0.000000000
   6  H       1.00   -3.605540754    1.027670861   -1.675298901
   7  H       1.00   -3.605540754    1.027670861    1.675298901
   8  C       6.00    1.026177977   -1.256025366   -2.392015328
   9  C       6.00    1.026177977   -1.256025366    2.392015328
  10  H       1.00    0.337051552   -0.278772398   -4.080731285
  11  H       1.00    0.337051552   -0.278772398    4.080731285
  12  H       1.00    0.448847749   -3.242770030   -2.499729718
  13  H       1.00    0.448847749   -3.242770030    2.499729718
  14  H       1.00    3.100738214   -1.205021658   -2.419454152
  15  H       1.00    3.100738214   -1.205021658    2.419454152

 Bond lengths in Bohr (Angstrom)

 1-2  2.892097881  1-5  2.069933136  1-6  2.069096224  1-7  2.069096224  2-3  2.719106031
     ( 1.530432290)     ( 1.095361444)     ( 1.094918569)     ( 1.094918569)     ( 1.438888946)

  2- 8  2.903104402   2- 9  2.903104402   3- 4  1.834522965   8-10  2.069222119   8-12  2.071730422
       ( 1.536256691)       ( 1.536256691)       ( 0.970787746)       ( 1.094985190)       ( 1.096312526)

  8-14  2.075368508   9-11  2.069222119   9-13  2.071730422   9-15  2.075368508
       ( 1.098237719)       ( 1.094985190)       ( 1.096312526)       ( 1.098237719)

 Bond angles

  1-2-3  104.76902697   1-2-8  110.92255387   1-2-9  110.92255387   2-1-5  110.97328220

  2- 1- 6  110.22090701   2- 1- 7  110.22090701   2- 3- 4  107.25071562   2- 8-10  110.21836376

  2- 8-12  111.57747468   2- 8-14  110.77023896   2- 9-11  110.21836376   2- 9-13  111.57747468

  2- 9-15  110.77023896   3- 2- 8  109.53648747   3- 2- 9  109.53648747   5- 1- 6  108.61190457

  5- 1- 7  108.61190457   6- 1- 7  108.12870271   8- 2- 9  110.96453384  10- 8-12  108.52192632

 10- 8-14  108.08997829  11- 9-13  108.52192632  11- 9-15  108.08997829  12- 8-14  107.54424578

 13- 9-15  107.54424578

 NUCLEAR CHARGE:                   42
 NUMBER OF PRIMITIVE AOS:         840
 NUMBER OF SYMMETRY AOS:          715
 NUMBER OF CONTRACTIONS:          585   ( 585A   )
 NUMBER OF CORE ORBITALS:           5   (   5A   )
 NUMBER OF VALENCE ORBITALS:       30   (  30A   )


 NUCLEAR REPULSION ENERGY  198.77359127


 Eigenvalues of metric

         1 0.447E-04 0.459E-04 0.470E-04 0.743E-04 0.823E-04 0.917E-04 0.943E-04 0.107E-03


 Contracted 2-electron integrals neglected if value below      1.0D-12
 AO integral compression algorithm  1   Integral accuracy      1.0D-12

     40752.906 MB (compressed) written to integral file ( 33.4%)


 NUMBER OF SORTED TWO-ELECTRON INTEGRALS:14689922715.     BUFFER LENGTH:  32768
 NUMBER OF SEGMENTS: 184  SEGMENT LENGTH:   79999773      RECORD LENGTH: 262144

 Memory used in sort:      80.29 MW

 SORT1 READ 15248138275. AND WROTE 10587813328. INTEGRALS IN  60679 RECORDS. CPU TIME:   193.55 SEC, REAL TIME:  4146.21 SEC
 SORT2 READ 10587813328. AND WROTE 14689922715. INTEGRALS IN 155460 RECORDS. CPU TIME:   348.90 SEC, REAL TIME:  5740.48 SEC

 FILE SIZES:   FILE 1: 40795.6 MBYTE,  FILE 4:127253.1 MBYTE,   TOTAL: 168048.8 MBYTE

 OPERATOR DM      FOR CENTER  0  COORDINATES:    0.000000    0.000000    0.000000


 **********************************************************************************************************************************
 DATASETS  * FILE   NREC   LENGTH (MB)   RECORD NAMES
              1      19    37754.71       500      610      700      900      950      970     1000      129      960     1100   
                                          VAR    BASINP    GEOM    SYMINP    ZMAT    AOBASIS   BASIS     P2S    ABASIS      S 
                                         1400     1410     1200     1210     1080     1600     1650     1300     1700   
                                           T        V       H0       H01     AOSYM     SMH    MOLCAS    ERIS     OPER   

 PROGRAMS   *        TOTAL       INT
 CPU TIMES  *      1180.58   1180.44
 REAL TIME  *     10871.91 SEC
 DISK USED  *       168.05 GB      
 **********************************************************************************************************************************

 Density functional group M05=XC-M05
 Functional: XC-M05(via MFM 1.6)                                               Gradient terms: 1
 Use grid at  1800.2


 Exact exchange will be calculated, factor:  0.2800

 Functional: XC-M05                    Factor:  1.0000

 Generated new metagrid on record  1800.2 with target accuracy 1.0D-06 and 58228 points in CPU time    1.6
 Computed new grid on record 1800.1 in CPU time    1.8
  469144 words reserved for DFT integration

 PROGRAM * UKS-SCF (Unrestricted Kohn-Sham)     Authors: W. Meyer, H.-J. Werner, P.J. Knowles, 1993

 NUMBER OF ELECTRONS:      21+   21-    SPACE SYMMETRY=1    SPIN SYMMETRY: Singlet 
 CONVERGENCE THRESHOLDS:    1.00E-05 (Density)    1.00E-06 (Energy)
 MAX. NUMBER OF ITERATIONS:       60
 INTERPOLATION TYPE:            DIIS
 INTERPOLATION STEPS:              2 (START)      1 (STEP)
 LEVEL SHIFTS:                 -0.20 (ALPHA)  -0.20 (BETA) 



 Use fine grid record 1800.2 for energy threshold  1.0D-06
 Orbital guess generated from atomic densities. Full valence occupancy:   21

 Molecular orbital dump at record        2200.2

 Initial alpha occupation  21
 Initial beta  occupation  21

 ITERATION    DDIFF          GRAD             ENERGY        2-EL.EN.            DIPOLE MOMENTS         DIIS
    1      0.000D+00      0.000D+00      -233.40935943    617.864269    0.69349   -0.85255    0.00000    0
    2      0.350D-02      0.107D-02      -233.57979577    599.968710    0.24868   -0.49288    0.00000    1
    3      0.515D-03      0.521D-03      -233.60716543    604.303622    0.35579   -0.58911    0.00000    2
    4      0.376D-03      0.929D-04      -233.60861059    604.066424    0.34346   -0.53910    0.00000    3
    5      0.312D-03      0.426D-04      -233.60910288    603.994093    0.34176   -0.54362    0.00000    4
    6      0.244D-03      0.158D-04      -233.60920484    603.951891    0.33956   -0.53486    0.00000    5
    7      0.830D-04      0.453D-05      -233.60921107    603.930860    0.33895   -0.53430    0.00000    6
    8      0.256D-04      0.129D-05      -233.60921167    603.937770    0.33883   -0.53435    0.00000    7
    9      0.563D-05      0.498D-06      -233.60921174    603.933991    0.33872   -0.53416    0.00000    7
   10      0.241D-05      0.135D-06      -233.60921174    603.934466    0.33870   -0.53417    0.00000    7

 Final alpha occupancy:  21
 Final beta  occupancy:  21

 !UKS STATE 1.1 Energy               -233.609211744097
 Nuclear energy                       198.77359127
 One-electron energy                 -709.55840293
 Two-electron energy                  301.96723277
 Density functional                   -24.79163286     XC-M05=-24.79163286
 Virial quotient                       -1.00480469
 !UKS STATE 1.1 Dipole moment           0.33869834    -0.53416715     0.00000000
 Dipole moment /Debye                   0.86082892    -1.35762855     0.00000000

 Orbital energies for positive spin:

         1.1          2.1          3.1          4.1          5.1          6.1          7.1          8.1          9.1         10.1
    -19.174607   -10.282473   -10.207362   -10.207358   -10.202069    -1.042899    -0.809329    -0.711357    -0.710251    -0.583496

        11.1         12.1         13.1         14.1         15.1         16.1         17.1         18.1         19.1         20.1
     -0.502016    -0.463727    -0.460531    -0.423733    -0.408817    -0.391332    -0.377737    -0.367968    -0.360094    -0.331857

        21.1         22.1         23.1
     -0.284621     0.010397     0.046697

 Orbital energies for negative spin:

         1.1          2.1          3.1          4.1          5.1          6.1          7.1          8.1          9.1         10.1
    -19.174607   -10.282473   -10.207362   -10.207358   -10.202069    -1.042899    -0.809329    -0.711357    -0.710251    -0.583496

        11.1         12.1         13.1         14.1         15.1         16.1         17.1         18.1         19.1         20.1
     -0.502016    -0.463727    -0.460531    -0.423733    -0.408817    -0.391332    -0.377737    -0.367968    -0.360094    -0.331857

        21.1         22.1         23.1
     -0.284621     0.010397     0.046697

 HOMO     21.1    -0.284621 =      -7.7449eV
 LUMO     22.1     0.010397 =       0.2829eV
 LUMO-HOMO         0.295018 =       8.0279eV

 EXPECTATION VALUE OF S**2:             0.00000000

 Natural orbitals saved to record    2200.2 (Orbital set 3)

 Orbital spaces for UNO-CAS (Min. occupation: 0.020  Max. occupation: 1.980):

 Closed:       21
 Active:        0


 **********************************************************************************************************************************
 DATASETS  * FILE   NREC   LENGTH (MB)   RECORD NAMES
              1      20    37756.57       500      610      700      900      950      970     1000      129      960     1100   
                                          VAR    BASINP    GEOM    SYMINP    ZMAT    AOBASIS   BASIS     P2S    ABASIS      S 
                                         1400     1410     1200     1210     1080     1600     1650     1300     1700     1800   
                                           T        V       H0       H01     AOSYM     SMH    MOLCAS    ERIS     OPER     GRID   

              2       5       16.83       700     1000      520     1800     2200   
                                         GEOM     BASIS   MCVARS    GRID      UKS  

 PROGRAMS   *        TOTAL       UKS       INT
 CPU TIMES  *      5231.28   4050.70   1180.44
 REAL TIME  *     15746.03 SEC
 DISK USED  *       168.05 GB      
 **********************************************************************************************************************************


 PROGRAM * Intrinsic Basis Bonding Analysis (IBBA)          Author: G. Knizia

 Molecular orbitals read from record     2200.2  Type=UKS/ALPHA (state 1.1)
 Fock matrix read from record            2200.2  Type=UKS/TOTAL (state 1.1)
 Orbital energies read from record       2200.2  Type=UKS/ALPHA (state 1.1)
 Density matrix read from record         2200.2  Type=UKS/CHARGE (state 1.1)

 Number of core orbitals:           5 (   5 )
 Number of closed-shell orbitals:  16 (  16 )

 Basis set MINAO-AUTO-PP generated.      Number of basis functions:   35 

 Polarized AO type:                A = (O Ot + (1-O)(1-Ot)) P12
 Orthogonalization method:         Symmetric (Loewdin)
 Localization functional:          L = sum[A,i] <i|n_A|i>^4 -> max

 Localization group 1:  21 orbitals, occupancy  2.000
 Iterative localization: IB/PM,    7 iter; Final gradient 0.36E-08

 Bond order analysis:       [THRPRINT= 0.020]

   CEN ATOM   CEN ATOM     WIBERG.BO      RENORM.BO
     1   C  -   2   C       0.996137       0.993391
     1   C  -   5   H       0.963227       0.987749
     1   C  -   6   H       0.958528       0.982127
     1   C  -   7   H       0.958528       0.982127

     2   C  -   1   C       0.996137       0.993391
     2   C  -   9   C       0.994802       0.975675
     2   C  -   8   C       0.994802       0.975675
     2   C  -   3   O       0.930109       0.951615

     3   O  -   2   C       0.930109       0.951615
     3   O  -   4   H       0.857339       0.977078
     3   O  -   9   C       0.027259       0.013902
     3   O  -   8   C       0.027259       0.013902

     4   H  -   3   O       0.857339       0.977078

     5   H  -   1   C       0.963227       0.987749

     6   H  -   1   C       0.958528       0.982127

     7   H  -   1   C       0.958528       0.982127

     8   C  -   2   C       0.994802       0.975675
     8   C  -  14   H       0.962650       0.982874
     8   C  -  12   H       0.958995       0.982313
     8   C  -  10   H       0.958762       0.981880
     8   C  -   3   O       0.027259       0.013902

     9   C  -   2   C       0.994802       0.975675
     9   C  -  15   H       0.962650       0.982874
     9   C  -  13   H       0.958995       0.982313
     9   C  -  11   H       0.958762       0.981880
     9   C  -   3   O       0.027259       0.013902

    10   H  -   8   C       0.958762       0.981880

    11   H  -   9   C       0.958762       0.981880

    12   H  -   8   C       0.958995       0.982313

    13   H  -   9   C       0.958995       0.982313

    14   H  -   8   C       0.962650       0.982874

    15   H  -   9   C       0.962650       0.982874


 Valency analysis:

   CEN ATOM   TOT.VALENCE
     1   C       3.934526
     2   C       3.925422
     3   O       1.906444
     4   H       0.876373
     5   H       0.980910
     6   H       0.978380
     7   H       0.978380
     8   C       3.936852
     9   C       3.936852
    10   H       0.978294
    11   H       0.978294
    12   H       0.980118
    13   H       0.980118
    14   H       0.982366
    15   H       0.982366

 Total charge composition:

   CEN ATOM         s          p       ELECTRONS ->P.CHARGE
     1   C       3.04973    3.37524      6.42497   -0.42497
     2   C       2.94154    2.79154      5.73308    0.26692
     3   O       3.65183    4.93728      8.58911   -0.58911
     4   H       0.64839                 0.64839    0.35161
     5   H       0.86183                 0.86183    0.13817
     6   H       0.85296                 0.85296    0.14704
     7   H       0.85296                 0.85296    0.14704
     8   C       3.05626    3.38321      6.43947   -0.43947
     9   C       3.05626    3.38321      6.43947   -0.43947
    10   H       0.85267                 0.85267    0.14733
    11   H       0.85267                 0.85267    0.14733
    12   H       0.85900                 0.85900    0.14100
    13   H       0.85900                 0.85900    0.14100
    14   H       0.86721                 0.86721    0.13279
    15   H       0.86721                 0.86721    0.13279

 Total charge composition, AO contributions:

   CEN ATOM SHL      SPHERICAL COMPONENTS
     1   C  1s       1.99099
     1   C  2s       1.05874
     1   C  2p       1.03721    1.16332    1.17472

     2   C  1s       1.99262
     2   C  2s       0.94892
     2   C  2p       1.00596    0.77754    1.00803

     3   O  1s       1.99711
     3   O  2s       1.65471
     3   O  2p       1.48133    1.49921    1.95675

     4   H  1s       0.64839

     5   H  1s       0.86183

     6   H  1s       0.85296

     7   H  1s       0.85296

     8   C  1s       1.99109
     8   C  2s       1.06517
     8   C  2p       1.14539    1.14425    1.09357

     9   C  1s       1.99109
     9   C  2s       1.06517
     9   C  2p       1.14539    1.14425    1.09357

    10   H  1s       0.85267

    11   H  1s       0.85267

    12   H  1s       0.85900

    13   H  1s       0.85900

    14   H  1s       0.86721

    15   H  1s       0.86721

 Summary of localized orbital composition:   [THRPRINT= 0.020]

   ORB  GRP  ORB.ENERGY      CENTERS/CHARGES
     1   1   -19.010568      O  3   2.000
     2   1   -10.189834      C  2   2.000
     3   1   -10.090658      C  8   2.000
     4   1   -10.090658      C  9   2.000
     5   1   -10.084570      C  1   2.000
     6   1    -0.778670      O  3   1.353   H  4   0.637
     7   1    -0.735423      O  3   1.294   C  2   0.689
     8   1    -0.600644      O  3   1.982
     9   1    -0.590016      C  9   1.008   C  2   0.977
    10   1    -0.590016      C  8   1.008   C  2   0.977
    11   1    -0.590013      C  1   0.991   C  2   0.986   (other: 0.023)
    12   1    -0.519744      C  8   1.136   H 12   0.850
    13   1    -0.519744      C  9   1.136   H 13   0.850
    14   1    -0.517587      C  8   1.129   H 14   0.860
    15   1    -0.517587      C  9   1.129   H 15   0.860
    16   1    -0.516051      C  1   1.132   H  5   0.855
    17   1    -0.513304      C  9   1.145   H 11   0.845
    18   1    -0.513304      C  8   1.145   H 10   0.845
    19   1    -0.508256      C  1   1.144   H  6   0.845
    20   1    -0.508256      C  1   1.144   H  7   0.845
    21   1    -0.318773      O  3   1.957   (other: 0.043)

 Localized orbitals saved to record      2200.2  (orbital set 4)


 **********************************************************************************************************************************
 DATASETS  * FILE   NREC   LENGTH (MB)   RECORD NAMES
              1      20    37756.57       500      610      700      900      950      970     1000      129      960     1100   
                                          VAR    BASINP    GEOM    SYMINP    ZMAT    AOBASIS   BASIS     P2S    ABASIS      S 
                                         1400     1410     1200     1210     1080     1600     1650     1300     1700     1800   
                                           T        V       H0       H01     AOSYM     SMH    MOLCAS    ERIS     OPER     GRID   

              2       5       19.57       700     1000      520     1800     2200   
                                         GEOM     BASIS   MCVARS    GRID      UKS  

 PROGRAMS   *        TOTAL      IBBA       UKS       INT
 CPU TIMES  *      5231.73      0.44   4050.70   1180.44
 REAL TIME  *     15746.64 SEC
 DISK USED  *       168.05 GB      
 **********************************************************************************************************************************
 Molecular orbitals read from record     2200.2  Type=UKS/LOCAL(IBO)  
 Occupation numbers read from record     2200.2  Type=UKS/LOCAL(IBO)  
 Orbital energies read from record       2200.2  Type=UKS/LOCAL(IBO)  
 Redundancy group numbers read from rec  2200.2  Type=UKS/BETA (state 1.1)

 IBBA/QZVP energy=      0.000000000000

        UKS-SCF 
   -233.60921174
 **********************************************************************************************************************************
 Molpro calculation terminated
