
 Primary working directories    : /local
 Secondary working directories  : /local
 Wavefunction directory         : /local/
 Main file repository           : /local/

 SHA1      : b4a5b34a9e711420743f49e6833241d17c61fb3c
 NAME      : 2099.9.b4a5b34
 ARCHNAME  : linux/x86_64_openmp
 FC        : /cm/shared/languages/GCC-6.1/bin/gfortran
 BLASLIB   : -lblas
 id        : simonbennie

 Nodes     nprocs
 node34-016    1

 Using customized tuning parameters: mindgm=1; mindgv=20; mindgc=4; mindgr=1; noblas=0; minvec=7
 default implementation of scratch files=df  

 memory,500,m
 geomtyp=xyz
 nosym
 noorient
 geometry={
 C         -1.53233        0.02247        0.00000
 C         -0.00192        0.01421        0.00000
 O          0.37239        1.40356        0.00000
 H          1.34248        1.44036        0.00000
 H         -1.92991       -0.99819        0.00000
 H         -1.90797        0.54382       -0.88653
 H         -1.90797        0.54382        0.88653
 C          0.54303       -0.66466       -1.26580
 C          0.54303       -0.66466        1.26580
 H          0.17836       -0.14752       -2.15943
 H          0.17836       -0.14752        2.15943
 H          0.23752       -1.71600       -1.32280
 H          0.23752       -1.71600        1.32280
 H          1.64084       -0.63767       -1.28032
 H          1.64084       -0.63767        1.28032
 }
 basis={ default,tzvp }
 {ks,VWN80,direct;wf,42,1,0}
 {ibba,bonds=1}

 Variables initialized (895), CPU time= 0.00 sec
 Commands  initialized (725), CPU time= 0.02 sec, 591 directives.
 Default parameters read. Elapsed time= 0.18 sec

 Checking input...
 Passed
1


                                         ***  PROGRAM SYSTEM MOLPRO  ***
                                       Copyright, TTI GmbH Stuttgart, 2015
                                    Version 2099.9 linked May 26 2017 16:03:21


 **********************************************************************************************************************************
 LABEL *                                                                                 
  64 bit serial version                                                                  DATE: 12-Jun-17          TIME: 19:23:33  
 **********************************************************************************************************************************

 SHA1:             b4a5b34a9e711420743f49e6833241d17c61fb3c
 **********************************************************************************************************************************
 SETTING GEOMTYP        =    XYZ

 Variable memory set to  500000000 words,  buffer space 

 ZSYMEL=NOSYM

 SETTING BASIS          =    TZVP


 Recomputing integrals since basis changed


 Using spherical harmonics

 Library entry C      S def2-TZVP            selected for orbital group  1
 Library entry C      P def2-TZVP            selected for orbital group  1
 Library entry C      D def2-TZVP            selected for orbital group  1
 Library entry C      F def2-TZVP            selected for orbital group  1
 Library entry O      S def2-TZVP            selected for orbital group  2
 Library entry O      P def2-TZVP            selected for orbital group  2
 Library entry O      D def2-TZVP            selected for orbital group  2
 Library entry O      F def2-TZVP            selected for orbital group  2
 Library entry H      S def2-TZVP            selected for orbital group  3
 Library entry H      P def2-TZVP            selected for orbital group  3


 PROGRAM * SEWARD (Integral evaluation for generally contracted gaussian basis sets)     Author: Roland Lindh, 1990

 Geometry written to block  1 of record 700


 Point group  C1  



 ATOMIC COORDINATES

 NR  ATOM    CHARGE       X              Y              Z

   1  C       6.00   -2.895684032    0.042462146    0.000000000
   2  C       6.00   -0.003628274    0.026853008    0.000000000
   3  O       8.00    0.703715112    2.652343999    0.000000000
   4  H       1.00    2.536919528    2.721885921    0.000000000
   5  H       1.00   -3.647001345   -1.886305720    0.000000000
   6  H       1.00   -3.605540754    1.027670861   -1.675298901
   7  H       1.00   -3.605540754    1.027670861    1.675298901
   8  C       6.00    1.026177977   -1.256025366   -2.392015328
   9  C       6.00    1.026177977   -1.256025366    2.392015328
  10  H       1.00    0.337051552   -0.278772398   -4.080731285
  11  H       1.00    0.337051552   -0.278772398    4.080731285
  12  H       1.00    0.448847749   -3.242770030   -2.499729718
  13  H       1.00    0.448847749   -3.242770030    2.499729718
  14  H       1.00    3.100738214   -1.205021658   -2.419454152
  15  H       1.00    3.100738214   -1.205021658    2.419454152

 Bond lengths in Bohr (Angstrom)

 1-2  2.892097881  1-5  2.069933136  1-6  2.069096224  1-7  2.069096224  2-3  2.719106031
     ( 1.530432290)     ( 1.095361444)     ( 1.094918569)     ( 1.094918569)     ( 1.438888946)

  2- 8  2.903104402   2- 9  2.903104402   3- 4  1.834522965   8-10  2.069222119   8-12  2.071730422
       ( 1.536256691)       ( 1.536256691)       ( 0.970787746)       ( 1.094985190)       ( 1.096312526)

  8-14  2.075368508   9-11  2.069222119   9-13  2.071730422   9-15  2.075368508
       ( 1.098237719)       ( 1.094985190)       ( 1.096312526)       ( 1.098237719)

 Bond angles

  1-2-3  104.76902697   1-2-8  110.92255387   1-2-9  110.92255387   2-1-5  110.97328220

  2- 1- 6  110.22090701   2- 1- 7  110.22090701   2- 3- 4  107.25071562   2- 8-10  110.21836376

  2- 8-12  111.57747468   2- 8-14  110.77023896   2- 9-11  110.21836376   2- 9-13  111.57747468

  2- 9-15  110.77023896   3- 2- 8  109.53648747   3- 2- 9  109.53648747   5- 1- 6  108.61190457

  5- 1- 7  108.61190457   6- 1- 7  108.12870271   8- 2- 9  110.96453384  10- 8-12  108.52192632

 10- 8-14  108.08997829  11- 9-13  108.52192632  11- 9-15  108.08997829  12- 8-14  107.54424578

 13- 9-15  107.54424578

 NUCLEAR CHARGE:                   42
 NUMBER OF PRIMITIVE AOS:         335
 NUMBER OF SYMMETRY AOS:          310
 NUMBER OF CONTRACTIONS:          215   ( 215A   )
 NUMBER OF CORE ORBITALS:           5   (   5A   )
 NUMBER OF VALENCE ORBITALS:       30   (  30A   )


 NUCLEAR REPULSION ENERGY  198.77359127


 Eigenvalues of metric

         1 0.262E-03 0.510E-03 0.539E-03 0.594E-03 0.697E-03 0.755E-03 0.210E-02 0.239E-02


 Contracted 2-electron integrals neglected if value below      1.0D-11
 AO integral compression algorithm  1   Integral accuracy      1.0D-11

     977.797 MB (compressed) written to integral file ( 41.7%)


 NUMBER OF SORTED TWO-ELECTRON INTEGRALS:  269595810.     BUFFER LENGTH:  32768
 NUMBER OF SEGMENTS:  17  SEGMENT LENGTH:   15999762      RECORD LENGTH: 524288

 Memory used in sort:      16.56 MW

 SORT1 READ   292827432. AND WROTE   238500613. INTEGRALS IN    690 RECORDS. CPU TIME:     3.58 SEC, REAL TIME:     7.98 SEC
 SORT2 READ   238500613. AND WROTE   269595810. INTEGRALS IN   3730 RECORDS. CPU TIME:     5.67 SEC, REAL TIME:     7.77 SEC

 FILE SIZES:   FILE 1:  1009.7 MBYTE,  FILE 4:  2894.1 MBYTE,   TOTAL:   3903.8 MBYTE

 OPERATOR DM      FOR CENTER  0  COORDINATES:    0.000000    0.000000    0.000000


 **********************************************************************************************************************************
 DATASETS  * FILE   NREC   LENGTH (MB)   RECORD NAMES
              1      19      926.27       500      610      700      900      950      970     1000      129      960     1100   
                                          VAR    BASINP    GEOM    SYMINP    ZMAT    AOBASIS   BASIS     P2S    ABASIS      S 
                                         1400     1410     1200     1210     1080     1600     1650     1300     1700   
                                           T        V       H0       H01     AOSYM     SMH    MOLCAS    ERIS     OPER   

 PROGRAMS   *        TOTAL       INT
 CPU TIMES  *        26.11     25.96
 REAL TIME  *        65.46 SEC
 DISK USED  *         3.90 GB      
 **********************************************************************************************************************************

 Density functional group VWN80=VWN5
 Functional: VWN5(Automatically generated (new) VWN5)                          Gradient terms: 0
 Use grid at  1800.2

 Functional: VWN5                      Factor:  1.0000

 Generated new metagrid on record  1800.2 with target accuracy 1.0D-06 and 54596 points in CPU time    1.7
 Computed new grid on record 1800.1 in CPU time    1.9
   93304 words reserved for DFT integration

 PROGRAM * RKS-SCF (Restricted closed shell Kohn-Sham)     Authors: W. Meyer, H.-J. Werner, P.J. Knowles, 1993

 NUMBER OF ELECTRONS:      21+   21-    SPACE SYMMETRY=1    SPIN SYMMETRY: Singlet 
 CONVERGENCE THRESHOLDS:    1.00E-05 (Density)    1.00E-06 (Energy)
 MAX. NUMBER OF ITERATIONS:       60
 INTERPOLATION TYPE:            DIIS
 INTERPOLATION STEPS:              2 (START)      1 (STEP)
 LEVEL SHIFTS:                  0.00 (CLOSED)  0.00 (OPEN) 



 Use fine grid record 1800.2 for energy threshold  1.0D-06
 Orbital guess generated from atomic densities. Full valence occupancy:   21

 Molecular orbital dump at record        2100.2

 Initial occupancy:  21

 ITERATION    DDIFF          GRAD             ENERGY        2-EL.EN.            DIPOLE MOMENTS         DIIS   ORB.
    1      0.000D+00      0.000D+00      -200.95800323    547.124689    2.08053    7.36555    0.00000    0    start
    2      0.000D+00      0.228D-01      -188.76509690    692.060174   -7.28506  -20.48904   -0.00000    1    diag
    3      0.743D+00      0.655D-01      -201.20752507    638.199356    0.50033   -3.50530    0.00000    2    diag
    4      0.502D-01      0.267D-01      -202.75250000    604.147805   -1.36605   -4.55110   -0.00000    3    diag
    5      0.178D-01      0.135D-01      -203.22957627    608.262288    0.39132   -0.93242    0.00000    4    diag
    6      0.165D-01      0.763D-02      -203.40383013    588.451142    0.43923   -0.31594    0.00000    5    diag
    7      0.223D-01      0.377D-02      -203.44145710    593.760293    0.28853   -0.02748    0.00000    6    diag
    8      0.689D-02      0.168D-02      -203.45118899    591.930313    0.20507   -0.14634    0.00000    7    diag
    9      0.284D-02      0.321D-03      -203.45156396    592.002565    0.35152   -0.04556   -0.00000    8    diag
   10      0.130D-02      0.105D-03      -203.45160890    591.975783    0.30676   -0.07002    0.00000    9    orth
   11      0.229D-03      0.276D-04      -203.45161143    591.963470    0.30492   -0.06534   -0.00000    9    diag
   12      0.678D-04      0.110D-04      -203.45161189    591.961979    0.30796   -0.06550   -0.00000    9    diag
   13      0.246D-04      0.332D-05      -203.45161194    591.961340    0.30721   -0.06592   -0.00000    9    diag
   14      0.449D-05      0.616D-06      -203.45161193    591.962945    0.30726   -0.06570    0.00000    0    orth

 Final occupancy:  21

 !RKS STATE 1.1 Energy               -203.451611933095
 Nuclear energy                       198.77359127
 One-electron energy                 -695.64008347
 Two-electron energy                  295.98147256
 Density functional                    -2.56659229     VWN5=-2.56659229
 Virial quotient                       -0.97434596
 !RKS STATE 1.1 Dipole moment           0.30725550    -0.06570195     0.00000000
 Dipole moment /Debye                   0.78091444    -0.16698677     0.00000000

 Orbital energies:

         1.1          2.1          3.1          4.1          5.1          6.1          7.1          8.1          9.1         10.1
    -16.776587    -8.397115    -8.352860    -8.352829    -8.350672    -0.632875    -0.442142    -0.354819    -0.352350    -0.246917

        11.1         12.1         13.1         14.1         15.1         16.1         17.1         18.1         19.1         20.1
     -0.191247    -0.164927    -0.164569    -0.121302    -0.109455    -0.088106    -0.064806    -0.061015    -0.056898    -0.026916

        21.1         22.1         23.1
      0.025720     0.112762     0.162519

 HOMO     21.1     0.025720 =       0.6999eV
 LUMO     22.1     0.112762 =       3.0684eV
 LUMO-HOMO         0.087041 =       2.3685eV


 **********************************************************************************************************************************
 DATASETS  * FILE   NREC   LENGTH (MB)   RECORD NAMES
              1      20      928.02       500      610      700      900      950      970     1000      129      960     1100   
                                          VAR    BASINP    GEOM    SYMINP    ZMAT    AOBASIS   BASIS     P2S    ABASIS      S 
                                         1400     1410     1200     1210     1080     1600     1650     1300     1700     1800   
                                           T        V       H0       H01     AOSYM     SMH    MOLCAS    ERIS     OPER     GRID   

              2       5        3.96       700     1000      520     1800     2100   
                                         GEOM     BASIS   MCVARS    GRID      RKS  

 PROGRAMS   *        TOTAL        KS       INT
 CPU TIMES  *        73.43     47.32     25.96
 REAL TIME  *       115.88 SEC
 DISK USED  *         3.90 GB      
 **********************************************************************************************************************************


 PROGRAM * Intrinsic Basis Bonding Analysis (IBBA)          Author: G. Knizia

 Molecular orbitals read from record     2100.2  Type=RKS/CANONICAL (state 1.1)
 Fock matrix read from record            2100.2  Type=RKS/TOTAL (state 1.1)
 Orbital energies read from record       2100.2  Type=RKS/CANONICAL (state 1.1)
 Density matrix read from record         2100.2  Type=RKS/CHARGE (state 1.1)

 Number of core orbitals:           5 (   5 )
 Number of closed-shell orbitals:  16 (  16 )

 Basis set MINAO-AUTO-PP generated.      Number of basis functions:   35 

 Polarized AO type:                A = (O Ot + (1-O)(1-Ot)) P12
 Orthogonalization method:         Symmetric (Loewdin)
 Localization functional:          L = sum[A,i] <i|n_A|i>^4 -> max

 Localization group 1:  21 orbitals, occupancy  2.000
 Iterative localization: IB/PM,    8 iter; Final gradient 0.31E-09

 Bond order analysis:       [THRPRINT= 0.020]

   CEN ATOM   CEN ATOM     WIBERG.BO      RENORM.BO
     1   C  -   2   C       0.983325       0.996611
     1   C  -   5   H       0.956478       0.968955
     1   C  -   6   H       0.949724       0.954237
     1   C  -   7   H       0.949724       0.954237
     1   C  -   3   O       0.031382       0.017503
     1   C  -   4   H       0.025334       0.031282
     1   C  -  14   H       0.020806       0.021784
     1   C  -  15   H       0.020806       0.021784

     2   C  -   8   C       0.988117       0.973011
     2   C  -   9   C       0.988117       0.973011
     2   C  -   1   C       0.983325       0.996611
     2   C  -   3   O       0.973315       0.945036

     3   O  -   2   C       0.973315       0.945036
     3   O  -   4   H       0.910697       0.934219
     3   O  -   9   C       0.052457       0.028262
     3   O  -   8   C       0.052457       0.028262
     3   O  -  12   H       0.036273       0.025551
     3   O  -  13   H       0.036273       0.025551
     3   O  -   1   C       0.031382       0.017503
     3   O  -   5   H       0.021741       0.016573

     4   H  -   3   O       0.910697       0.934219
     4   H  -   1   C       0.025334       0.031282

     5   H  -   1   C       0.956478       0.968955
     5   H  -   3   O       0.021741       0.016573

     6   H  -   1   C       0.949724       0.954237
     6   H  -   9   C       0.023542       0.024236

     7   H  -   1   C       0.949724       0.954237
     7   H  -   8   C       0.023542       0.024236

     8   C  -   2   C       0.988117       0.973011
     8   C  -  10   H       0.950753       0.953865
     8   C  -  14   H       0.949815       0.958896
     8   C  -  12   H       0.947605       0.950822
     8   C  -   3   O       0.052457       0.028262
     8   C  -   7   H       0.023542       0.024236
     8   C  -  11   H       0.023267       0.023936

     9   C  -   2   C       0.988117       0.973011
     9   C  -  11   H       0.950753       0.953865
     9   C  -  15   H       0.949815       0.958896
     9   C  -  13   H       0.947605       0.950822
     9   C  -   3   O       0.052457       0.028262
     9   C  -   6   H       0.023542       0.024236
     9   C  -  10   H       0.023267       0.023936

    10   H  -   8   C       0.950753       0.953865
    10   H  -   9   C       0.023267       0.023936

    11   H  -   9   C       0.950753       0.953865
    11   H  -   8   C       0.023267       0.023936

    12   H  -   8   C       0.947605       0.950822
    12   H  -   3   O       0.036273       0.025551

    13   H  -   9   C       0.947605       0.950822
    13   H  -   3   O       0.036273       0.025551

    14   H  -   8   C       0.949815       0.958896
    14   H  -   1   C       0.020806       0.021784

    15   H  -   9   C       0.949815       0.958896
    15   H  -   1   C       0.020806       0.021784


 Valency analysis:

   CEN ATOM   TOT.VALENCE
     1   C       3.968322
     2   C       3.950858
     3   O       2.139552
     4   H       0.960295
     5   H       0.996132
     6   H       0.995988
     7   H       0.995988
     8   C       3.969218
     9   C       3.969218
    10   H       0.995961
    11   H       0.995961
    12   H       0.996456
    13   H       0.996456
    14   H       0.997249
    15   H       0.997249

 Total charge composition:

   CEN ATOM         s          p       ELECTRONS ->P.CHARGE
     1   C       2.94759    3.26587      6.21346   -0.21346
     2   C       2.87180    2.86040      5.73219    0.26781
     3   O       3.57757    4.74717      8.32474   -0.32474
     4   H       0.80074                 0.80074    0.19926
     5   H       0.93780                 0.93780    0.06220
     6   H       0.93666                 0.93666    0.06334
     7   H       0.93666                 0.93666    0.06334
     8   C       2.96461    3.26980      6.23441   -0.23441
     9   C       2.96461    3.26980      6.23441   -0.23441
    10   H       0.93645                 0.93645    0.06355
    11   H       0.93645                 0.93645    0.06355
    12   H       0.94047                 0.94047    0.05953
    13   H       0.94047                 0.94047    0.05953
    14   H       0.94755                 0.94755    0.05245
    15   H       0.94755                 0.94755    0.05245

 Total charge composition, AO contributions:

   CEN ATOM SHL      SPHERICAL COMPONENTS
     1   C  1s       1.99700
     1   C  2s       0.95059
     1   C  2p       1.02963    1.11284    1.12339

     2   C  1s       1.99773
     2   C  2s       0.87407
     2   C  2p       1.00730    0.84262    1.01048

     3   O  1s       1.99873
     3   O  2s       1.57884
     3   O  2p       1.36927    1.46821    1.90968

     4   H  1s       0.80074

     5   H  1s       0.93780

     6   H  1s       0.93666

     7   H  1s       0.93666

     8   C  1s       1.99705
     8   C  2s       0.96756
     8   C  2p       1.09652    1.10349    1.06979

     9   C  1s       1.99705
     9   C  2s       0.96756
     9   C  2p       1.09652    1.10349    1.06979

    10   H  1s       0.93645

    11   H  1s       0.93645

    12   H  1s       0.94047

    13   H  1s       0.94047

    14   H  1s       0.94755

    15   H  1s       0.94755

 Summary of localized orbital composition:   [THRPRINT= 0.020]

   ORB  GRP  ORB.ENERGY      CENTERS/CHARGES
     1   1   -16.676585      O  3   2.000
     2   1    -8.325811      C  2   2.000
     3   1    -8.268294      C  9   2.000
     4   1    -8.268294      C  8   2.000
     5   1    -8.265805      C  1   2.000
     6   1    -0.411442      O  3   1.226   C  2   0.748   (other: 0.026)
     7   1    -0.385609      O  3   1.213   H  4   0.770
     8   1    -0.267431      C  1   1.002   C  2   0.951   (other: 0.047)
     9   1    -0.265201      C  9   1.025   C  2   0.945   (other: 0.030)
    10   1    -0.265201      C  8   1.025   C  2   0.945   (other: 0.030)
    11   1    -0.191081      C  8   1.042   H 14   0.934   (other: 0.024)
    12   1    -0.191081      C  9   1.042   H 15   0.934   (other: 0.024)
    13   1    -0.189688      C  9   1.058   H 13   0.920   (other: 0.022)
    14   1    -0.189688      C  8   1.058   H 12   0.920   (other: 0.022)
    15   1    -0.188797      O  3   1.964   (other: 0.036)
    16   1    -0.188058      C  1   1.054   H  5   0.924   (other: 0.022)
    17   1    -0.185472      C  8   1.062   H 10   0.920
    18   1    -0.185472      C  9   1.062   H 11   0.920
    19   1    -0.183903      C  1   1.061   H  6   0.920
    20   1    -0.183903      C  1   1.061   H  7   0.920
    21   1    -0.005873      O  3   1.910   C  2   0.027   (other: 0.063)

 Localized orbitals saved to record      2100.2  (orbital set 2)


 **********************************************************************************************************************************
 DATASETS  * FILE   NREC   LENGTH (MB)   RECORD NAMES
              1      20      928.02       500      610      700      900      950      970     1000      129      960     1100   
                                          VAR    BASINP    GEOM    SYMINP    ZMAT    AOBASIS   BASIS     P2S    ABASIS      S 
                                         1400     1410     1200     1210     1080     1600     1650     1300     1700     1800   
                                           T        V       H0       H01     AOSYM     SMH    MOLCAS    ERIS     OPER     GRID   

              2       5        4.33       700     1000      520     1800     2100   
                                         GEOM     BASIS   MCVARS    GRID      RKS  

 PROGRAMS   *        TOTAL      IBBA        KS       INT
 CPU TIMES  *        73.50      0.07     47.32     25.96
 REAL TIME  *       116.08 SEC
 DISK USED  *         3.90 GB      
 **********************************************************************************************************************************
 Molecular orbitals read from record     2100.2  Type=RKS/LOCAL(IBO)  
 Occupation numbers read from record     2100.2  Type=RKS/LOCAL(IBO)  
 Orbital energies read from record       2100.2  Type=RKS/LOCAL(IBO)  
 Redundancy group numbers read from rec  2100.2  Type=RKS/LOCAL(IBO)  

 IBBA/TZVP energy=      0.000000000000

        KS-SCF  
   -203.45161193
 **********************************************************************************************************************************
 Molpro calculation terminated
