
 Primary working directories    : /tmp/sb13343
 Secondary working directories  : /tmp/sb13343
 Wavefunction directory         : /panfs/panasas01/chem/sb13343/wfu/
 Main file repository           : /tmp/sb13343/

 SHA1      : b4a5b34a9e711420743f49e6833241d17c61fb3c
 NAME      : 2099.9.b4a5b34
 ARCHNAME  : linux/x86_64_openmp
 FC        : /cm/shared/languages/GCC-6.1/bin/gfortran
 BLASLIB   : -lblas
 id        : simonbennie

 Nodes     nprocs
 node35-048    1

 Using customized tuning parameters: mindgm=1; mindgv=20; mindgc=4; mindgr=1; noblas=0; minvec=7
 default implementation of scratch files=df  

 memory,500,m
 geomtyp=xyz
 nosym
 noorient
 geometry={
 C         -1.53233        0.02247        0.00000
 C         -0.00192        0.01421        0.00000
 O          0.37239        1.40356        0.00000
 H          1.34248        1.44036        0.00000
 H         -1.92991       -0.99819        0.00000
 H         -1.90797        0.54382       -0.88653
 H         -1.90797        0.54382        0.88653
 C          0.54303       -0.66466       -1.26580
 C          0.54303       -0.66466        1.26580
 H          0.17836       -0.14752       -2.15943
 H          0.17836       -0.14752        2.15943
 H          0.23752       -1.71600       -1.32280
 H          0.23752       -1.71600        1.32280
 H          1.64084       -0.63767       -1.28032
 H          1.64084       -0.63767        1.28032
 }
 basis={ default,svp }
 {uks,M05,direct;wf,42,1,0}
 {ibba,bonds=1}

 Variables initialized (895), CPU time= 0.00 sec
 Commands  initialized (725), CPU time= 0.02 sec, 591 directives.
 Default parameters read. Elapsed time= 0.15 sec

 Checking input...
 Passed
1


                                         ***  PROGRAM SYSTEM MOLPRO  ***
                                       Copyright, TTI GmbH Stuttgart, 2015
                                    Version 2099.9 linked May 26 2017 16:03:21


 **********************************************************************************************************************************
 LABEL *                                                                                 
  64 bit serial version                                                                  DATE: 09-Jun-17          TIME: 03:44:32  
 **********************************************************************************************************************************

 SHA1:             b4a5b34a9e711420743f49e6833241d17c61fb3c
 **********************************************************************************************************************************
 SETTING GEOMTYP        =    XYZ

 Variable memory set to  500000000 words,  buffer space 

 ZSYMEL=NOSYM

 SETTING BASIS          =    SVP


 Recomputing integrals since basis changed


 Using spherical harmonics

 Library entry C      S def2-SVP             selected for orbital group  1
 Library entry C      P def2-SVP             selected for orbital group  1
 Library entry C      D def2-SVP             selected for orbital group  1
 Library entry O      S def2-SVP             selected for orbital group  2
 Library entry O      P def2-SVP             selected for orbital group  2
 Library entry O      D def2-SVP             selected for orbital group  2
 Library entry H      S def2-SVP             selected for orbital group  3
 Library entry H      P def2-SVP             selected for orbital group  3


 PROGRAM * SEWARD (Integral evaluation for generally contracted gaussian basis sets)     Author: Roland Lindh, 1990

 Geometry written to block  1 of record 700


 Point group  C1  



 ATOMIC COORDINATES

 NR  ATOM    CHARGE       X              Y              Z

   1  C       6.00   -2.895684032    0.042462146    0.000000000
   2  C       6.00   -0.003628274    0.026853008    0.000000000
   3  O       8.00    0.703715112    2.652343999    0.000000000
   4  H       1.00    2.536919528    2.721885921    0.000000000
   5  H       1.00   -3.647001345   -1.886305720    0.000000000
   6  H       1.00   -3.605540754    1.027670861   -1.675298901
   7  H       1.00   -3.605540754    1.027670861    1.675298901
   8  C       6.00    1.026177977   -1.256025366   -2.392015328
   9  C       6.00    1.026177977   -1.256025366    2.392015328
  10  H       1.00    0.337051552   -0.278772398   -4.080731285
  11  H       1.00    0.337051552   -0.278772398    4.080731285
  12  H       1.00    0.448847749   -3.242770030   -2.499729718
  13  H       1.00    0.448847749   -3.242770030    2.499729718
  14  H       1.00    3.100738214   -1.205021658   -2.419454152
  15  H       1.00    3.100738214   -1.205021658    2.419454152

 Bond lengths in Bohr (Angstrom)

 1-2  2.892097881  1-5  2.069933136  1-6  2.069096224  1-7  2.069096224  2-3  2.719106031
     ( 1.530432290)     ( 1.095361444)     ( 1.094918569)     ( 1.094918569)     ( 1.438888946)

  2- 8  2.903104402   2- 9  2.903104402   3- 4  1.834522965   8-10  2.069222119   8-12  2.071730422
       ( 1.536256691)       ( 1.536256691)       ( 0.970787746)       ( 1.094985190)       ( 1.096312526)

  8-14  2.075368508   9-11  2.069222119   9-13  2.071730422   9-15  2.075368508
       ( 1.098237719)       ( 1.094985190)       ( 1.096312526)       ( 1.098237719)

 Bond angles

  1-2-3  104.76902697   1-2-8  110.92255387   1-2-9  110.92255387   2-1-5  110.97328220

  2- 1- 6  110.22090701   2- 1- 7  110.22090701   2- 3- 4  107.25071562   2- 8-10  110.21836376

  2- 8-12  111.57747468   2- 8-14  110.77023896   2- 9-11  110.21836376   2- 9-13  111.57747468

  2- 9-15  110.77023896   3- 2- 8  109.53648747   3- 2- 9  109.53648747   5- 1- 6  108.61190457

  5- 1- 7  108.61190457   6- 1- 7  108.12870271   8- 2- 9  110.96453384  10- 8-12  108.52192632

 10- 8-14  108.08997829  11- 9-13  108.52192632  11- 9-15  108.08997829  12- 8-14  107.54424578

 13- 9-15  107.54424578

 NUCLEAR CHARGE:                   42
 NUMBER OF PRIMITIVE AOS:         195
 NUMBER OF SYMMETRY AOS:          190
 NUMBER OF CONTRACTIONS:          120   ( 120A   )
 NUMBER OF CORE ORBITALS:           5   (   5A   )
 NUMBER OF VALENCE ORBITALS:       30   (  30A   )


 NUCLEAR REPULSION ENERGY  198.77359127


 Eigenvalues of metric

         1 0.176E-02 0.546E-02 0.548E-02 0.123E-01 0.248E-01 0.256E-01 0.256E-01 0.275E-01


 Contracted 2-electron integrals neglected if value below      1.0D-11
 AO integral compression algorithm  1   Integral accuracy      1.0D-11

     101.974 MB (compressed) written to integral file ( 44.9%)


 NUMBER OF SORTED TWO-ELECTRON INTEGRALS:   26357430.     BUFFER LENGTH:  32768
 NUMBER OF SEGMENTS:   2  SEGMENT LENGTH:   15997996      RECORD LENGTH: 524288

 Memory used in sort:      16.56 MW

 SORT1 READ    28411733. AND WROTE    24096425. INTEGRALS IN     70 RECORDS. CPU TIME:     0.39 SEC, REAL TIME:     1.36 SEC
 SORT2 READ    24096425. AND WROTE    26357430. INTEGRALS IN    389 RECORDS. CPU TIME:     0.65 SEC, REAL TIME:     0.94 SEC

 FILE SIZES:   FILE 1:   132.7 MBYTE,  FILE 4:   293.6 MBYTE,   TOTAL:    426.4 MBYTE

 OPERATOR DM      FOR CENTER  0  COORDINATES:    0.000000    0.000000    0.000000


 **********************************************************************************************************************************
 DATASETS  * FILE   NREC   LENGTH (MB)   RECORD NAMES
              1      19      120.44       500      610      700      900      950      970     1000      129      960     1100   
                                          VAR    BASINP    GEOM    SYMINP    ZMAT    AOBASIS   BASIS     P2S    ABASIS      S 
                                         1400     1410     1200     1210     1080     1600     1650     1300     1700   
                                           T        V       H0       H01     AOSYM     SMH    MOLCAS    ERIS     OPER   

 PROGRAMS   *        TOTAL       INT
 CPU TIMES  *         4.05      3.90
 REAL TIME  *        13.75 SEC
 DISK USED  *       426.89 MB      
 **********************************************************************************************************************************

 Density functional group M05=XC-M05
 Functional: XC-M05(via MFM 1.6)                                               Gradient terms: 1
 Use grid at  1800.2


 Exact exchange will be calculated, factor:  0.2800

 Functional: XC-M05                    Factor:  1.0000

 Generated new metagrid on record  1800.2 with target accuracy 1.0D-06 and 53396 points in CPU time    1.6
 Computed new grid on record 1800.1 in CPU time    1.8
   99539 words reserved for DFT integration

 PROGRAM * UKS-SCF (Unrestricted Kohn-Sham)     Authors: W. Meyer, H.-J. Werner, P.J. Knowles, 1993

 NUMBER OF ELECTRONS:      21+   21-    SPACE SYMMETRY=1    SPIN SYMMETRY: Singlet 
 CONVERGENCE THRESHOLDS:    1.00E-05 (Density)    1.00E-06 (Energy)
 MAX. NUMBER OF ITERATIONS:       60
 INTERPOLATION TYPE:            DIIS
 INTERPOLATION STEPS:              2 (START)      1 (STEP)
 LEVEL SHIFTS:                 -0.20 (ALPHA)  -0.20 (BETA) 



 Use fine grid record 1800.2 for energy threshold  1.0D-06
 Orbital guess generated from atomic densities. Full valence occupancy:   21

 Molecular orbital dump at record        2200.2

 Initial alpha occupation  21
 Initial beta  occupation  21

 ITERATION    DDIFF          GRAD             ENERGY        2-EL.EN.            DIPOLE MOMENTS         DIIS
    1      0.000D+00      0.000D+00      -233.13205757    617.088945    0.70630   -0.88198    0.00000    0
    2      0.102D-01      0.493D-02      -233.29675649    600.084780    0.31447   -0.46179    0.00000    1
    3      0.314D-02      0.216D-02      -233.32129375    604.044285    0.39201   -0.54652    0.00000    2
    4      0.105D-02      0.367D-03      -233.32265594    603.843771    0.37692   -0.49457    0.00000    3
    5      0.784D-03      0.180D-03      -233.32313130    603.756623    0.37187   -0.49247    0.00000    4
    6      0.333D-03      0.459D-04      -233.32317814    603.744102    0.37062   -0.48801    0.00000    5
    7      0.513D-04      0.104D-04      -233.32317960    603.724920    0.36991   -0.48807    0.00000    6
    8      0.183D-04      0.503D-05      -233.32317988    603.730647    0.36993   -0.48836    0.00000    7
    9      0.699D-05      0.951D-06      -233.32317991    603.730624    0.36989   -0.48822    0.00000    6
   10      0.163D-05      0.269D-06      -233.32317991    603.730150    0.36986   -0.48827    0.00000    7

 Final alpha occupancy:  21
 Final beta  occupancy:  21

 !UKS STATE 1.1 Energy               -233.323179907697
 Nuclear energy                       198.77359127
 One-electron energy                 -709.20728470
 Two-electron energy                  301.86507477
 Density functional                   -24.75456125     XC-M05=-24.75456125
 Virial quotient                       -1.01005779
 !UKS STATE 1.1 Dipole moment           0.36986159    -0.48826505     0.00000000
 Dipole moment /Debye                   0.94003281    -1.24096467     0.00000000

 Orbital energies for positive spin:

         1.1          2.1          3.1          4.1          5.1          6.1          7.1          8.1          9.1         10.1
    -19.162358   -10.275852   -10.209038   -10.209020   -10.203290    -1.023500    -0.799966    -0.703057    -0.701778    -0.576114

        11.1         12.1         13.1         14.1         15.1         16.1         17.1         18.1         19.1         20.1
     -0.498212    -0.460645    -0.458421    -0.419207    -0.405902    -0.388083    -0.374981    -0.363860    -0.357361    -0.327763

        21.1         22.1         23.1
     -0.276923     0.045002     0.095892

 Orbital energies for negative spin:

         1.1          2.1          3.1          4.1          5.1          6.1          7.1          8.1          9.1         10.1
    -19.162358   -10.275852   -10.209038   -10.209020   -10.203290    -1.023500    -0.799966    -0.703057    -0.701778    -0.576114

        11.1         12.1         13.1         14.1         15.1         16.1         17.1         18.1         19.1         20.1
     -0.498212    -0.460645    -0.458421    -0.419207    -0.405902    -0.388083    -0.374981    -0.363860    -0.357361    -0.327763

        21.1         22.1         23.1
     -0.276923     0.045002     0.095892

 HOMO     21.1    -0.276923 =      -7.5354eV
 LUMO     22.1     0.045002 =       1.2246eV
 LUMO-HOMO         0.321925 =       8.7600eV

 EXPECTATION VALUE OF S**2:            -0.00000000

 Natural orbitals saved to record    2200.2 (Orbital set 3)

 Orbital spaces for UNO-CAS (Min. occupation: 0.020  Max. occupation: 1.980):

 Closed:       21
 Active:        0


 **********************************************************************************************************************************
 DATASETS  * FILE   NREC   LENGTH (MB)   RECORD NAMES
              1      20      122.15       500      610      700      900      950      970     1000      129      960     1100   
                                          VAR    BASINP    GEOM    SYMINP    ZMAT    AOBASIS   BASIS     P2S    ABASIS      S 
                                         1400     1410     1200     1210     1080     1600     1650     1300     1700     1800   
                                           T        V       H0       H01     AOSYM     SMH    MOLCAS    ERIS     OPER     GRID   

              2       5        3.59       700     1000      520     1800     2200   
                                         GEOM     BASIS   MCVARS    GRID      UKS  

 PROGRAMS   *        TOTAL       UKS       INT
 CPU TIMES  *        63.42     59.36      3.90
 REAL TIME  *        86.62 SEC
 DISK USED  *       426.89 MB      
 **********************************************************************************************************************************


 PROGRAM * Intrinsic Basis Bonding Analysis (IBBA)          Author: G. Knizia

 Molecular orbitals read from record     2200.2  Type=UKS/ALPHA (state 1.1)
 Fock matrix read from record            2200.2  Type=UKS/TOTAL (state 1.1)
 Orbital energies read from record       2200.2  Type=UKS/ALPHA (state 1.1)
 Density matrix read from record         2200.2  Type=UKS/CHARGE (state 1.1)

 Number of core orbitals:           5 (   5 )
 Number of closed-shell orbitals:  16 (  16 )

 Basis set MINAO-AUTO-PP generated.      Number of basis functions:   35 

 Polarized AO type:                A = (O Ot + (1-O)(1-Ot)) P12
 Orthogonalization method:         Symmetric (Loewdin)
 Localization functional:          L = sum[A,i] <i|n_A|i>^4 -> max

 Localization group 1:  21 orbitals, occupancy  2.000
 Iterative localization: IB/PM,    7 iter; Final gradient 0.37E-08

 Bond order analysis:       [THRPRINT= 0.020]

   CEN ATOM   CEN ATOM     WIBERG.BO      RENORM.BO
     1   C  -   2   C       0.994672       0.992423
     1   C  -   5   H       0.965328       0.987658
     1   C  -   6   H       0.960924       0.982506
     1   C  -   7   H       0.960924       0.982506

     2   C  -   1   C       0.994672       0.992423
     2   C  -   9   C       0.993613       0.974819
     2   C  -   8   C       0.993613       0.974819
     2   C  -   3   O       0.937177       0.954276

     3   O  -   2   C       0.937177       0.954276
     3   O  -   4   H       0.870947       0.977683
     3   O  -   8   C       0.027286       0.013953
     3   O  -   9   C       0.027286       0.013953

     4   H  -   3   O       0.870947       0.977683

     5   H  -   1   C       0.965328       0.987658

     6   H  -   1   C       0.960924       0.982506

     7   H  -   1   C       0.960924       0.982506

     8   C  -   2   C       0.993613       0.974819
     8   C  -  14   H       0.964658       0.983171
     8   C  -  12   H       0.961283       0.982736
     8   C  -  10   H       0.961142       0.982247
     8   C  -   3   O       0.027286       0.013953

     9   C  -   2   C       0.993613       0.974819
     9   C  -  15   H       0.964658       0.983171
     9   C  -  13   H       0.961283       0.982736
     9   C  -  11   H       0.961142       0.982247
     9   C  -   3   O       0.027286       0.013953

    10   H  -   8   C       0.961142       0.982247

    11   H  -   9   C       0.961142       0.982247

    12   H  -   8   C       0.961283       0.982736

    13   H  -   9   C       0.961283       0.982736

    14   H  -   8   C       0.964658       0.983171

    15   H  -   9   C       0.964658       0.983171


 Valency analysis:

   CEN ATOM   TOT.VALENCE
     1   C       3.940052
     2   C       3.929670
     3   O       1.926880
     4   H       0.889489
     5   H       0.983266
     6   H       0.981005
     7   H       0.981005
     8   C       3.942006
     9   C       3.942006
    10   H       0.980925
    11   H       0.980925
    12   H       0.982423
    13   H       0.982423
    14   H       0.984643
    15   H       0.984643

 Total charge composition:

   CEN ATOM         s          p       ELECTRONS ->P.CHARGE
     1   C       3.03039    3.36998      6.40037   -0.40037
     2   C       2.92385    2.81233      5.73618    0.26382
     3   O       3.63499    4.92411      8.55910   -0.55910
     4   H       0.66757                 0.66757    0.33243
     5   H       0.87064                 0.87064    0.12936
     6   H       0.86218                 0.86218    0.13782
     7   H       0.86218                 0.86218    0.13782
     8   C       3.03659    3.37892      6.41551   -0.41551
     9   C       3.03659    3.37892      6.41551   -0.41551
    10   H       0.86189                 0.86189    0.13811
    11   H       0.86189                 0.86189    0.13811
    12   H       0.86742                 0.86742    0.13258
    13   H       0.86742                 0.86742    0.13258
    14   H       0.87607                 0.87607    0.12393
    15   H       0.87607                 0.87607    0.12393

 Total charge composition, AO contributions:

   CEN ATOM SHL      SPHERICAL COMPONENTS
     1   C  1s       1.99082
     1   C  2s       1.03956
     1   C  2p       1.04379    1.15764    1.16855

     2   C  1s       1.99250
     2   C  2s       0.93135
     2   C  2p       1.01112    0.78963    1.01158

     3   O  1s       1.99707
     3   O  2s       1.63792
     3   O  2p       1.47126    1.49627    1.95658

     4   H  1s       0.66757

     5   H  1s       0.87064

     6   H  1s       0.86218

     7   H  1s       0.86218

     8   C  1s       1.99093
     8   C  2s       1.04567
     8   C  2p       1.14119    1.14133    1.09640

     9   C  1s       1.99093
     9   C  2s       1.04567
     9   C  2p       1.14119    1.14133    1.09640

    10   H  1s       0.86189

    11   H  1s       0.86189

    12   H  1s       0.86742

    13   H  1s       0.86742

    14   H  1s       0.87607

    15   H  1s       0.87607

 Summary of localized orbital composition:   [THRPRINT= 0.020]

   ORB  GRP  ORB.ENERGY      CENTERS/CHARGES
     1   1   -19.006040      O  3   2.000
     2   1   -10.183957      C  2   2.000
     3   1   -10.093606      C  8   2.000
     4   1   -10.093606      C  9   2.000
     5   1   -10.087055      C  1   2.000
     6   1    -0.767965      O  3   1.334   H  4   0.657
     7   1    -0.733497      O  3   1.283   C  2   0.700
     8   1    -0.588705      C  8   1.010   C  2   0.975
     9   1    -0.588705      C  9   1.010   C  2   0.975
    10   1    -0.588200      C  1   0.992   C  2   0.985   (other: 0.023)
    11   1    -0.568714      O  3   1.982
    12   1    -0.514665      C  8   1.128   H 12   0.858
    13   1    -0.514665      C  9   1.128   H 13   0.858
    14   1    -0.513204      C  9   1.120   H 15   0.869
    15   1    -0.513204      C  8   1.120   H 14   0.869
    16   1    -0.510671      C  1   1.124   H  5   0.864
    17   1    -0.507816      C  8   1.136   H 10   0.854
    18   1    -0.507816      C  9   1.136   H 11   0.854
    19   1    -0.502228      C  1   1.135   H  7   0.854
    20   1    -0.502228      C  1   1.135   H  6   0.854
    21   1    -0.308906      O  3   1.957   (other: 0.043)

 Localized orbitals saved to record      2200.2  (orbital set 4)


 **********************************************************************************************************************************
 DATASETS  * FILE   NREC   LENGTH (MB)   RECORD NAMES
              1      20      122.15       500      610      700      900      950      970     1000      129      960     1100   
                                          VAR    BASINP    GEOM    SYMINP    ZMAT    AOBASIS   BASIS     P2S    ABASIS      S 
                                         1400     1410     1200     1210     1080     1600     1650     1300     1700     1800   
                                           T        V       H0       H01     AOSYM     SMH    MOLCAS    ERIS     OPER     GRID   

              2       5        3.71       700     1000      520     1800     2200   
                                         GEOM     BASIS   MCVARS    GRID      UKS  

 PROGRAMS   *        TOTAL      IBBA       UKS       INT
 CPU TIMES  *        63.46      0.03     59.36      3.90
 REAL TIME  *        86.77 SEC
 DISK USED  *       426.89 MB      
 **********************************************************************************************************************************
 Molecular orbitals read from record     2200.2  Type=UKS/LOCAL(IBO)  
 Occupation numbers read from record     2200.2  Type=UKS/LOCAL(IBO)  
 Orbital energies read from record       2200.2  Type=UKS/LOCAL(IBO)  
 Redundancy group numbers read from rec  2200.2  Type=UKS/BETA (state 1.1)

 IBBA/SVP energy=      0.000000000000

        UKS-SCF 
   -233.32317991
 **********************************************************************************************************************************
 Molpro calculation terminated
