
 Primary working directories    : /tmp/sb13343
 Secondary working directories  : /tmp/sb13343
 Wavefunction directory         : /panfs/panasas01/chem/sb13343/wfu/
 Main file repository           : /tmp/sb13343/

 SHA1      : b4a5b34a9e711420743f49e6833241d17c61fb3c
 NAME      : 2099.9.b4a5b34
 ARCHNAME  : linux/x86_64_openmp
 FC        : /cm/shared/languages/GCC-6.1/bin/gfortran
 BLASLIB   : -lblas
 id        : simonbennie

 Nodes     nprocs
 node32-038    1

 Using customized tuning parameters: mindgm=1; mindgv=20; mindgc=4; mindgr=1; noblas=0; minvec=7
 default implementation of scratch files=df  

 memory,500,m
 geomtyp=xyz
 nosym
 noorient
 geometry={
 C          0.00000        0.00000        0.00000
 C          0.00000        0.00000        1.53307
 O          1.40344        0.00000        1.86307
 C          1.76314        0.00000        3.22887
 H         -1.02289        0.00000       -0.39176
 H          0.51995       -0.88625       -0.37815
 H          0.51995        0.88625       -0.37815
 H          2.85677        0.00000        3.25413
 H          1.40708       -0.89217        3.76475
 H          1.40708        0.89217        3.76475
 C         -0.69252       -1.26694        2.06222
 C         -0.69252        1.26694        2.06222
 H         -0.15366       -2.16088        1.72982
 H         -0.15366        2.16088        1.72982
 H         -1.72011       -1.32515        1.68649
 H         -1.72011        1.32515        1.68649
 H         -0.74365       -1.28188        3.15638
 H         -0.74365        1.28188        3.15638
 }
 basis={ default,svp }
 {ks,B-LYP,direct;wf,50,1,0}
 {ibba,bonds=1}

 Variables initialized (895), CPU time= 0.00 sec
 Commands  initialized (725), CPU time= 0.02 sec, 591 directives.
 Default parameters read. Elapsed time= 0.07 sec

 Checking input...
 Passed
1


                                         ***  PROGRAM SYSTEM MOLPRO  ***
                                       Copyright, TTI GmbH Stuttgart, 2015
                                    Version 2099.9 linked May 26 2017 16:03:21


 **********************************************************************************************************************************
 LABEL *                                                                                 
  64 bit serial version                                                                  DATE: 09-Jun-17          TIME: 01:27:25  
 **********************************************************************************************************************************

 SHA1:             b4a5b34a9e711420743f49e6833241d17c61fb3c
 **********************************************************************************************************************************
 SETTING GEOMTYP        =    XYZ

 Variable memory set to  500000000 words,  buffer space 

 ZSYMEL=NOSYM

 SETTING BASIS          =    SVP


 Recomputing integrals since basis changed


 Using spherical harmonics

 Library entry C      S def2-SVP             selected for orbital group  1
 Library entry C      P def2-SVP             selected for orbital group  1
 Library entry C      D def2-SVP             selected for orbital group  1
 Library entry O      S def2-SVP             selected for orbital group  2
 Library entry O      P def2-SVP             selected for orbital group  2
 Library entry O      D def2-SVP             selected for orbital group  2
 Library entry H      S def2-SVP             selected for orbital group  4
 Library entry H      P def2-SVP             selected for orbital group  4


 PROGRAM * SEWARD (Integral evaluation for generally contracted gaussian basis sets)     Author: Roland Lindh, 1990

 Geometry written to block  1 of record 700


 Point group  C1  



 ATOMIC COORDINATES

 NR  ATOM    CHARGE       X              Y              Z

   1  C       6.00    0.000000000    0.000000000    0.000000000
   2  C       6.00    0.000000000    0.000000000    2.897082430
   3  O       8.00    2.652117232    0.000000000    3.520692051
   4  C       6.00    3.331851719    0.000000000    6.101679992
   5  H       1.00   -1.932981956    0.000000000   -0.740319107
   6  H       1.00    0.982563098   -1.674769778   -0.714599934
   7  H       1.00    0.982563098    1.674769778   -0.714599934
   8  H       1.00    5.398512901    0.000000000    6.149414474
   9  H       1.00    2.658995835   -1.685956957    7.114346427
  10  H       1.00    2.658995835    1.685956957    7.114346427
  11  C       6.00   -1.308673136   -2.394169616    3.897031009
  12  C       6.00   -1.308673136    2.394169616    3.897031009
  13  H       1.00   -0.290375316   -4.083471388    3.268886045
  14  H       1.00   -0.290375316    4.083471388    3.268886045
  15  H       1.00   -3.250536804   -2.504170574    3.187004212
  16  H       1.00   -3.250536804    2.504170574    3.187004212
  17  H       1.00   -1.405294833   -2.422402125    5.964693745
  18  H       1.00   -1.405294833    2.422402125    5.964693745

 Bond lengths in Bohr (Angstrom)

 1-2  2.897082430  1-5  2.069901355  1-6  2.069042560  1-7  2.069042560  2-3  2.724447609
     ( 1.533070000)     ( 1.095344626)     ( 1.094890171)     ( 1.094890171)     ( 1.441715587)

  2-11  2.905954351   2-12  2.905954351   3- 4  2.668995640   4- 8  2.067212379   4- 9  2.078624355
       ( 1.537764818)       ( 1.537764818)       ( 1.412371669)       ( 1.093921681)       ( 1.099960639)

  4-10  2.078624355  11-13  2.070081404  11-15  2.070524757  11-17  2.070111596  12-14  2.070081404
       ( 1.099960639)       ( 1.095439904)       ( 1.095674516)       ( 1.095455880)       ( 1.095439904)

 12-16  2.070524757  12-18  2.070111596
       ( 1.095674516)       ( 1.095455880)

 Bond angles

  1- 2- 3  103.23196371   1- 2-11  110.12706952   1- 2-12  110.12706952   2- 1- 5  110.95650426

  2- 1- 6  110.20481748   2- 1- 7  110.20481748   2- 3- 4  117.98647004   2-11-13  110.26679927

  2-11-15  110.37287188   2-11-17  112.08316935   2-12-14  110.26679927   2-12-16  110.37287188

  2-12-18  112.08316935   3- 2-11  111.07703285   3- 2-12  111.07703285   3- 4- 8  106.07765410

  3- 4- 9  112.87219182   3- 4-10  112.87219182   5- 1- 6  108.65976572   5- 1- 7  108.65976572

  6- 1- 7  108.08288210   8- 4- 9  108.20190897   8- 4-10  108.20190897   9- 4-10  108.40564999

 11- 2-12  110.95103964  13-11-15  108.29648994  13-11-17  108.35544687  14-12-16  108.29648994

 14-12-18  108.35544687  15-11-17  107.33851825  16-12-18  107.33851825

 NUCLEAR CHARGE:                   50
 NUMBER OF PRIMITIVE AOS:         234
 NUMBER OF SYMMETRY AOS:          228
 NUMBER OF CONTRACTIONS:          144   ( 144A   )
 NUMBER OF CORE ORBITALS:           6   (   6A   )
 NUMBER OF VALENCE ORBITALS:       36   (  36A   )


 NUCLEAR REPULSION ENERGY  270.15500869


 Eigenvalues of metric

         1 0.176E-02 0.508E-02 0.513E-02 0.102E-01 0.124E-01 0.215E-01 0.221E-01 0.252E-01


 Contracted 2-electron integrals neglected if value below      1.0D-11
 AO integral compression algorithm  1   Integral accuracy      1.0D-11

     186.384 MB (compressed) written to integral file ( 41.3%)


 NUMBER OF SORTED TWO-ELECTRON INTEGRALS:   54502020.     BUFFER LENGTH:  32768
 NUMBER OF SEGMENTS:   4  SEGMENT LENGTH:   15999503      RECORD LENGTH: 524288

 Memory used in sort:      16.56 MW

 SORT1 READ    56333432. AND WROTE    45703433. INTEGRALS IN    132 RECORDS. CPU TIME:     0.69 SEC, REAL TIME:     1.34 SEC
 SORT2 READ    45703433. AND WROTE    54502020. INTEGRALS IN    711 RECORDS. CPU TIME:     1.02 SEC, REAL TIME:     1.33 SEC

 FILE SIZES:   FILE 1:   217.4 MBYTE,  FILE 4:   553.7 MBYTE,   TOTAL:    771.1 MBYTE

 OPERATOR DM      FOR CENTER  0  COORDINATES:    0.000000    0.000000    0.000000


 **********************************************************************************************************************************
 DATASETS  * FILE   NREC   LENGTH (MB)   RECORD NAMES
              1      19      194.45       500      610      700      900      950      970     1000      129      960     1100   
                                          VAR    BASINP    GEOM    SYMINP    ZMAT    AOBASIS   BASIS     P2S    ABASIS      S 
                                         1400     1410     1200     1210     1080     1600     1650     1300     1700   
                                           T        V       H0       H01     AOSYM     SMH    MOLCAS    ERIS     OPER   

 PROGRAMS   *        TOTAL       INT
 CPU TIMES  *         6.84      6.70
 REAL TIME  *         9.06 SEC
 DISK USED  *       771.70 MB      
 **********************************************************************************************************************************

 Density functional group B-LYP=B88+LYP
 Functional: B88(Automatically generated (new) B88)                            Gradient terms: 1
 Functional: LYP(Automatically generated (new) LYP)                            Gradient terms: 1
 Use grid at  1800.2

 Functional: B88                       Factor:  1.0000
 Functional: LYP                       Factor:  1.0000

 Generated new metagrid on record  1800.2 with target accuracy 1.0D-06 and 66012 points in CPU time    1.8
 Computed new grid on record 1800.1 in CPU time    2.1
  118710 words reserved for DFT integration

 PROGRAM * RKS-SCF (Restricted closed shell Kohn-Sham)     Authors: W. Meyer, H.-J. Werner, P.J. Knowles, 1993

 NUMBER OF ELECTRONS:      25+   25-    SPACE SYMMETRY=1    SPIN SYMMETRY: Singlet 
 CONVERGENCE THRESHOLDS:    1.00E-05 (Density)    1.00E-06 (Energy)
 MAX. NUMBER OF ITERATIONS:       60
 INTERPOLATION TYPE:            DIIS
 INTERPOLATION STEPS:              2 (START)      1 (STEP)
 LEVEL SHIFTS:                  0.00 (CLOSED)  0.00 (OPEN) 



 Use fine grid record 1800.2 for energy threshold  1.0D-06
 Orbital guess generated from atomic densities. Full valence occupancy:   25

 Molecular orbital dump at record        2100.2

 Initial occupancy:  25

 ITERATION    DDIFF          GRAD             ENERGY        2-EL.EN.            DIPOLE MOMENTS         DIIS   ORB.
    1      0.000D+00      0.000D+00      -272.27107635    822.603430   -0.66879    0.00000    0.63801    0    start
    2      0.000D+00      0.102D-01      -271.78557574    767.403604    0.41719   -0.00000   -0.50053    1    diag
    3      0.327D-01      0.156D-01      -272.60449160    803.719499   -0.45518    0.00000    0.44351    2    diag
    4      0.250D-01      0.187D-02      -272.61164820    801.354625   -0.25380    0.00000    0.26363    3    diag
    5      0.246D-02      0.917D-03      -272.61353313    801.446335   -0.34578    0.00000    0.30075    4    diag
    6      0.827D-03      0.223D-03      -272.61363911    801.575751   -0.32320    0.00000    0.29495    5    diag
    7      0.237D-03      0.893D-04      -272.61365950    801.563947   -0.32667    0.00000    0.29830    6    diag
    8      0.736D-04      0.815D-05      -272.61365967    801.573156   -0.32734    0.00000    0.29986    7    diag
    9      0.112D-04      0.342D-05      -272.61365970    801.574932   -0.32733    0.00000    0.29920    8    diag
   10      0.396D-05      0.893D-06      -272.61365970    801.573729   -0.32709    0.00000    0.29919    0    orth

 Final occupancy:  25

 !RKS STATE 1.1 Energy               -272.613659700348
 Nuclear energy                       270.15500869
 One-electron energy                 -903.52918997
 Two-electron energy                  400.78686461
 Density functional                   -40.02634304     B88=-38.39606045 LYP= -1.63028259
 Virial quotient                       -1.01059598
 !RKS STATE 1.1 Dipole moment          -0.32709482     0.00000000     0.29918558
 Dipole moment /Debye                  -0.83133765     0.00000000     0.76040409

 Orbital energies:

         1.1          2.1          3.1          4.1          5.1          6.1          7.1          8.1          9.1         10.1
    -18.766432    -9.970927    -9.957462    -9.911574    -9.911561    -9.906477    -0.909774    -0.705127    -0.612926    -0.607652

        11.1         12.1         13.1         14.1         15.1         16.1         17.1         18.1         19.1         20.1
     -0.587427    -0.478969    -0.424490    -0.402544    -0.398432    -0.374451    -0.357942    -0.345210    -0.329877    -0.321999

        21.1         22.1         23.1         24.1         25.1         26.1         27.1
     -0.314146    -0.293297    -0.293030    -0.243359    -0.196036     0.030520     0.059744

 HOMO     25.1    -0.196036 =      -5.3344eV
 LUMO     26.1     0.030520 =       0.8305eV
 LUMO-HOMO         0.226556 =       6.1649eV


 **********************************************************************************************************************************
 DATASETS  * FILE   NREC   LENGTH (MB)   RECORD NAMES
              1      20      196.57       500      610      700      900      950      970     1000      129      960     1100   
                                          VAR    BASINP    GEOM    SYMINP    ZMAT    AOBASIS   BASIS     P2S    ABASIS      S 
                                         1400     1410     1200     1210     1080     1600     1650     1300     1700     1800   
                                           T        V       H0       H01     AOSYM     SMH    MOLCAS    ERIS     OPER     GRID   

              2       5        3.48       700     1000      520     1800     2100   
                                         GEOM     BASIS   MCVARS    GRID      RKS  

 PROGRAMS   *        TOTAL        KS       INT
 CPU TIMES  *        27.28     20.44      6.70
 REAL TIME  *        30.66 SEC
 DISK USED  *       771.70 MB      
 **********************************************************************************************************************************


 PROGRAM * Intrinsic Basis Bonding Analysis (IBBA)          Author: G. Knizia

 Molecular orbitals read from record     2100.2  Type=RKS/CANONICAL (state 1.1)
 Fock matrix read from record            2100.2  Type=RKS/TOTAL (state 1.1)
 Orbital energies read from record       2100.2  Type=RKS/CANONICAL (state 1.1)
 Density matrix read from record         2100.2  Type=RKS/CHARGE (state 1.1)

 Number of core orbitals:           6 (   6 )
 Number of closed-shell orbitals:  19 (  19 )

 Basis set MINAO-AUTO-PP generated.      Number of basis functions:   42 

 Polarized AO type:                A = (O Ot + (1-O)(1-Ot)) P12
 Orthogonalization method:         Symmetric (Loewdin)
 Localization functional:          L = sum[A,i] <i|n_A|i>^4 -> max

 Localization group 1:  25 orbitals, occupancy  2.000
 Iterative localization: IB/PM,    7 iter; Final gradient 0.24E-08

 Bond order analysis:       [THRPRINT= 0.020]

   CEN ATOM   CEN ATOM     WIBERG.BO      RENORM.BO
     1   C  -   2   C       0.995748       0.995154
     1   C  -   5   H       0.964606       0.984629
     1   C  -   7   H       0.960488       0.980119
     1   C  -   6   H       0.960488       0.980119

     2   C  -   1   C       0.995748       0.995154
     2   C  -  12   C       0.991204       0.970815
     2   C  -  11   C       0.991204       0.970815
     2   C  -   3   O       0.928937       0.934995

     3   O  -   4   C       0.995694       1.016222
     3   O  -   2   C       0.928937       0.934995
     3   O  -   9   H       0.036141       0.021301
     3   O  -  10   H       0.036141       0.021301
     3   O  -  12   C       0.027909       0.014549
     3   O  -  11   C       0.027909       0.014549

     4   C  -   3   O       0.995694       1.016222
     4   C  -   8   H       0.957393       0.977105
     4   C  -   9   H       0.947691       0.931950
     4   C  -  10   H       0.947691       0.931950

     5   H  -   1   C       0.964606       0.984629

     6   H  -   1   C       0.960488       0.980119

     7   H  -   1   C       0.960488       0.980119

     8   H  -   4   C       0.957393       0.977105

     9   H  -   4   C       0.947691       0.931950
     9   H  -   3   O       0.036141       0.021301

    10   H  -   4   C       0.947691       0.931950
    10   H  -   3   O       0.036141       0.021301

    11   C  -   2   C       0.991204       0.970815
    11   C  -  17   H       0.962801       0.979994
    11   C  -  15   H       0.961047       0.985116
    11   C  -  13   H       0.960893       0.980146
    11   C  -   3   O       0.027909       0.014549

    12   C  -   2   C       0.991204       0.970815
    12   C  -  18   H       0.962801       0.979994
    12   C  -  16   H       0.961047       0.985116
    12   C  -  14   H       0.960893       0.980146
    12   C  -   3   O       0.027909       0.014549

    13   H  -  11   C       0.960893       0.980146

    14   H  -  12   C       0.960893       0.980146

    15   H  -  11   C       0.961047       0.985116

    16   H  -  12   C       0.961047       0.985116

    17   H  -  11   C       0.962801       0.979994

    18   H  -  12   C       0.962801       0.979994


 Valency analysis:

   CEN ATOM   TOT.VALENCE
     1   C       3.944396
     2   C       3.936676
     3   O       2.126433
     4   C       3.874060
     5   H       0.985228
     6   H       0.982668
     7   H       0.982668
     8   H       0.979635
     9   H       0.988967
    10   H       0.988967
    11   C       3.944352
    12   C       3.944352
    13   H       0.982924
    14   H       0.982924
    15   H       0.983320
    16   H       0.983320
    17   H       0.985104
    18   H       0.985104

 Total charge composition:

   CEN ATOM         s          p       ELECTRONS ->P.CHARGE
     1   C       3.02408    3.35650      6.38059   -0.38059
     2   C       2.92619    2.83072      5.75691    0.24309
     3   O       3.60298    4.78152      8.38450   -0.38450
     4   C       3.01143    3.16779      6.17923   -0.17923
     5   H       0.87846                 0.87846    0.12154
     6   H       0.86835                 0.86835    0.13165
     7   H       0.86835                 0.86835    0.13165
     8   H       0.85729                 0.85729    0.14271
     9   H       0.89496                 0.89496    0.10504
    10   H       0.89496                 0.89496    0.10504
    11   C       3.02408    3.37600      6.40008   -0.40008
    12   C       3.02408    3.37600      6.40008   -0.40008
    13   H       0.86932                 0.86932    0.13068
    14   H       0.86932                 0.86932    0.13068
    15   H       0.87085                 0.87085    0.12915
    16   H       0.87085                 0.87085    0.12915
    17   H       0.87795                 0.87795    0.12205
    18   H       0.87795                 0.87795    0.12205

 Total charge composition, AO contributions:

   CEN ATOM SHL      SPHERICAL COMPONENTS
     1   C  1s       1.99126
     1   C  2s       1.03282
     1   C  2p       1.15162    1.16492    1.03996

     2   C  1s       1.99292
     2   C  2s       0.93326
     2   C  2p       0.79882    1.01659    1.01532

     3   O  1s       1.99732
     3   O  2s       1.60566
     3   O  2p       1.43251    1.90349    1.44552

     4   C  1s       1.99189
     4   C  2s       1.01954
     4   C  2p       1.15354    1.16407    0.85018

     5   H  1s       0.87846

     6   H  1s       0.86835

     7   H  1s       0.86835

     8   H  1s       0.85729

     9   H  1s       0.89496

    10   H  1s       0.89496

    11   C  1s       1.99131
    11   C  2s       1.03277
    11   C  2p       1.13787    1.09322    1.14491

    12   C  1s       1.99131
    12   C  2s       1.03277
    12   C  2p       1.13787    1.09322    1.14491

    13   H  1s       0.86932

    14   H  1s       0.86932

    15   H  1s       0.87085

    16   H  1s       0.87085

    17   H  1s       0.87795

    18   H  1s       0.87795

 Summary of localized orbital composition:   [THRPRINT= 0.020]

   ORB  GRP  ORB.ENERGY      CENTERS/CHARGES
     1   1   -18.628566      O  3   2.000
     2   1    -9.882432      C  2   2.000
     3   1    -9.851290      C  4   2.000
     4   1    -9.800646      C 12   2.000
     5   1    -9.800646      C 11   2.000
     6   1    -9.794913      C  1   2.000
     7   1    -0.680396      O  3   1.246   C  4   0.746
     8   1    -0.653602      O  3   1.271   C  2   0.703   (other: 0.025)
     9   1    -0.506335      C 11   1.007   C  2   0.976
    10   1    -0.506335      C 12   1.007   C  2   0.976
    11   1    -0.503557      C  1   0.990   C  2   0.986   (other: 0.024)
    12   1    -0.460900      O  3   1.958   (other: 0.042)
    13   1    -0.456784      C  4   1.125   H 10   0.873
    14   1    -0.456784      C  4   1.125   H  9   0.873
    15   1    -0.454708      C  4   1.141   H  8   0.850
    16   1    -0.442851      C 11   1.122   H 15   0.862
    17   1    -0.442851      C 12   1.122   H 16   0.862
    18   1    -0.441259      C 12   1.119   H 18   0.869
    19   1    -0.441259      C 11   1.119   H 17   0.869
    20   1    -0.438933      C  1   1.116   H  5   0.871
    21   1    -0.437342      C 11   1.128   H 13   0.861
    22   1    -0.437342      C 12   1.128   H 14   0.861
    23   1    -0.432193      C  1   1.129   H  7   0.860
    24   1    -0.432193      C  1   1.129   H  6   0.860
    25   1    -0.237005      O  3   1.903   C  2   0.020   C  4   0.020   (other: 0.056)

 Localized orbitals saved to record      2100.2  (orbital set 2)


 **********************************************************************************************************************************
 DATASETS  * FILE   NREC   LENGTH (MB)   RECORD NAMES
              1      20      196.57       500      610      700      900      950      970     1000      129      960     1100   
                                          VAR    BASINP    GEOM    SYMINP    ZMAT    AOBASIS   BASIS     P2S    ABASIS      S 
                                         1400     1410     1200     1210     1080     1600     1650     1300     1700     1800   
                                           T        V       H0       H01     AOSYM     SMH    MOLCAS    ERIS     OPER     GRID   

              2       5        3.65       700     1000      520     1800     2100   
                                         GEOM     BASIS   MCVARS    GRID      RKS  

 PROGRAMS   *        TOTAL      IBBA        KS       INT
 CPU TIMES  *        27.33      0.05     20.44      6.70
 REAL TIME  *        30.82 SEC
 DISK USED  *       771.70 MB      
 **********************************************************************************************************************************
 Molecular orbitals read from record     2100.2  Type=RKS/LOCAL(IBO)  
 Occupation numbers read from record     2100.2  Type=RKS/LOCAL(IBO)  
 Orbital energies read from record       2100.2  Type=RKS/LOCAL(IBO)  
 Redundancy group numbers read from rec  2100.2  Type=RKS/LOCAL(IBO)  

 IBBA/SVP energy=      0.000000000000

        KS-SCF  
   -272.61365970
 **********************************************************************************************************************************
 Molpro calculation terminated
