
 Primary working directories    : /local
 Secondary working directories  : /local
 Wavefunction directory         : /local/
 Main file repository           : /local/

 SHA1      : b4a5b34a9e711420743f49e6833241d17c61fb3c
 NAME      : 2099.9.b4a5b34
 ARCHNAME  : linux/x86_64_openmp
 FC        : /cm/shared/languages/GCC-6.1/bin/gfortran
 BLASLIB   : -lblas
 id        : simonbennie

 Nodes     nprocs
 node35-036    1

 Using customized tuning parameters: mindgm=1; mindgv=20; mindgc=4; mindgr=1; noblas=0; minvec=7
 default implementation of scratch files=df  

 memory,500,m
 geomtyp=xyz
 nosym
 noorient
 geometry={
 C         -1.53233        0.02247        0.00000
 C         -0.00192        0.01421        0.00000
 O          0.37239        1.40356        0.00000
 H          1.34248        1.44036        0.00000
 H         -1.92991       -0.99819        0.00000
 H         -1.90797        0.54382       -0.88653
 H         -1.90797        0.54382        0.88653
 C          0.54303       -0.66466       -1.26580
 C          0.54303       -0.66466        1.26580
 H          0.17836       -0.14752       -2.15943
 H          0.17836       -0.14752        2.15943
 H          0.23752       -1.71600       -1.32280
 H          0.23752       -1.71600        1.32280
 H          1.64084       -0.63767       -1.28032
 H          1.64084       -0.63767        1.28032
 }
 basis={ default,tzvp }
 {uks,CS,direct;wf,42,1,0}
 {ibba,bonds=1}

 Variables initialized (895), CPU time= 0.00 sec
 Commands  initialized (725), CPU time= 0.02 sec, 591 directives.
 Default parameters read. Elapsed time= 0.07 sec

 Checking input...
 Passed
1


                                         ***  PROGRAM SYSTEM MOLPRO  ***
                                       Copyright, TTI GmbH Stuttgart, 2015
                                    Version 2099.9 linked May 26 2017 16:03:21


 **********************************************************************************************************************************
 LABEL *                                                                                 
  64 bit serial version                                                                  DATE: 12-Jun-17          TIME: 20:04:56  
 **********************************************************************************************************************************

 SHA1:             b4a5b34a9e711420743f49e6833241d17c61fb3c
 **********************************************************************************************************************************
 SETTING GEOMTYP        =    XYZ

 Variable memory set to  500000000 words,  buffer space 

 ZSYMEL=NOSYM

 SETTING BASIS          =    TZVP


 Recomputing integrals since basis changed


 Using spherical harmonics

 Library entry C      S def2-TZVP            selected for orbital group  1
 Library entry C      P def2-TZVP            selected for orbital group  1
 Library entry C      D def2-TZVP            selected for orbital group  1
 Library entry C      F def2-TZVP            selected for orbital group  1
 Library entry O      S def2-TZVP            selected for orbital group  2
 Library entry O      P def2-TZVP            selected for orbital group  2
 Library entry O      D def2-TZVP            selected for orbital group  2
 Library entry O      F def2-TZVP            selected for orbital group  2
 Library entry H      S def2-TZVP            selected for orbital group  3
 Library entry H      P def2-TZVP            selected for orbital group  3


 PROGRAM * SEWARD (Integral evaluation for generally contracted gaussian basis sets)     Author: Roland Lindh, 1990

 Geometry written to block  1 of record 700


 Point group  C1  



 ATOMIC COORDINATES

 NR  ATOM    CHARGE       X              Y              Z

   1  C       6.00   -2.895684032    0.042462146    0.000000000
   2  C       6.00   -0.003628274    0.026853008    0.000000000
   3  O       8.00    0.703715112    2.652343999    0.000000000
   4  H       1.00    2.536919528    2.721885921    0.000000000
   5  H       1.00   -3.647001345   -1.886305720    0.000000000
   6  H       1.00   -3.605540754    1.027670861   -1.675298901
   7  H       1.00   -3.605540754    1.027670861    1.675298901
   8  C       6.00    1.026177977   -1.256025366   -2.392015328
   9  C       6.00    1.026177977   -1.256025366    2.392015328
  10  H       1.00    0.337051552   -0.278772398   -4.080731285
  11  H       1.00    0.337051552   -0.278772398    4.080731285
  12  H       1.00    0.448847749   -3.242770030   -2.499729718
  13  H       1.00    0.448847749   -3.242770030    2.499729718
  14  H       1.00    3.100738214   -1.205021658   -2.419454152
  15  H       1.00    3.100738214   -1.205021658    2.419454152

 Bond lengths in Bohr (Angstrom)

 1-2  2.892097881  1-5  2.069933136  1-6  2.069096224  1-7  2.069096224  2-3  2.719106031
     ( 1.530432290)     ( 1.095361444)     ( 1.094918569)     ( 1.094918569)     ( 1.438888946)

  2- 8  2.903104402   2- 9  2.903104402   3- 4  1.834522965   8-10  2.069222119   8-12  2.071730422
       ( 1.536256691)       ( 1.536256691)       ( 0.970787746)       ( 1.094985190)       ( 1.096312526)

  8-14  2.075368508   9-11  2.069222119   9-13  2.071730422   9-15  2.075368508
       ( 1.098237719)       ( 1.094985190)       ( 1.096312526)       ( 1.098237719)

 Bond angles

  1-2-3  104.76902697   1-2-8  110.92255387   1-2-9  110.92255387   2-1-5  110.97328220

  2- 1- 6  110.22090701   2- 1- 7  110.22090701   2- 3- 4  107.25071562   2- 8-10  110.21836376

  2- 8-12  111.57747468   2- 8-14  110.77023896   2- 9-11  110.21836376   2- 9-13  111.57747468

  2- 9-15  110.77023896   3- 2- 8  109.53648747   3- 2- 9  109.53648747   5- 1- 6  108.61190457

  5- 1- 7  108.61190457   6- 1- 7  108.12870271   8- 2- 9  110.96453384  10- 8-12  108.52192632

 10- 8-14  108.08997829  11- 9-13  108.52192632  11- 9-15  108.08997829  12- 8-14  107.54424578

 13- 9-15  107.54424578

 NUCLEAR CHARGE:                   42
 NUMBER OF PRIMITIVE AOS:         335
 NUMBER OF SYMMETRY AOS:          310
 NUMBER OF CONTRACTIONS:          215   ( 215A   )
 NUMBER OF CORE ORBITALS:           5   (   5A   )
 NUMBER OF VALENCE ORBITALS:       30   (  30A   )


 NUCLEAR REPULSION ENERGY  198.77359127


 Eigenvalues of metric

         1 0.262E-03 0.510E-03 0.539E-03 0.594E-03 0.697E-03 0.755E-03 0.210E-02 0.239E-02


 Contracted 2-electron integrals neglected if value below      1.0D-11
 AO integral compression algorithm  1   Integral accuracy      1.0D-11

     977.797 MB (compressed) written to integral file ( 41.7%)


 NUMBER OF SORTED TWO-ELECTRON INTEGRALS:  269595810.     BUFFER LENGTH:  32768
 NUMBER OF SEGMENTS:  17  SEGMENT LENGTH:   15999762      RECORD LENGTH: 524288

 Memory used in sort:      16.56 MW

 SORT1 READ   292827432. AND WROTE   238500613. INTEGRALS IN    690 RECORDS. CPU TIME:     3.80 SEC, REAL TIME:     7.27 SEC
 SORT2 READ   238500613. AND WROTE   269595810. INTEGRALS IN   3730 RECORDS. CPU TIME:     5.75 SEC, REAL TIME:    34.71 SEC

 FILE SIZES:   FILE 1:  1009.7 MBYTE,  FILE 4:  2894.1 MBYTE,   TOTAL:   3903.8 MBYTE

 OPERATOR DM      FOR CENTER  0  COORDINATES:    0.000000    0.000000    0.000000


 **********************************************************************************************************************************
 DATASETS  * FILE   NREC   LENGTH (MB)   RECORD NAMES
              1      19      926.27       500      610      700      900      950      970     1000      129      960     1100   
                                          VAR    BASINP    GEOM    SYMINP    ZMAT    AOBASIS   BASIS     P2S    ABASIS      S 
                                         1400     1410     1200     1210     1080     1600     1650     1300     1700   
                                           T        V       H0       H01     AOSYM     SMH    MOLCAS    ERIS     OPER   

 PROGRAMS   *        TOTAL       INT
 CPU TIMES  *        27.22     27.07
 REAL TIME  *        62.22 SEC
 DISK USED  *         3.90 GB      
 **********************************************************************************************************************************

 Density functional group CS=CS1
 Functional: CS1(Colle-Salvetti (Gradient form))                               Gradient terms: 1
 Use grid at  1800.2

 Functional: CS1                       Factor:  1.0000

 Generated new metagrid on record  1800.2 with target accuracy 1.0D-06 and 54596 points in CPU time    1.7
 Computed new grid on record 1800.1 in CPU time    1.9
  175219 words reserved for DFT integration

 PROGRAM * UKS-SCF (Unrestricted Kohn-Sham)     Authors: W. Meyer, H.-J. Werner, P.J. Knowles, 1993

 NUMBER OF ELECTRONS:      21+   21-    SPACE SYMMETRY=1    SPIN SYMMETRY: Singlet 
 CONVERGENCE THRESHOLDS:    1.00E-05 (Density)    1.00E-06 (Energy)
 MAX. NUMBER OF ITERATIONS:       60
 INTERPOLATION TYPE:            DIIS
 INTERPOLATION STEPS:              2 (START)      1 (STEP)
 LEVEL SHIFTS:                 -0.20 (ALPHA)  -0.20 (BETA) 



 Use fine grid record 1800.2 for energy threshold  1.0D-06
 Orbital guess generated from atomic densities. Full valence occupancy:   21

 Molecular orbital dump at record        2200.2

 Initial alpha occupation  21
 Initial beta  occupation  21

 ITERATION    DDIFF          GRAD             ENERGY        2-EL.EN.            DIPOLE MOMENTS         DIIS
    1      0.000D+00      0.000D+00      -199.48996239    543.280812    2.10884    7.53323    0.00000    0
    2      0.788D+00      0.100D-01      -197.07102148    649.545898   -0.95341   -7.73532   -0.00000    1
    3      0.153D-01      0.189D-01      -201.56815249    612.129605   -0.14054   -2.99062   -0.00000    2
    4      0.735D-02      0.587D-02      -202.13218511    597.078721    0.06178   -1.39742   -0.00000    3
    5      0.424D-02      0.183D-02      -202.20417540    592.558300    0.22583   -0.46063    0.00000    4
    6      0.917D-02      0.443D-03      -202.21234268    590.297323    0.33295    0.03907    0.00000    5
    7      0.553D-02      0.323D-03      -202.21477093    590.894732    0.29299   -0.05601    0.00000    6
    8      0.291D-02      0.109D-03      -202.21514884    591.256954    0.31508   -0.03476    0.00000    7
    9      0.205D-02      0.571D-04      -202.21526968    591.230366    0.30514   -0.05238    0.00000    8
   10      0.675D-03      0.187D-04      -202.21528464    591.284472    0.30264   -0.05570   -0.00000    9
   11      0.310D-03      0.507D-05      -202.21528690    591.269176    0.30386   -0.05262    0.00000    8
   12      0.123D-03      0.226D-05      -202.21528727    591.273679    0.30296   -0.05257    0.00000    8
   13      0.450D-04      0.144D-05      -202.21528735    591.272438    0.30306   -0.05294    0.00000    8
   14      0.166D-04      0.357D-06      -202.21528736    591.272368    0.30298   -0.05274    0.00000    9
   15      0.465D-05      0.882D-07      -202.21528736    591.272302    0.30293   -0.05276   -0.00000    8
   16      0.150D-05      0.401D-07      -202.21528736    591.272314    0.30293   -0.05274   -0.00000    7

 Final alpha occupancy:  21
 Final beta  occupancy:  21

 !UKS STATE 1.1 Energy               -202.215287360228
 Nuclear energy                       198.77359127
 One-electron energy                 -695.29632904
 Two-electron energy                  295.63615708
 Density functional                    -1.32870667     CS1=-1.32870667
 Virial quotient                       -0.97011199
 !UKS STATE 1.1 Dipole moment           0.30293491    -0.05274082    -0.00000000
 Dipole moment /Debye                   0.76993331    -0.13404502    -0.00000000

 Orbital energies for positive spin:

         1.1          2.1          3.1          4.1          5.1          6.1          7.1          8.1          9.1         10.1
    -16.730206    -8.349427    -8.305111    -8.305079    -8.303099    -0.610738    -0.420844    -0.333991    -0.331313    -0.227941

        11.1         12.1         13.1         14.1         15.1         16.1         17.1         18.1         19.1         20.1
     -0.172867    -0.146975    -0.146652    -0.103382    -0.091586    -0.070795    -0.046258    -0.043628    -0.039550    -0.010400

        21.1         22.1         23.1
      0.041580     0.121662     0.170921

 Orbital energies for negative spin:

         1.1          2.1          3.1          4.1          5.1          6.1          7.1          8.1          9.1         10.1
    -16.730206    -8.349427    -8.305111    -8.305079    -8.303099    -0.610738    -0.420844    -0.333991    -0.331313    -0.227941

        11.1         12.1         13.1         14.1         15.1         16.1         17.1         18.1         19.1         20.1
     -0.172867    -0.146975    -0.146652    -0.103382    -0.091586    -0.070795    -0.046258    -0.043628    -0.039550    -0.010400

        21.1         22.1         23.1
      0.041580     0.121662     0.170921

 HOMO     21.1     0.041580 =       1.1315eV
 LUMO     22.1     0.121662 =       3.3106eV
 LUMO-HOMO         0.080081 =       2.1791eV

 EXPECTATION VALUE OF S**2:             0.00000000

 Occupation number threshold for canonical orbitals:  1.999000 (occupied),  0.001000 (virtual)

 Number of pseudo-canonical orbitals per symmetry:   21
 Number of active natural orbitals per symmetry:      0

 Natural orbitals saved to record    2200.2 (Orbital set 3)

 Orbital spaces for UNO-CAS (Min. occupation: 0.020  Max. occupation: 1.980):

 Closed:       21
 Active:        0


 **********************************************************************************************************************************
 DATASETS  * FILE   NREC   LENGTH (MB)   RECORD NAMES
              1      20      928.02       500      610      700      900      950      970     1000      129      960     1100   
                                          VAR    BASINP    GEOM    SYMINP    ZMAT    AOBASIS   BASIS     P2S    ABASIS      S 
                                         1400     1410     1200     1210     1080     1600     1650     1300     1700     1800   
                                           T        V       H0       H01     AOSYM     SMH    MOLCAS    ERIS     OPER     GRID   

              2       5        4.89       700     1000      520     1800     2200   
                                         GEOM     BASIS   MCVARS    GRID      UKS  

 PROGRAMS   *        TOTAL       UKS       INT
 CPU TIMES  *       254.31    227.09     27.07
 REAL TIME  *       340.50 SEC
 DISK USED  *         3.90 GB      
 **********************************************************************************************************************************


 PROGRAM * Intrinsic Basis Bonding Analysis (IBBA)          Author: G. Knizia

 Molecular orbitals read from record     2200.2  Type=UKS/ALPHA (state 1.1)
 Fock matrix read from record            2200.2  Type=UKS/TOTAL (state 1.1)
 Orbital energies read from record       2200.2  Type=UKS/ALPHA (state 1.1)
 Density matrix read from record         2200.2  Type=UKS/CHARGE (state 1.1)

 Number of core orbitals:           5 (   5 )
 Number of closed-shell orbitals:  16 (  16 )

 Basis set MINAO-AUTO-PP generated.      Number of basis functions:   35 

 Polarized AO type:                A = (O Ot + (1-O)(1-Ot)) P12
 Orthogonalization method:         Symmetric (Loewdin)
 Localization functional:          L = sum[A,i] <i|n_A|i>^4 -> max

 Localization group 1:  21 orbitals, occupancy  2.000
 Iterative localization: IB/PM,    8 iter; Final gradient 0.82E-09

 Bond order analysis:       [THRPRINT= 0.020]

   CEN ATOM   CEN ATOM     WIBERG.BO      RENORM.BO
     1   C  -   2   C       0.982619       0.996093
     1   C  -   5   H       0.954876       0.968134
     1   C  -   6   H       0.947860       0.952719
     1   C  -   7   H       0.947860       0.952719
     1   C  -   3   O       0.032652       0.018195
     1   C  -   4   H       0.026135       0.032210
     1   C  -  14   H       0.021183       0.022252
     1   C  -  15   H       0.021183       0.022252

     2   C  -   8   C       0.987886       0.972311
     2   C  -   9   C       0.987886       0.972311
     2   C  -   1   C       0.982619       0.996093
     2   C  -   3   O       0.974558       0.943972

     3   O  -   2   C       0.974558       0.943972
     3   O  -   4   H       0.908941       0.930707
     3   O  -   9   C       0.053943       0.029122
     3   O  -   8   C       0.053943       0.029122
     3   O  -  12   H       0.037242       0.026280
     3   O  -  13   H       0.037242       0.026280
     3   O  -   1   C       0.032652       0.018195
     3   O  -   5   H       0.022149       0.016915

     4   H  -   3   O       0.908941       0.930707
     4   H  -   1   C       0.026135       0.032210

     5   H  -   1   C       0.954876       0.968134
     5   H  -   3   O       0.022149       0.016915

     6   H  -   1   C       0.947860       0.952719
     6   H  -   9   C       0.024088       0.024863

     7   H  -   1   C       0.947860       0.952719
     7   H  -   8   C       0.024088       0.024863

     8   C  -   2   C       0.987886       0.972311
     8   C  -  10   H       0.948870       0.952256
     8   C  -  14   H       0.947809       0.957663
     8   C  -  12   H       0.945703       0.949355
     8   C  -   3   O       0.053943       0.029122
     8   C  -   7   H       0.024088       0.024863
     8   C  -  11   H       0.023819       0.024569

     9   C  -   2   C       0.987886       0.972311
     9   C  -  11   H       0.948870       0.952256
     9   C  -  15   H       0.947809       0.957663
     9   C  -  13   H       0.945703       0.949355
     9   C  -   3   O       0.053943       0.029122
     9   C  -   6   H       0.024088       0.024863
     9   C  -  10   H       0.023819       0.024569

    10   H  -   8   C       0.948870       0.952256
    10   H  -   9   C       0.023819       0.024569

    11   H  -   9   C       0.948870       0.952256
    11   H  -   8   C       0.023819       0.024569

    12   H  -   8   C       0.945703       0.949355
    12   H  -   3   O       0.037242       0.026280

    13   H  -   9   C       0.945703       0.949355
    13   H  -   3   O       0.037242       0.026280

    14   H  -   8   C       0.947809       0.957663
    14   H  -   1   C       0.021183       0.022252

    15   H  -   9   C       0.947809       0.957663
    15   H  -   1   C       0.021183       0.022252


 Valency analysis:

   CEN ATOM   TOT.VALENCE
     1   C       3.966486
     2   C       3.951445
     3   O       2.146702
     4   H       0.960923
     5   H       0.995756
     6   H       0.995662
     7   H       0.995662
     8   C       3.967496
     9   C       3.967496
    10   H       0.995622
    11   H       0.995622
    12   H       0.996114
    13   H       0.996114
    14   H       0.996940
    15   H       0.996940

 Total charge composition:

   CEN ATOM         s          p       ELECTRONS ->P.CHARGE
     1   C       2.94774    3.27379      6.22153   -0.22153
     2   C       2.87031    2.86458      5.73489    0.26511
     3   O       3.57765    4.74205      8.31970   -0.31970
     4   H       0.80232                 0.80232    0.19768
     5   H       0.93485                 0.93485    0.06515
     6   H       0.93414                 0.93414    0.06586
     7   H       0.93414                 0.93414    0.06586
     8   C       2.96546    3.27757      6.24303   -0.24303
     9   C       2.96546    3.27757      6.24303   -0.24303
    10   H       0.93384                 0.93384    0.06616
    11   H       0.93384                 0.93384    0.06616
    12   H       0.93766                 0.93766    0.06234
    13   H       0.93766                 0.93766    0.06234
    14   H       0.94469                 0.94469    0.05531
    15   H       0.94469                 0.94469    0.05531

 Total charge composition, AO contributions:

   CEN ATOM SHL      SPHERICAL COMPONENTS
     1   C  1s       1.99704
     1   C  2s       0.95070
     1   C  2p       1.02981    1.11666    1.12732

     2   C  1s       1.99776
     2   C  2s       0.87255
     2   C  2p       1.00812    0.84500    1.01146

     3   O  1s       1.99873
     3   O  2s       1.57892
     3   O  2p       1.36836    1.46662    1.90707

     4   H  1s       0.80232

     5   H  1s       0.93485

     6   H  1s       0.93414

     7   H  1s       0.93414

     8   C  1s       1.99709
     8   C  2s       0.96837
     8   C  2p       1.09966    1.10685    1.07106

     9   C  1s       1.99709
     9   C  2s       0.96837
     9   C  2p       1.09966    1.10685    1.07106

    10   H  1s       0.93384

    11   H  1s       0.93384

    12   H  1s       0.93766

    13   H  1s       0.93766

    14   H  1s       0.94469

    15   H  1s       0.94469

 Summary of localized orbital composition:   [THRPRINT= 0.020]

   ORB  GRP  ORB.ENERGY      CENTERS/CHARGES
     1   1   -16.630956      O  3   2.000
     2   1    -8.278604      C  2   2.000
     3   1    -8.221020      C  8   2.000
     4   1    -8.221020      C  9   2.000
     5   1    -8.218730      C  1   2.000
     6   1    -0.393110      O  3   1.225   C  2   0.749   (other: 0.026)
     7   1    -0.365283      O  3   1.213   H  4   0.770
     8   1    -0.249708      C  1   1.001   C  2   0.950   (other: 0.049)
     9   1    -0.247303      C  8   1.025   C  2   0.944   (other: 0.030)
    10   1    -0.247303      C  9   1.025   C  2   0.944   (other: 0.030)
    11   1    -0.171913      C  9   1.044   H 15   0.930   (other: 0.025)
    12   1    -0.171913      C  8   1.044   H 14   0.930   (other: 0.025)
    13   1    -0.170367      C  8   1.060   H 12   0.917   (other: 0.023)
    14   1    -0.170367      C  9   1.060   H 13   0.917   (other: 0.023)
    15   1    -0.169964      O  3   1.963   (other: 0.037)
    16   1    -0.168913      C  1   1.056   H  5   0.921   (other: 0.023)
    17   1    -0.166166      C  8   1.065   H 10   0.916
    18   1    -0.166166      C  9   1.065   H 11   0.916
    19   1    -0.164772      C  1   1.063   H  7   0.917
    20   1    -0.164772      C  1   1.063   H  6   0.917
    21   1     0.010088      O  3   1.907   C  2   0.028   (other: 0.065)

 Localized orbitals saved to record      2200.2  (orbital set 4)


 **********************************************************************************************************************************
 DATASETS  * FILE   NREC   LENGTH (MB)   RECORD NAMES
              1      20      928.02       500      610      700      900      950      970     1000      129      960     1100   
                                          VAR    BASINP    GEOM    SYMINP    ZMAT    AOBASIS   BASIS     P2S    ABASIS      S 
                                         1400     1410     1200     1210     1080     1600     1650     1300     1700     1800   
                                           T        V       H0       H01     AOSYM     SMH    MOLCAS    ERIS     OPER     GRID   

              2       5        5.27       700     1000      520     1800     2200   
                                         GEOM     BASIS   MCVARS    GRID      UKS  

 PROGRAMS   *        TOTAL      IBBA       UKS       INT
 CPU TIMES  *       254.38      0.07    227.09     27.07
 REAL TIME  *       340.70 SEC
 DISK USED  *         3.90 GB      
 **********************************************************************************************************************************
 Molecular orbitals read from record     2200.2  Type=UKS/LOCAL(IBO)  
 Occupation numbers read from record     2200.2  Type=UKS/LOCAL(IBO)  
 Orbital energies read from record       2200.2  Type=UKS/LOCAL(IBO)  
 Redundancy group numbers read from rec  2200.2  Type=UKS/BETA (state 1.1)

 IBBA/TZVP energy=      0.000000000000

        UKS-SCF 
   -202.21528736
 **********************************************************************************************************************************
 Molpro calculation terminated
