
 Primary working directories    : /local
 Secondary working directories  : /local
 Wavefunction directory         : /local/
 Main file repository           : /local/

 SHA1      : b4a5b34a9e711420743f49e6833241d17c61fb3c
 NAME      : 2099.9.b4a5b34
 ARCHNAME  : linux/x86_64_openmp
 FC        : /cm/shared/languages/GCC-6.1/bin/gfortran
 BLASLIB   : -lblas
 id        : simonbennie

 Nodes     nprocs
 node47-022    1

 Using customized tuning parameters: mindgm=1; mindgv=20; mindgc=4; mindgr=1; noblas=0; minvec=7
 default implementation of scratch files=df  

 memory,500,m
 geomtyp=xyz
 nosym
 noorient
 geometry={
 C         -1.53233        0.02247        0.00000
 C         -0.00192        0.01421        0.00000
 O          0.37239        1.40356        0.00000
 H          1.34248        1.44036        0.00000
 H         -1.92991       -0.99819        0.00000
 H         -1.90797        0.54382       -0.88653
 H         -1.90797        0.54382        0.88653
 C          0.54303       -0.66466       -1.26580
 C          0.54303       -0.66466        1.26580
 H          0.17836       -0.14752       -2.15943
 H          0.17836       -0.14752        2.15943
 H          0.23752       -1.71600       -1.32280
 H          0.23752       -1.71600        1.32280
 H          1.64084       -0.63767       -1.28032
 H          1.64084       -0.63767        1.28032
 }
 basis={ default,qzvp }
 {uks,CS,direct;wf,42,1,0}
 {ibba,bonds=1}

 Variables initialized (895), CPU time= 0.01 sec
 Commands  initialized (725), CPU time= 0.01 sec, 591 directives.
 Default parameters read. Elapsed time= 0.13 sec

 Checking input...
 Passed
1


                                         ***  PROGRAM SYSTEM MOLPRO  ***
                                       Copyright, TTI GmbH Stuttgart, 2015
                                    Version 2099.9 linked May 26 2017 16:03:21


 **********************************************************************************************************************************
 LABEL *                                                                                 
  64 bit serial version                                                                  DATE: 12-Jun-17          TIME: 19:07:05  
 **********************************************************************************************************************************

 SHA1:             b4a5b34a9e711420743f49e6833241d17c61fb3c
 **********************************************************************************************************************************
 SETTING GEOMTYP        =    XYZ

 Variable memory set to  500000000 words,  buffer space 

 ZSYMEL=NOSYM

 SETTING BASIS          =    QZVP


 Recomputing integrals since basis changed


 Using spherical harmonics

 Library entry C      S def2-QZVP            selected for orbital group  1
 Library entry C      P def2-QZVP            selected for orbital group  1
 Library entry C      D def2-QZVP            selected for orbital group  1
 Library entry C      F def2-QZVP            selected for orbital group  1
 Library entry C      G def2-QZVP            selected for orbital group  1
 Library entry O      S def2-QZVP            selected for orbital group  2
 Library entry O      P def2-QZVP            selected for orbital group  2
 Library entry O      D def2-QZVP            selected for orbital group  2
 Library entry O      F def2-QZVP            selected for orbital group  2
 Library entry O      G def2-QZVP            selected for orbital group  2
 Library entry H      S def2-QZVP            selected for orbital group  3
 Library entry H      P def2-QZVP            selected for orbital group  3
 Library entry H      D def2-QZVP            selected for orbital group  3
 Library entry H      F def2-QZVP            selected for orbital group  3


 PROGRAM * SEWARD (Integral evaluation for generally contracted gaussian basis sets)     Author: Roland Lindh, 1990

 Geometry written to block  1 of record 700


 Point group  C1  



 ATOMIC COORDINATES

 NR  ATOM    CHARGE       X              Y              Z

   1  C       6.00   -2.895684032    0.042462146    0.000000000
   2  C       6.00   -0.003628274    0.026853008    0.000000000
   3  O       8.00    0.703715112    2.652343999    0.000000000
   4  H       1.00    2.536919528    2.721885921    0.000000000
   5  H       1.00   -3.647001345   -1.886305720    0.000000000
   6  H       1.00   -3.605540754    1.027670861   -1.675298901
   7  H       1.00   -3.605540754    1.027670861    1.675298901
   8  C       6.00    1.026177977   -1.256025366   -2.392015328
   9  C       6.00    1.026177977   -1.256025366    2.392015328
  10  H       1.00    0.337051552   -0.278772398   -4.080731285
  11  H       1.00    0.337051552   -0.278772398    4.080731285
  12  H       1.00    0.448847749   -3.242770030   -2.499729718
  13  H       1.00    0.448847749   -3.242770030    2.499729718
  14  H       1.00    3.100738214   -1.205021658   -2.419454152
  15  H       1.00    3.100738214   -1.205021658    2.419454152

 Bond lengths in Bohr (Angstrom)

 1-2  2.892097881  1-5  2.069933136  1-6  2.069096224  1-7  2.069096224  2-3  2.719106031
     ( 1.530432290)     ( 1.095361444)     ( 1.094918569)     ( 1.094918569)     ( 1.438888946)

  2- 8  2.903104402   2- 9  2.903104402   3- 4  1.834522965   8-10  2.069222119   8-12  2.071730422
       ( 1.536256691)       ( 1.536256691)       ( 0.970787746)       ( 1.094985190)       ( 1.096312526)

  8-14  2.075368508   9-11  2.069222119   9-13  2.071730422   9-15  2.075368508
       ( 1.098237719)       ( 1.094985190)       ( 1.096312526)       ( 1.098237719)

 Bond angles

  1-2-3  104.76902697   1-2-8  110.92255387   1-2-9  110.92255387   2-1-5  110.97328220

  2- 1- 6  110.22090701   2- 1- 7  110.22090701   2- 3- 4  107.25071562   2- 8-10  110.21836376

  2- 8-12  111.57747468   2- 8-14  110.77023896   2- 9-11  110.21836376   2- 9-13  111.57747468

  2- 9-15  110.77023896   3- 2- 8  109.53648747   3- 2- 9  109.53648747   5- 1- 6  108.61190457

  5- 1- 7  108.61190457   6- 1- 7  108.12870271   8- 2- 9  110.96453384  10- 8-12  108.52192632

 10- 8-14  108.08997829  11- 9-13  108.52192632  11- 9-15  108.08997829  12- 8-14  107.54424578

 13- 9-15  107.54424578

 NUCLEAR CHARGE:                   42
 NUMBER OF PRIMITIVE AOS:         840
 NUMBER OF SYMMETRY AOS:          715
 NUMBER OF CONTRACTIONS:          585   ( 585A   )
 NUMBER OF CORE ORBITALS:           5   (   5A   )
 NUMBER OF VALENCE ORBITALS:       30   (  30A   )


 NUCLEAR REPULSION ENERGY  198.77359127


 Eigenvalues of metric

         1 0.447E-04 0.459E-04 0.470E-04 0.743E-04 0.823E-04 0.917E-04 0.943E-04 0.107E-03


 Contracted 2-electron integrals neglected if value below      1.0D-12
 AO integral compression algorithm  1   Integral accuracy      1.0D-12

     40752.906 MB (compressed) written to integral file ( 33.4%)


 NUMBER OF SORTED TWO-ELECTRON INTEGRALS:14689922715.     BUFFER LENGTH:  32768
 NUMBER OF SEGMENTS: 184  SEGMENT LENGTH:   79999773      RECORD LENGTH: 262144

 Memory used in sort:      80.29 MW

 SORT1 READ 15248138275. AND WROTE 10587813328. INTEGRALS IN  60679 RECORDS. CPU TIME:   179.43 SEC, REAL TIME:  2972.01 SEC
 SORT2 READ 10587813328. AND WROTE 14689922715. INTEGRALS IN 155460 RECORDS. CPU TIME:   324.34 SEC, REAL TIME:  4311.73 SEC

 FILE SIZES:   FILE 1: 40795.6 MBYTE,  FILE 4:127253.1 MBYTE,   TOTAL: 168048.8 MBYTE

 OPERATOR DM      FOR CENTER  0  COORDINATES:    0.000000    0.000000    0.000000


 **********************************************************************************************************************************
 DATASETS  * FILE   NREC   LENGTH (MB)   RECORD NAMES
              1      19    37754.71       500      610      700      900      950      970     1000      129      960     1100   
                                          VAR    BASINP    GEOM    SYMINP    ZMAT    AOBASIS   BASIS     P2S    ABASIS      S 
                                         1400     1410     1200     1210     1080     1600     1650     1300     1700   
                                           T        V       H0       H01     AOSYM     SMH    MOLCAS    ERIS     OPER   

 PROGRAMS   *        TOTAL       INT
 CPU TIMES  *      1128.02   1127.88
 REAL TIME  *      8018.87 SEC
 DISK USED  *       168.05 GB      
 **********************************************************************************************************************************

 Density functional group CS=CS1
 Functional: CS1(Colle-Salvetti (Gradient form))                               Gradient terms: 1
 Use grid at  1800.2

 Functional: CS1                       Factor:  1.0000

 Generated new metagrid on record  1800.2 with target accuracy 1.0D-06 and 58228 points in CPU time    1.6
 Computed new grid on record 1800.1 in CPU time    1.8
  469144 words reserved for DFT integration

 PROGRAM * UKS-SCF (Unrestricted Kohn-Sham)     Authors: W. Meyer, H.-J. Werner, P.J. Knowles, 1993

 NUMBER OF ELECTRONS:      21+   21-    SPACE SYMMETRY=1    SPIN SYMMETRY: Singlet 
 CONVERGENCE THRESHOLDS:    1.00E-05 (Density)    1.00E-06 (Energy)
 MAX. NUMBER OF ITERATIONS:       60
 INTERPOLATION TYPE:            DIIS
 INTERPOLATION STEPS:              2 (START)      1 (STEP)
 LEVEL SHIFTS:                 -0.20 (ALPHA)  -0.20 (BETA) 



 Use fine grid record 1800.2 for energy threshold  1.0D-06
 Orbital guess generated from atomic densities. Full valence occupancy:   21

 Molecular orbital dump at record        2200.2

 Initial alpha occupation  21
 Initial beta  occupation  21

 ITERATION    DDIFF          GRAD             ENERGY        2-EL.EN.            DIPOLE MOMENTS         DIIS
    1      0.000D+00      0.000D+00      -198.69188657    528.344792    2.82440    7.94553    0.00000    0
    2      0.686D+00      0.417D-02      -194.52179344    665.532132   -2.81589  -10.10101   -0.00000    1
    3      0.174D-01      0.843D-02      -201.25675023    617.716614   -0.13993   -3.42992    0.00000    2
    4      0.108D-01      0.280D-02      -202.11609433    598.906606   -0.13077   -2.01283    0.00000    3
    5      0.328D-02      0.102D-02      -202.26912605    592.646155    0.20926   -0.79780    0.00000    4
    6      0.107D-01      0.334D-03      -202.29371465    588.265062    0.33195   -0.08320   -0.00000    5
    7      0.537D-02      0.158D-03      -202.29787583    588.912227    0.26362   -0.22842    0.00000    6
    8      0.550D-02      0.571D-04      -202.29905599    589.319194    0.28636   -0.14837    0.00000    7
    9      0.302D-02      0.459D-04      -202.29956421    589.378082    0.27688   -0.17397    0.00000    8
   10      0.297D-02      0.128D-04      -202.29971159    589.487851    0.26935   -0.17641    0.00000    9
   11      0.904D-03      0.349D-05      -202.29972753    589.472726    0.26821   -0.17111   -0.00000    8
   12      0.413D-03      0.155D-05      -202.29973043    589.477068    0.26812   -0.17171   -0.00000    8
   13      0.101D-03      0.740D-06      -202.29973071    589.478502    0.26723   -0.17151   -0.00000    8
   14      0.480D-04      0.420D-06      -202.29973080    589.477091    0.26734   -0.17140   -0.00000    9
   15      0.131D-04      0.112D-06      -202.29973081    589.476649    0.26725   -0.17132   -0.00000    9
   16      0.857D-05      0.512D-07      -202.29973081    589.476864    0.26725   -0.17131   -0.00000    9
   17      0.320D-05      0.140D-07      -202.29973081    589.476849    0.26722   -0.17129   -0.00000    8
   18      0.748D-06      0.582D-08      -202.29973081    589.476823    0.26723   -0.17129   -0.00000    8

 Final alpha occupancy:  21
 Final beta  occupancy:  21

 !UKS STATE 1.1 Energy               -202.299730813020
 Nuclear energy                       198.77359127
 One-electron energy                 -694.48507350
 Two-electron energy                  294.73841152
 Density functional                    -1.32666010     CS1=-1.32666010
 Virial quotient                       -0.97280757
 !UKS STATE 1.1 Dipole moment           0.26722829    -0.17128750    -0.00000000
 Dipole moment /Debye                   0.67918209    -0.43534087    -0.00000000

 Orbital energies for positive spin:

         1.1          2.1          3.1          4.1          5.1          6.1          7.1          8.1          9.1         10.1
    -16.786882    -8.393275    -8.346018    -8.346017    -8.342704    -0.633312    -0.438369    -0.349322    -0.346947    -0.245045

        11.1         12.1         13.1         14.1         15.1         16.1         17.1         18.1         19.1         20.1
     -0.188284    -0.162529    -0.162071    -0.118615    -0.106334    -0.086100    -0.059572    -0.058899    -0.054593    -0.031064

        21.1         22.1         23.1
      0.016753     0.088279     0.121308

 Orbital energies for negative spin:

         1.1          2.1          3.1          4.1          5.1          6.1          7.1          8.1          9.1         10.1
    -16.786882    -8.393275    -8.346018    -8.346017    -8.342704    -0.633312    -0.438369    -0.349322    -0.346947    -0.245045

        11.1         12.1         13.1         14.1         15.1         16.1         17.1         18.1         19.1         20.1
     -0.188284    -0.162529    -0.162071    -0.118615    -0.106334    -0.086100    -0.059572    -0.058899    -0.054593    -0.031064

        21.1         22.1         23.1
      0.016753     0.088279     0.121308

 HOMO     21.1     0.016753 =       0.4559eV
 LUMO     22.1     0.088279 =       2.4022eV
 LUMO-HOMO         0.071527 =       1.9463eV

 EXPECTATION VALUE OF S**2:             0.00000000

 Natural orbitals saved to record    2200.2 (Orbital set 3)

 Orbital spaces for UNO-CAS (Min. occupation: 0.020  Max. occupation: 1.980):

 Closed:       21
 Active:        0


 **********************************************************************************************************************************
 DATASETS  * FILE   NREC   LENGTH (MB)   RECORD NAMES
              1      20    37756.57       500      610      700      900      950      970     1000      129      960     1100   
                                          VAR    BASINP    GEOM    SYMINP    ZMAT    AOBASIS   BASIS     P2S    ABASIS      S 
                                         1400     1410     1200     1210     1080     1600     1650     1300     1700     1800   
                                           T        V       H0       H01     AOSYM     SMH    MOLCAS    ERIS     OPER     GRID   

              2       5       16.83       700     1000      520     1800     2200   
                                         GEOM     BASIS   MCVARS    GRID      UKS  

 PROGRAMS   *        TOTAL       UKS       INT
 CPU TIMES  *      3688.30   2560.28   1127.88
 REAL TIME  *     14253.04 SEC
 DISK USED  *       168.05 GB      
 **********************************************************************************************************************************


 PROGRAM * Intrinsic Basis Bonding Analysis (IBBA)          Author: G. Knizia

 Molecular orbitals read from record     2200.2  Type=UKS/ALPHA (state 1.1)
 Fock matrix read from record            2200.2  Type=UKS/TOTAL (state 1.1)
 Orbital energies read from record       2200.2  Type=UKS/ALPHA (state 1.1)
 Density matrix read from record         2200.2  Type=UKS/CHARGE (state 1.1)

 Number of core orbitals:           5 (   5 )
 Number of closed-shell orbitals:  16 (  16 )

 Basis set MINAO-AUTO-PP generated.      Number of basis functions:   35 

 Polarized AO type:                A = (O Ot + (1-O)(1-Ot)) P12
 Orthogonalization method:         Symmetric (Loewdin)
 Localization functional:          L = sum[A,i] <i|n_A|i>^4 -> max

 Localization group 1:  21 orbitals, occupancy  2.000
 Iterative localization: IB/PM,    8 iter; Final gradient 0.38E-09

 Bond order analysis:       [THRPRINT= 0.020]

   CEN ATOM   CEN ATOM     WIBERG.BO      RENORM.BO
     1   C  -   2   C       0.984333       0.996986
     1   C  -   5   H       0.954388       0.968876
     1   C  -   6   H       0.946528       0.952258
     1   C  -   7   H       0.946528       0.952258
     1   C  -   3   O       0.032087       0.017749
     1   C  -   4   H       0.025861       0.032607
     1   C  -  15   H       0.021598       0.022835
     1   C  -  14   H       0.021598       0.022835

     2   C  -   8   C       0.989382       0.973498
     2   C  -   9   C       0.989382       0.973498
     2   C  -   1   C       0.984333       0.996986
     2   C  -   3   O       0.969328       0.938747

     3   O  -   2   C       0.969328       0.938747
     3   O  -   4   H       0.902011       0.930216
     3   O  -   9   C       0.054434       0.029341
     3   O  -   8   C       0.054434       0.029341
     3   O  -  13   H       0.037503       0.026498
     3   O  -  12   H       0.037503       0.026498
     3   O  -   1   C       0.032087       0.017749
     3   O  -   5   H       0.022048       0.016899

     4   H  -   3   O       0.902011       0.930216
     4   H  -   1   C       0.025861       0.032607

     5   H  -   1   C       0.954388       0.968876
     5   H  -   3   O       0.022048       0.016899

     6   H  -   1   C       0.946528       0.952258
     6   H  -   9   C       0.024462       0.025380

     7   H  -   1   C       0.946528       0.952258
     7   H  -   8   C       0.024462       0.025380

     8   C  -   2   C       0.989382       0.973498
     8   C  -  10   H       0.946609       0.950120
     8   C  -  14   H       0.946394       0.956929
     8   C  -  12   H       0.944466       0.949298
     8   C  -   3   O       0.054434       0.029341
     8   C  -  11   H       0.024611       0.025526
     8   C  -   7   H       0.024462       0.025380

     9   C  -   2   C       0.989382       0.973498
     9   C  -  11   H       0.946609       0.950120
     9   C  -  15   H       0.946394       0.956929
     9   C  -  13   H       0.944466       0.949298
     9   C  -   3   O       0.054434       0.029341
     9   C  -  10   H       0.024611       0.025526
     9   C  -   6   H       0.024462       0.025380

    10   H  -   8   C       0.946609       0.950120
    10   H  -   9   C       0.024611       0.025526

    11   H  -   9   C       0.946609       0.950120
    11   H  -   8   C       0.024611       0.025526

    12   H  -   8   C       0.944466       0.949298
    12   H  -   3   O       0.037503       0.026498

    13   H  -   9   C       0.944466       0.949298
    13   H  -   3   O       0.037503       0.026498

    14   H  -   8   C       0.946394       0.956929
    14   H  -   1   C       0.021598       0.022835

    15   H  -   9   C       0.946394       0.956929
    15   H  -   1   C       0.021598       0.022835


 Valency analysis:

   CEN ATOM   TOT.VALENCE
     1   C       3.965422
     2   C       3.950499
     3   O       2.135398
     4   H       0.954149
     5   H       0.995288
     6   H       0.995120
     7   H       0.995120
     8   C       3.966342
     9   C       3.966342
    10   H       0.995041
    11   H       0.995041
    12   H       0.995633
    13   H       0.995633
    14   H       0.996443
    15   H       0.996443

 Total charge composition:

   CEN ATOM         s          p       ELECTRONS ->P.CHARGE
     1   C       2.95236    3.27558      6.22794   -0.22794
     2   C       2.87397    2.86588      5.73985    0.26015
     3   O       3.58057    4.76277      8.34334   -0.34334
     4   H       0.78587                 0.78587    0.21413
     5   H       0.93136                 0.93136    0.06864
     6   H       0.93015                 0.93015    0.06985
     7   H       0.93015                 0.93015    0.06985
     8   C       2.97219    3.27962      6.25182   -0.25182
     9   C       2.97219    3.27962      6.25182   -0.25182
    10   H       0.92958                 0.92958    0.07042
    11   H       0.92958                 0.92958    0.07042
    12   H       0.93391                 0.93391    0.06609
    13   H       0.93391                 0.93391    0.06609
    14   H       0.94036                 0.94036    0.05964
    15   H       0.94036                 0.94036    0.05964

 Total charge composition, AO contributions:

   CEN ATOM SHL      SPHERICAL COMPONENTS
     1   C  1s       1.99691
     1   C  2s       0.95545
     1   C  2p       1.02411    1.12038    1.13109

     2   C  1s       1.99767
     2   C  2s       0.87630
     2   C  2p       1.01085    0.84156    1.01348

     3   O  1s       1.99869
     3   O  2s       1.58188
     3   O  2p       1.38477    1.47122    1.90677

     4   H  1s       0.78587

     5   H  1s       0.93136

     6   H  1s       0.93015

     7   H  1s       0.93015

     8   C  1s       1.99696
     8   C  2s       0.97524
     8   C  2p       1.10236    1.10947    1.06779

     9   C  1s       1.99696
     9   C  2s       0.97524
     9   C  2p       1.10236    1.10947    1.06779

    10   H  1s       0.92958

    11   H  1s       0.92958

    12   H  1s       0.93391

    13   H  1s       0.93391

    14   H  1s       0.94036

    15   H  1s       0.94036

 Summary of localized orbital composition:   [THRPRINT= 0.020]

   ORB  GRP  ORB.ENERGY      CENTERS/CHARGES
     1   1   -16.685581      O  3   2.000
     2   1    -8.321843      C  2   2.000
     3   1    -8.261036      C  9   2.000
     4   1    -8.261036      C  8   2.000
     5   1    -8.257491      C  1   2.000
     6   1    -0.414407      O  3   1.231   C  2   0.742   (other: 0.027)
     7   1    -0.387915      O  3   1.230   H  4   0.753
     8   1    -0.267378      C  1   0.998   C  2   0.953   (other: 0.049)
     9   1    -0.266468      C  8   1.022   C  2   0.947   (other: 0.031)
    10   1    -0.266468      C  9   1.022   C  2   0.947   (other: 0.031)
    11   1    -0.194098      O  3   1.964   (other: 0.036)
    12   1    -0.185721      C  8   1.048   H 14   0.926   (other: 0.026)
    13   1    -0.185721      C  9   1.048   H 15   0.926   (other: 0.026)
    14   1    -0.184671      C  9   1.064   H 13   0.913   (other: 0.024)
    15   1    -0.184671      C  8   1.064   H 12   0.913   (other: 0.024)
    16   1    -0.182427      C  1   1.059   H  5   0.918   (other: 0.023)
    17   1    -0.179976      C  9   1.069   H 11   0.911
    18   1    -0.179976      C  8   1.069   H 10   0.911
    19   1    -0.178072      C  1   1.067   H  6   0.912   (other: 0.021)
    20   1    -0.178072      C  1   1.067   H  7   0.912   (other: 0.021)
    21   1    -0.016180      O  3   1.907   C  2   0.028   (other: 0.066)

 Localized orbitals saved to record      2200.2  (orbital set 4)


 **********************************************************************************************************************************
 DATASETS  * FILE   NREC   LENGTH (MB)   RECORD NAMES
              1      20    37756.57       500      610      700      900      950      970     1000      129      960     1100   
                                          VAR    BASINP    GEOM    SYMINP    ZMAT    AOBASIS   BASIS     P2S    ABASIS      S 
                                         1400     1410     1200     1210     1080     1600     1650     1300     1700     1800   
                                           T        V       H0       H01     AOSYM     SMH    MOLCAS    ERIS     OPER     GRID   

              2       5       19.57       700     1000      520     1800     2200   
                                         GEOM     BASIS   MCVARS    GRID      UKS  

 PROGRAMS   *        TOTAL      IBBA       UKS       INT
 CPU TIMES  *      3688.75      0.45   2560.28   1127.88
 REAL TIME  *     14253.62 SEC
 DISK USED  *       168.05 GB      
 **********************************************************************************************************************************
 Molecular orbitals read from record     2200.2  Type=UKS/LOCAL(IBO)  
 Occupation numbers read from record     2200.2  Type=UKS/LOCAL(IBO)  
 Orbital energies read from record       2200.2  Type=UKS/LOCAL(IBO)  
 Redundancy group numbers read from rec  2200.2  Type=UKS/BETA (state 1.1)

 IBBA/QZVP energy=      0.000000000000

        UKS-SCF 
   -202.29973081
 **********************************************************************************************************************************
 Molpro calculation terminated
