
 Primary working directories    : /tmp/sb13343
 Secondary working directories  : /tmp/sb13343
 Wavefunction directory         : /tmp/sb13343/
 Main file repository           : /tmp/sb13343/

 SHA1      : b4a5b34a9e711420743f49e6833241d17c61fb3c
 NAME      : 2099.9.b4a5b34
 ARCHNAME  : linux/x86_64_openmp
 FC        : /cm/shared/languages/GCC-6.1/bin/gfortran
 BLASLIB   : -lblas
 id        : simonbennie

 Nodes     nprocs
 node35-028    1

 Using customized tuning parameters: mindgm=1; mindgv=20; mindgc=4; mindgr=1; noblas=0; minvec=7
 default implementation of scratch files=df  

 memory,500,m
 geomtyp=xyz
 nosym
 noorient
 geometry={
 C         -1.53233        0.02247        0.00000
 C         -0.00192        0.01421        0.00000
 O          0.37239        1.40356        0.00000
 H          1.34248        1.44036        0.00000
 H         -1.92991       -0.99819        0.00000
 H         -1.90797        0.54382       -0.88653
 H         -1.90797        0.54382        0.88653
 C          0.54303       -0.66466       -1.26580
 C          0.54303       -0.66466        1.26580
 H          0.17836       -0.14752       -2.15943
 H          0.17836       -0.14752        2.15943
 H          0.23752       -1.71600       -1.32280
 H          0.23752       -1.71600        1.32280
 H          1.64084       -0.63767       -1.28032
 H          1.64084       -0.63767        1.28032
 }
 basis={ default,SV(P) }
 {ks,D,direct;wf,42,1,0}
 {ibba,bonds=1}

 Variables initialized (895), CPU time= 0.00 sec
 Commands  initialized (725), CPU time= 0.01 sec, 591 directives.
 Default parameters read. Elapsed time= 0.07 sec

 Checking input...
 Passed
1


                                         ***  PROGRAM SYSTEM MOLPRO  ***
                                       Copyright, TTI GmbH Stuttgart, 2015
                                    Version 2099.9 linked May 26 2017 16:03:21


 **********************************************************************************************************************************
 LABEL *                                                                                 
  64 bit serial version                                                                  DATE: 12-Jun-17          TIME: 13:15:29  
 **********************************************************************************************************************************

 SHA1:             b4a5b34a9e711420743f49e6833241d17c61fb3c
 **********************************************************************************************************************************
 SETTING GEOMTYP        =    XYZ

 Variable memory set to  500000000 words,  buffer space 

 ZSYMEL=NOSYM

 SETTING BASIS          =    SV(P)


 Recomputing integrals since basis changed


 Using spherical harmonics

 Library entry C      S def2-SV(P)           selected for orbital group  1
 Library entry C      P def2-SV(P)           selected for orbital group  1
 Library entry C      D def2-SV(P)           selected for orbital group  1
 Library entry O      S def2-SV(P)           selected for orbital group  2
 Library entry O      P def2-SV(P)           selected for orbital group  2
 Library entry O      D def2-SV(P)           selected for orbital group  2
 Library entry H      S def2-SV(P)           selected for orbital group  3


 PROGRAM * SEWARD (Integral evaluation for generally contracted gaussian basis sets)     Author: Roland Lindh, 1990

 Geometry written to block  1 of record 700


 Point group  C1  



 ATOMIC COORDINATES

 NR  ATOM    CHARGE       X              Y              Z

   1  C       6.00   -2.895684032    0.042462146    0.000000000
   2  C       6.00   -0.003628274    0.026853008    0.000000000
   3  O       8.00    0.703715112    2.652343999    0.000000000
   4  H       1.00    2.536919528    2.721885921    0.000000000
   5  H       1.00   -3.647001345   -1.886305720    0.000000000
   6  H       1.00   -3.605540754    1.027670861   -1.675298901
   7  H       1.00   -3.605540754    1.027670861    1.675298901
   8  C       6.00    1.026177977   -1.256025366   -2.392015328
   9  C       6.00    1.026177977   -1.256025366    2.392015328
  10  H       1.00    0.337051552   -0.278772398   -4.080731285
  11  H       1.00    0.337051552   -0.278772398    4.080731285
  12  H       1.00    0.448847749   -3.242770030   -2.499729718
  13  H       1.00    0.448847749   -3.242770030    2.499729718
  14  H       1.00    3.100738214   -1.205021658   -2.419454152
  15  H       1.00    3.100738214   -1.205021658    2.419454152

 Bond lengths in Bohr (Angstrom)

 1-2  2.892097881  1-5  2.069933136  1-6  2.069096224  1-7  2.069096224  2-3  2.719106031
     ( 1.530432290)     ( 1.095361444)     ( 1.094918569)     ( 1.094918569)     ( 1.438888946)

  2- 8  2.903104402   2- 9  2.903104402   3- 4  1.834522965   8-10  2.069222119   8-12  2.071730422
       ( 1.536256691)       ( 1.536256691)       ( 0.970787746)       ( 1.094985190)       ( 1.096312526)

  8-14  2.075368508   9-11  2.069222119   9-13  2.071730422   9-15  2.075368508
       ( 1.098237719)       ( 1.094985190)       ( 1.096312526)       ( 1.098237719)

 Bond angles

  1-2-3  104.76902697   1-2-8  110.92255387   1-2-9  110.92255387   2-1-5  110.97328220

  2- 1- 6  110.22090701   2- 1- 7  110.22090701   2- 3- 4  107.25071562   2- 8-10  110.21836376

  2- 8-12  111.57747468   2- 8-14  110.77023896   2- 9-11  110.21836376   2- 9-13  111.57747468

  2- 9-15  110.77023896   3- 2- 8  109.53648747   3- 2- 9  109.53648747   5- 1- 6  108.61190457

  5- 1- 7  108.61190457   6- 1- 7  108.12870271   8- 2- 9  110.96453384  10- 8-12  108.52192632

 10- 8-14  108.08997829  11- 9-13  108.52192632  11- 9-15  108.08997829  12- 8-14  107.54424578

 13- 9-15  107.54424578

 NUCLEAR CHARGE:                   42
 NUMBER OF PRIMITIVE AOS:         165
 NUMBER OF SYMMETRY AOS:          160
 NUMBER OF CONTRACTIONS:           90   (  90A   )
 NUMBER OF CORE ORBITALS:           5   (   5A   )
 NUMBER OF VALENCE ORBITALS:       30   (  30A   )


 NUCLEAR REPULSION ENERGY  198.77359127


 Eigenvalues of metric

         1 0.179E-02 0.600E-02 0.603E-02 0.144E-01 0.286E-01 0.297E-01 0.300E-01 0.361E-01


 Contracted 2-electron integrals neglected if value below      1.0D-11
 AO integral compression algorithm  1   Integral accuracy      1.0D-11

     37.487 MB (compressed) written to integral file ( 49.6%)


 NUMBER OF SORTED TWO-ELECTRON INTEGRALS:    8386560.     BUFFER LENGTH:  32768
 NUMBER OF SEGMENTS:   1  SEGMENT LENGTH:    8386560      RECORD LENGTH: 524288

 Memory used in sort:       8.94 MW

 SORT1 READ     9478508. AND WROTE     7931434. INTEGRALS IN     23 RECORDS. CPU TIME:     0.10 SEC, REAL TIME:     0.21 SEC
 SORT2 READ     7931434. AND WROTE     8386560. INTEGRALS IN    143 RECORDS. CPU TIME:     0.22 SEC, REAL TIME:     0.29 SEC

 FILE SIZES:   FILE 1:    68.0 MBYTE,  FILE 4:    96.5 MBYTE,   TOTAL:    164.5 MBYTE

 OPERATOR DM      FOR CENTER  0  COORDINATES:    0.000000    0.000000    0.000000


 **********************************************************************************************************************************
 DATASETS  * FILE   NREC   LENGTH (MB)   RECORD NAMES
              1      19       63.39       500      610      700      900      950      970     1000      129      960     1100   
                                          VAR    BASINP    GEOM    SYMINP    ZMAT    AOBASIS   BASIS     P2S    ABASIS      S 
                                         1400     1410     1200     1210     1080     1600     1650     1300     1700   
                                           T        V       H0       H01     AOSYM     SMH    MOLCAS    ERIS     OPER   

 PROGRAMS   *        TOTAL       INT
 CPU TIMES  *         1.68      1.54
 REAL TIME  *         3.14 SEC
 DISK USED  *       165.03 MB      
 **********************************************************************************************************************************

 Density functional group D=DIRAC
 Functional: DIRAC(Automatically generated (new) DIRAC)                        Gradient terms: 0
 Use grid at  1800.2

 Functional: DIRAC                     Factor:  1.0000

 Generated new metagrid on record  1800.2 with target accuracy 1.0D-06 and 53396 points in CPU time    1.5
 Computed new grid on record 1800.1 in CPU time    1.7
   41619 words reserved for DFT integration

 PROGRAM * RKS-SCF (Restricted closed shell Kohn-Sham)     Authors: W. Meyer, H.-J. Werner, P.J. Knowles, 1993

 NUMBER OF ELECTRONS:      21+   21-    SPACE SYMMETRY=1    SPIN SYMMETRY: Singlet 
 CONVERGENCE THRESHOLDS:    1.00E-05 (Density)    1.00E-06 (Energy)
 MAX. NUMBER OF ITERATIONS:       60
 INTERPOLATION TYPE:            DIIS
 INTERPOLATION STEPS:              2 (START)      1 (STEP)
 LEVEL SHIFTS:                  0.00 (CLOSED)  0.00 (OPEN) 



 Use fine grid record 1800.2 for energy threshold  1.0D-06
 Orbital guess generated from atomic densities. Full valence occupancy:   21

 Molecular orbital dump at record        2100.2

 Initial occupancy:  21

 ITERATION    DDIFF          GRAD             ENERGY        2-EL.EN.            DIPOLE MOMENTS         DIIS   ORB.
    1      0.000D+00      0.000D+00      -228.47828400    637.863705    0.75766   -0.77187    0.00000    0    start
    2      0.000D+00      0.140D-01      -227.98846354    590.445328   -0.35328    0.39517   -0.00000    1    diag
    3      0.505D-01      0.222D-01      -228.77283702    621.615492    0.45049   -0.53405    0.00000    2    diag
    4      0.384D-01      0.181D-02      -228.77565560    619.900921    0.38894   -0.33066    0.00000    3    diag
    5      0.321D-02      0.107D-02      -228.77708511    620.016918    0.39594   -0.42738    0.00000    4    diag
    6      0.123D-02      0.226D-03      -228.77713497    620.073727    0.39688   -0.40485    0.00000    5    diag
    7      0.302D-03      0.989D-04      -228.77714630    620.062592    0.39767   -0.40733    0.00000    6    diag
    8      0.816D-04      0.820D-05      -228.77714640    620.071629    0.39754   -0.40907    0.00000    7    diag
    9      0.138D-04      0.261D-05      -228.77714641    620.072201    0.39760   -0.40864    0.00000    8    diag
   10      0.352D-05      0.762D-06      -228.77714641    620.072099    0.39771   -0.40856    0.00000    0    orth

 Final occupancy:  21

 !RKS STATE 1.1 Energy               -228.777146409815
 Nuclear energy                       198.77359127
 One-electron energy                 -708.43339960
 Two-electron energy                  310.03604962
 Density functional                   -29.15338770     DIRAC=-29.15338770
 Virial quotient                       -0.99523028
 !RKS STATE 1.1 Dipole moment           0.39770595    -0.40856151     0.00000000
 Dipole moment /Debye                   1.01080148    -1.03839175     0.00000000

 Orbital energies:

         1.1          2.1          3.1          4.1          5.1          6.1          7.1          8.1          9.1         10.1
    -18.517002    -9.763556    -9.693792    -9.693747    -9.687867    -0.855591    -0.651785    -0.563487    -0.562712    -0.457347

        11.1         12.1         13.1         14.1         15.1         16.1         17.1         18.1         19.1         20.1
     -0.388224    -0.354289    -0.352785    -0.313991    -0.302557    -0.284949    -0.270950    -0.259026    -0.254285    -0.222552

        21.1         22.1         23.1
     -0.165746     0.046492     0.096667

 HOMO     21.1    -0.165746 =      -4.5102eV
 LUMO     22.1     0.046492 =       1.2651eV
 LUMO-HOMO         0.212238 =       5.7753eV


 **********************************************************************************************************************************
 DATASETS  * FILE   NREC   LENGTH (MB)   RECORD NAMES
              1      20       65.10       500      610      700      900      950      970     1000      129      960     1100   
                                          VAR    BASINP    GEOM    SYMINP    ZMAT    AOBASIS   BASIS     P2S    ABASIS      S 
                                         1400     1410     1200     1210     1080     1600     1650     1300     1700     1800   
                                           T        V       H0       H01     AOSYM     SMH    MOLCAS    ERIS     OPER     GRID   

              2       5        3.17       700     1000      520     1800     2100   
                                         GEOM     BASIS   MCVARS    GRID      RKS  

 PROGRAMS   *        TOTAL        KS       INT
 CPU TIMES  *         7.59      5.91      1.54
 REAL TIME  *         9.99 SEC
 DISK USED  *       165.03 MB      
 **********************************************************************************************************************************


 PROGRAM * Intrinsic Basis Bonding Analysis (IBBA)          Author: G. Knizia

 Molecular orbitals read from record     2100.2  Type=RKS/CANONICAL (state 1.1)
 Fock matrix read from record            2100.2  Type=RKS/TOTAL (state 1.1)
 Orbital energies read from record       2100.2  Type=RKS/CANONICAL (state 1.1)
 Density matrix read from record         2100.2  Type=RKS/CHARGE (state 1.1)

 Number of core orbitals:           5 (   5 )
 Number of closed-shell orbitals:  16 (  16 )

 Basis set MINAO-AUTO-PP generated.      Number of basis functions:   35 

 Polarized AO type:                A = (O Ot + (1-O)(1-Ot)) P12
 Orthogonalization method:         Symmetric (Loewdin)
 Localization functional:          L = sum[A,i] <i|n_A|i>^4 -> max

 Localization group 1:  21 orbitals, occupancy  2.000
 Iterative localization: IB/PM,    7 iter; Final gradient 0.49E-08

 Bond order analysis:       [THRPRINT= 0.020]

   CEN ATOM   CEN ATOM     WIBERG.BO      RENORM.BO
     1   C  -   2   C       0.992718       0.990917
     1   C  -   5   H       0.960204       0.985005
     1   C  -   6   H       0.955195       0.978575
     1   C  -   7   H       0.955195       0.978575

     2   C  -   1   C       0.992718       0.990917
     2   C  -   9   C       0.992168       0.971100
     2   C  -   8   C       0.992168       0.971100
     2   C  -   3   O       0.948914       0.945653

     3   O  -   2   C       0.948914       0.945653
     3   O  -   4   H       0.878756       0.971275
     3   O  -   8   C       0.032681       0.016887
     3   O  -   9   C       0.032681       0.016887

     4   H  -   3   O       0.878756       0.971275

     5   H  -   1   C       0.960204       0.985005

     6   H  -   1   C       0.955195       0.978575

     7   H  -   1   C       0.955195       0.978575

     8   C  -   2   C       0.992168       0.971100
     8   C  -  14   H       0.959193       0.979370
     8   C  -  10   H       0.955825       0.978258
     8   C  -  12   H       0.955084       0.978058
     8   C  -   3   O       0.032681       0.016887

     9   C  -   2   C       0.992168       0.971100
     9   C  -  15   H       0.959193       0.979370
     9   C  -  11   H       0.955825       0.978258
     9   C  -  13   H       0.955084       0.978058
     9   C  -   3   O       0.032681       0.016887

    10   H  -   8   C       0.955825       0.978258

    11   H  -   9   C       0.955825       0.978258

    12   H  -   8   C       0.955084       0.978058

    13   H  -   9   C       0.955084       0.978058

    14   H  -   8   C       0.959193       0.979370

    15   H  -   9   C       0.959193       0.979370


 Valency analysis:

   CEN ATOM   TOT.VALENCE
     1   C       3.934241
     2   C       3.940798
     3   O       1.972983
     4   H       0.901668
     5   H       0.983034
     6   H       0.980672
     7   H       0.980672
     8   C       3.936772
     9   C       3.936772
    10   H       0.980727
    11   H       0.980727
    12   H       0.982127
    13   H       0.982127
    14   H       0.984820
    15   H       0.984820

 Total charge composition:

   CEN ATOM         s          p       ELECTRONS ->P.CHARGE
     1   C       3.00765    3.39644      6.40409   -0.40409
     2   C       2.90848    2.85234      5.76082    0.23918
     3   O       3.62305    4.88653      8.50958   -0.50958
     4   H       0.68642                 0.68642    0.31358
     5   H       0.86975                 0.86975    0.13025
     6   H       0.86098                 0.86098    0.13902
     7   H       0.86098                 0.86098    0.13902
     8   C       3.01508    3.40434      6.41942   -0.41942
     9   C       3.01508    3.40434      6.41942   -0.41942
    10   H       0.86117                 0.86117    0.13883
    11   H       0.86117                 0.86117    0.13883
    12   H       0.86631                 0.86631    0.13369
    13   H       0.86631                 0.86631    0.13369
    14   H       0.87679                 0.87679    0.12321
    15   H       0.87679                 0.87679    0.12321

 Total charge composition, AO contributions:

   CEN ATOM SHL      SPHERICAL COMPONENTS
     1   C  1s       1.99227
     1   C  2s       1.01538
     1   C  2p       1.05145    1.16612    1.17887

     2   C  1s       1.99374
     2   C  2s       0.91474
     2   C  2p       1.01929    0.81437    1.01868

     3   O  1s       1.99742
     3   O  2s       1.62563
     3   O  2p       1.45645    1.48241    1.94768

     4   H  1s       0.68642

     5   H  1s       0.86975

     6   H  1s       0.86098

     7   H  1s       0.86098

     8   C  1s       1.99236
     8   C  2s       1.02272
     8   C  2p       1.14818    1.15110    1.10506

     9   C  1s       1.99236
     9   C  2s       1.02272
     9   C  2p       1.14818    1.15110    1.10506

    10   H  1s       0.86117

    11   H  1s       0.86117

    12   H  1s       0.86631

    13   H  1s       0.86631

    14   H  1s       0.87679

    15   H  1s       0.87679

 Summary of localized orbital composition:   [THRPRINT= 0.020]

   ORB  GRP  ORB.ENERGY      CENTERS/CHARGES
     1   1   -18.380090      O  3   2.000
     2   1    -9.677547      C  2   2.000
     3   1    -9.587234      C  8   2.000
     4   1    -9.587234      C  9   2.000
     5   1    -9.580604      C  1   2.000
     6   1    -0.639356      O  3   1.317   H  4   0.673
     7   1    -0.606332      O  3   1.261   C  2   0.719
     8   1    -0.467180      C  9   1.010   C  2   0.972
     9   1    -0.467180      C  8   1.010   C  2   0.972
    10   1    -0.466185      C  1   0.991   C  2   0.981   (other: 0.028)
    11   1    -0.411409      O  3   1.978   (other: 0.022)
    12   1    -0.399540      C  8   1.118   H 14   0.868
    13   1    -0.399540      C  9   1.118   H 15   0.868
    14   1    -0.399215      C  9   1.129   H 13   0.855
    15   1    -0.399215      C  8   1.129   H 12   0.855
    16   1    -0.394594      C  1   1.123   H  5   0.861
    17   1    -0.393231      C  9   1.137   H 11   0.851
    18   1    -0.393231      C  8   1.137   H 10   0.851
    19   1    -0.387933      C  1   1.136   H  6   0.851
    20   1    -0.387933      C  1   1.136   H  7   0.851
    21   1    -0.191460      O  3   1.948   C  2   0.020   (other: 0.032)

 Localized orbitals saved to record      2100.2  (orbital set 2)


 **********************************************************************************************************************************
 DATASETS  * FILE   NREC   LENGTH (MB)   RECORD NAMES
              1      20       65.10       500      610      700      900      950      970     1000      129      960     1100   
                                          VAR    BASINP    GEOM    SYMINP    ZMAT    AOBASIS   BASIS     P2S    ABASIS      S 
                                         1400     1410     1200     1210     1080     1600     1650     1300     1700     1800   
                                           T        V       H0       H01     AOSYM     SMH    MOLCAS    ERIS     OPER     GRID   

              2       5        3.24       700     1000      520     1800     2100   
                                         GEOM     BASIS   MCVARS    GRID      RKS  

 PROGRAMS   *        TOTAL      IBBA        KS       INT
 CPU TIMES  *         7.63      0.04      5.91      1.54
 REAL TIME  *        10.16 SEC
 DISK USED  *       165.03 MB      
 **********************************************************************************************************************************
 Molecular orbitals read from record     2100.2  Type=RKS/LOCAL(IBO)  
 Occupation numbers read from record     2100.2  Type=RKS/LOCAL(IBO)  
 Orbital energies read from record       2100.2  Type=RKS/LOCAL(IBO)  
 Redundancy group numbers read from rec  2100.2  Type=RKS/LOCAL(IBO)  

 IBBA/SV(P) energy=      0.000000000000

        KS-SCF  
   -228.77714641
 **********************************************************************************************************************************
 Molpro calculation terminated
