
 Primary working directories    : /local
 Secondary working directories  : /local
 Wavefunction directory         : /local/
 Main file repository           : /local/

 SHA1      : b4a5b34a9e711420743f49e6833241d17c61fb3c
 NAME      : 2099.9.b4a5b34
 ARCHNAME  : linux/x86_64_openmp
 FC        : /cm/shared/languages/GCC-6.1/bin/gfortran
 BLASLIB   : -lblas
 id        : simonbennie

 Nodes     nprocs
 node36-006    1

 Using customized tuning parameters: mindgm=1; mindgv=20; mindgc=4; mindgr=1; noblas=0; minvec=7
 default implementation of scratch files=df  

 memory,500,m
 geomtyp=xyz
 nosym
 noorient
 geometry={
 C         -1.53233        0.02247        0.00000
 C         -0.00192        0.01421        0.00000
 O          0.37239        1.40356        0.00000
 H          1.34248        1.44036        0.00000
 H         -1.92991       -0.99819        0.00000
 H         -1.90797        0.54382       -0.88653
 H         -1.90797        0.54382        0.88653
 C          0.54303       -0.66466       -1.26580
 C          0.54303       -0.66466        1.26580
 H          0.17836       -0.14752       -2.15943
 H          0.17836       -0.14752        2.15943
 H          0.23752       -1.71600       -1.32280
 H          0.23752       -1.71600        1.32280
 H          1.64084       -0.63767       -1.28032
 H          1.64084       -0.63767        1.28032
 }
 basis={ default,avdz }
 {uks,VWN,direct;wf,42,1,0}
 {ibba,bonds=1}

 Variables initialized (895), CPU time= 0.00 sec
 Commands  initialized (725), CPU time= 0.02 sec, 591 directives.
 Default parameters read. Elapsed time= 0.08 sec

 Checking input...
 Passed
1


                                         ***  PROGRAM SYSTEM MOLPRO  ***
                                       Copyright, TTI GmbH Stuttgart, 2015
                                    Version 2099.9 linked May 26 2017 16:03:21


 **********************************************************************************************************************************
 LABEL *                                                                                 
  64 bit serial version                                                                  DATE: 12-Jun-17          TIME: 16:16:06  
 **********************************************************************************************************************************

 SHA1:             b4a5b34a9e711420743f49e6833241d17c61fb3c
 **********************************************************************************************************************************
 SETTING GEOMTYP        =    XYZ

 Variable memory set to  500000000 words,  buffer space 

 ZSYMEL=NOSYM

 SETTING BASIS          =    AVDZ


 Recomputing integrals since basis changed


 Using spherical harmonics

 Library entry C      S aug-cc-pVDZ          selected for orbital group  1
 Library entry C      P aug-cc-pVDZ          selected for orbital group  1
 Library entry C      D aug-cc-pVDZ          selected for orbital group  1
 Library entry O      S aug-cc-pVDZ          selected for orbital group  2
 Library entry O      P aug-cc-pVDZ          selected for orbital group  2
 Library entry O      D aug-cc-pVDZ          selected for orbital group  2
 Library entry H      S aug-cc-pVDZ          selected for orbital group  3
 Library entry H      P aug-cc-pVDZ          selected for orbital group  3


 PROGRAM * SEWARD (Integral evaluation for generally contracted gaussian basis sets)     Author: Roland Lindh, 1990

 Geometry written to block  1 of record 700


 Point group  C1  



 ATOMIC COORDINATES

 NR  ATOM    CHARGE       X              Y              Z

   1  C       6.00   -2.895684032    0.042462146    0.000000000
   2  C       6.00   -0.003628274    0.026853008    0.000000000
   3  O       8.00    0.703715112    2.652343999    0.000000000
   4  H       1.00    2.536919528    2.721885921    0.000000000
   5  H       1.00   -3.647001345   -1.886305720    0.000000000
   6  H       1.00   -3.605540754    1.027670861   -1.675298901
   7  H       1.00   -3.605540754    1.027670861    1.675298901
   8  C       6.00    1.026177977   -1.256025366   -2.392015328
   9  C       6.00    1.026177977   -1.256025366    2.392015328
  10  H       1.00    0.337051552   -0.278772398   -4.080731285
  11  H       1.00    0.337051552   -0.278772398    4.080731285
  12  H       1.00    0.448847749   -3.242770030   -2.499729718
  13  H       1.00    0.448847749   -3.242770030    2.499729718
  14  H       1.00    3.100738214   -1.205021658   -2.419454152
  15  H       1.00    3.100738214   -1.205021658    2.419454152

 Bond lengths in Bohr (Angstrom)

 1-2  2.892097881  1-5  2.069933136  1-6  2.069096224  1-7  2.069096224  2-3  2.719106031
     ( 1.530432290)     ( 1.095361444)     ( 1.094918569)     ( 1.094918569)     ( 1.438888946)

  2- 8  2.903104402   2- 9  2.903104402   3- 4  1.834522965   8-10  2.069222119   8-12  2.071730422
       ( 1.536256691)       ( 1.536256691)       ( 0.970787746)       ( 1.094985190)       ( 1.096312526)

  8-14  2.075368508   9-11  2.069222119   9-13  2.071730422   9-15  2.075368508
       ( 1.098237719)       ( 1.094985190)       ( 1.096312526)       ( 1.098237719)

 Bond angles

  1-2-3  104.76902697   1-2-8  110.92255387   1-2-9  110.92255387   2-1-5  110.97328220

  2- 1- 6  110.22090701   2- 1- 7  110.22090701   2- 3- 4  107.25071562   2- 8-10  110.21836376

  2- 8-12  111.57747468   2- 8-14  110.77023896   2- 9-11  110.21836376   2- 9-13  111.57747468

  2- 9-15  110.77023896   3- 2- 8  109.53648747   3- 2- 9  109.53648747   5- 1- 6  108.61190457

  5- 1- 7  108.61190457   6- 1- 7  108.12870271   8- 2- 9  110.96453384  10- 8-12  108.52192632

 10- 8-14  108.08997829  11- 9-13  108.52192632  11- 9-15  108.08997829  12- 8-14  107.54424578

 13- 9-15  107.54424578

 NUCLEAR CHARGE:                   42
 NUMBER OF PRIMITIVE AOS:         295
 NUMBER OF SYMMETRY AOS:          285
 NUMBER OF CONTRACTIONS:          205   ( 205A   )
 NUMBER OF CORE ORBITALS:           5   (   5A   )
 NUMBER OF VALENCE ORBITALS:       30   (  30A   )


 NUCLEAR REPULSION ENERGY  198.77359127


 Eigenvalues of metric

         1 0.151E-04 0.552E-04 0.579E-04 0.110E-03 0.111E-03 0.217E-03 0.237E-03 0.259E-03


 Contracted 2-electron integrals neglected if value below      1.0D-12
 AO integral compression algorithm  1   Integral accuracy      1.0D-12

     1203.503 MB (compressed) written to integral file ( 61.3%)


 NUMBER OF SORTED TWO-ELECTRON INTEGRALS:  222932170.     BUFFER LENGTH:  32768
 NUMBER OF SEGMENTS:  14  SEGMENT LENGTH:   15999503      RECORD LENGTH: 524288

 Memory used in sort:      16.56 MW

 SORT1 READ   245224724. AND WROTE   218324786. INTEGRALS IN    630 RECORDS. CPU TIME:     2.86 SEC, REAL TIME:     6.50 SEC
 SORT2 READ   218324786. AND WROTE   222932170. INTEGRALS IN   4591 RECORDS. CPU TIME:     4.36 SEC, REAL TIME:     6.09 SEC

 FILE SIZES:   FILE 1:  1235.3 MBYTE,  FILE 4:  2642.4 MBYTE,   TOTAL:   3877.7 MBYTE

 OPERATOR DM      FOR CENTER  0  COORDINATES:    0.000000    0.000000    0.000000


 **********************************************************************************************************************************
 DATASETS  * FILE   NREC   LENGTH (MB)   RECORD NAMES
              1      19     1149.90       500      610      700      900      950      970     1000      129      960     1100   
                                          VAR    BASINP    GEOM    SYMINP    ZMAT    AOBASIS   BASIS     P2S    ABASIS      S 
                                         1400     1410     1200     1210     1080     1600     1650     1300     1700   
                                           T        V       H0       H01     AOSYM     SMH    MOLCAS    ERIS     OPER   

 PROGRAMS   *        TOTAL       INT
 CPU TIMES  *        17.94     17.81
 REAL TIME  *        43.56 SEC
 DISK USED  *         3.88 GB      
 **********************************************************************************************************************************

 Density functional group VWN=VWN5
 Functional: VWN5(Automatically generated (new) VWN5)                          Gradient terms: 0
 Use grid at  1800.2

 Functional: VWN5                      Factor:  1.0000

 Generated new metagrid on record  1800.2 with target accuracy 1.0D-06 and 53396 points in CPU time    1.4
 Computed new grid on record 1800.1 in CPU time    1.6
   89184 words reserved for DFT integration

 PROGRAM * UKS-SCF (Unrestricted Kohn-Sham)     Authors: W. Meyer, H.-J. Werner, P.J. Knowles, 1993

 NUMBER OF ELECTRONS:      21+   21-    SPACE SYMMETRY=1    SPIN SYMMETRY: Singlet 
 CONVERGENCE THRESHOLDS:    1.00E-05 (Density)    1.00E-06 (Energy)
 MAX. NUMBER OF ITERATIONS:       60
 INTERPOLATION TYPE:            DIIS
 INTERPOLATION STEPS:              2 (START)      1 (STEP)
 LEVEL SHIFTS:                 -0.20 (ALPHA)  -0.20 (BETA) 



 Use fine grid record 1800.2 for energy threshold  1.0D-06
 Orbital guess generated from atomic densities. Full valence occupancy:   35

 Molecular orbital dump at record        2200.2

 Initial alpha occupation  21
 Initial beta  occupation  21

 ITERATION    DDIFF          GRAD             ENERGY        2-EL.EN.            DIPOLE MOMENTS         DIIS
    1      0.000D+00      0.000D+00      -197.13672068    498.944467    3.29739   10.98589   -0.00000    0
    2      0.108D+01      0.132D-01      -187.94602592    696.116876   -4.96089  -18.89331    0.00000    1
    3      0.775D-01      0.273D-01      -201.12247944    636.036098   -0.02589   -4.00963   -0.00000    2
    4      0.213D-01      0.107D-01      -202.54714097    611.637623   -0.43562   -3.33981   -0.00000    3
    5      0.194D-01      0.533D-02      -202.99939451    601.628783    0.03325   -1.67685   -0.00000    4
    6      0.138D-01      0.240D-02      -203.12407173    591.553835    0.35261   -0.34184   -0.00000    5
    7      0.115D-01      0.658D-03      -203.13179626    589.607963    0.22926   -0.44881    0.00000    6
    8      0.561D-02      0.441D-03      -203.13561884    590.640025    0.27365   -0.31248    0.00000    7
    9      0.418D-02      0.350D-03      -203.13793849    590.996965    0.28767   -0.32797    0.00000    8
   10      0.634D-02      0.166D-03      -203.13921059    591.350817    0.24552   -0.35074    0.00000    9
   11      0.285D-02      0.565D-04      -203.13945548    591.440640    0.24961   -0.34527    0.00000    8
   12      0.151D-02      0.144D-04      -203.13950705    591.419304    0.24105   -0.33816    0.00000    9
   13      0.106D-02      0.960D-05      -203.13952341    591.415215    0.24042   -0.33424    0.00000    9
   14      0.858D-03      0.583D-05      -203.13952909    591.406293    0.23842   -0.33155    0.00000    9
   15      0.592D-03      0.288D-05      -203.13953069    591.404382    0.23812   -0.33043   -0.00000    9
   16      0.390D-03      0.150D-05      -203.13953105    591.400174    0.23767   -0.33023   -0.00000    9
   17      0.101D-03      0.461D-06      -203.13953109    591.398596    0.23779   -0.32997   -0.00000    9
   18      0.364D-04      0.225D-06      -203.13953110    591.398528    0.23778   -0.33005   -0.00000    9
   19      0.897D-05      0.129D-06      -203.13953111    591.398066    0.23777   -0.33010   -0.00000    9
   20      0.347D-05      0.647D-07      -203.13953111    591.398242    0.23783   -0.33010   -0.00000    9

 Final alpha occupancy:  21
 Final beta  occupancy:  21

 !UKS STATE 1.1 Energy               -203.139531105641
 Nuclear energy                       198.77359127
 One-electron energy                 -695.04809154
 Two-electron energy                  295.69912081
 Density functional                    -2.56415165     VWN5=-2.56415165
 Virial quotient                       -0.91959074
 !UKS STATE 1.1 Dipole moment           0.23783059    -0.33010169    -0.00000000
 Dipole moment /Debye                   0.60446546    -0.83897986    -0.00000000

 Orbital energies for positive spin:

         1.1          2.1          3.1          4.1          5.1          6.1          7.1          8.1          9.1         10.1
    -16.695269    -8.298240    -8.250990    -8.250644    -8.245807    -0.671780    -0.469679    -0.379348    -0.377176    -0.278141

        11.1         12.1         13.1         14.1         15.1         16.1         17.1         18.1         19.1         20.1
     -0.219398    -0.193759    -0.193274    -0.149281    -0.136627    -0.116062    -0.088729    -0.088676    -0.084007    -0.062952

        21.1         22.1         23.1
     -0.017631     0.018500     0.034152

 Orbital energies for negative spin:

         1.1          2.1          3.1          4.1          5.1          6.1          7.1          8.1          9.1         10.1
    -16.695269    -8.298240    -8.250990    -8.250644    -8.245807    -0.671780    -0.469679    -0.379348    -0.377176    -0.278141

        11.1         12.1         13.1         14.1         15.1         16.1         17.1         18.1         19.1         20.1
     -0.219398    -0.193759    -0.193274    -0.149281    -0.136627    -0.116062    -0.088729    -0.088676    -0.084007    -0.062952

        21.1         22.1         23.1
     -0.017631     0.018500     0.034152

 HOMO     21.1    -0.017631 =      -0.4798eV
 LUMO     22.1     0.018500 =       0.5034eV
 LUMO-HOMO         0.036131 =       0.9832eV

 EXPECTATION VALUE OF S**2:            -0.00000000

 Natural orbitals saved to record    2200.2 (Orbital set 3)

 Orbital spaces for UNO-CAS (Min. occupation: 0.020  Max. occupation: 1.980):

 Closed:       21
 Active:        0


 **********************************************************************************************************************************
 DATASETS  * FILE   NREC   LENGTH (MB)   RECORD NAMES
              1      20     1151.61       500      610      700      900      950      970     1000      129      960     1100   
                                          VAR    BASINP    GEOM    SYMINP    ZMAT    AOBASIS   BASIS     P2S    ABASIS      S 
                                         1400     1410     1200     1210     1080     1600     1650     1300     1700     1800   
                                           T        V       H0       H01     AOSYM     SMH    MOLCAS    ERIS     OPER     GRID   

              2       5        4.72       700     1000      520     1800     2200   
                                         GEOM     BASIS   MCVARS    GRID      UKS  

 PROGRAMS   *        TOTAL       UKS       INT
 CPU TIMES  *        98.87     80.93     17.81
 REAL TIME  *       128.99 SEC
 DISK USED  *         3.88 GB      
 **********************************************************************************************************************************


 PROGRAM * Intrinsic Basis Bonding Analysis (IBBA)          Author: G. Knizia

 Molecular orbitals read from record     2200.2  Type=UKS/ALPHA (state 1.1)
 Fock matrix read from record            2200.2  Type=UKS/TOTAL (state 1.1)
 Orbital energies read from record       2200.2  Type=UKS/ALPHA (state 1.1)
 Density matrix read from record         2200.2  Type=UKS/CHARGE (state 1.1)

 Number of core orbitals:           5 (   5 )
 Number of closed-shell orbitals:  16 (  16 )

 Basis set MINAO-AUTO-PP generated.      Number of basis functions:   35 

 Polarized AO type:                A = (O Ot + (1-O)(1-Ot)) P12
 Orthogonalization method:         Symmetric (Loewdin)
 Localization functional:          L = sum[A,i] <i|n_A|i>^4 -> max

 Localization group 1:  21 orbitals, occupancy  2.000
 Iterative localization: IB/PM,    7 iter; Final gradient 0.86E-08

 Bond order analysis:       [THRPRINT= 0.020]

   CEN ATOM   CEN ATOM     WIBERG.BO      RENORM.BO
     1   C  -   2   C       0.985116       0.998158
     1   C  -   5   H       0.955176       0.970471
     1   C  -   7   H       0.947019       0.953156
     1   C  -   6   H       0.947019       0.953156
     1   C  -   3   O       0.031297       0.017308
     1   C  -   4   H       0.024688       0.031676
     1   C  -  14   H       0.021323       0.022624
     1   C  -  15   H       0.021323       0.022624

     2   C  -   8   C       0.990217       0.975897
     2   C  -   9   C       0.990217       0.975897
     2   C  -   1   C       0.985116       0.998158
     2   C  -   3   O       0.963149       0.934420

     3   O  -   2   C       0.963149       0.934420
     3   O  -   4   H       0.900168       0.932908
     3   O  -   9   C       0.052825       0.028625
     3   O  -   8   C       0.052825       0.028625
     3   O  -  12   H       0.035881       0.025344
     3   O  -  13   H       0.035881       0.025344
     3   O  -   1   C       0.031297       0.017308
     3   O  -   5   H       0.021430       0.016392

     4   H  -   3   O       0.900168       0.932908
     4   H  -   1   C       0.024688       0.031676

     5   H  -   1   C       0.955176       0.970471
     5   H  -   3   O       0.021430       0.016392

     6   H  -   1   C       0.947019       0.953156
     6   H  -   9   C       0.024120       0.025084

     7   H  -   1   C       0.947019       0.953156
     7   H  -   8   C       0.024120       0.025084

     8   C  -   2   C       0.990217       0.975897
     8   C  -  14   H       0.947098       0.957943
     8   C  -  10   H       0.946301       0.949653
     8   C  -  12   H       0.945474       0.951760
     8   C  -   3   O       0.052825       0.028625
     8   C  -  11   H       0.024570       0.025566
     8   C  -   7   H       0.024120       0.025084

     9   C  -   2   C       0.990217       0.975897
     9   C  -  15   H       0.947098       0.957943
     9   C  -  11   H       0.946301       0.949653
     9   C  -  13   H       0.945474       0.951760
     9   C  -   3   O       0.052825       0.028625
     9   C  -  10   H       0.024570       0.025566
     9   C  -   6   H       0.024120       0.025084

    10   H  -   8   C       0.946301       0.949653
    10   H  -   9   C       0.024570       0.025566

    11   H  -   9   C       0.946301       0.949653
    11   H  -   8   C       0.024570       0.025566

    12   H  -   8   C       0.945474       0.951760
    12   H  -   3   O       0.035881       0.025344

    13   H  -   9   C       0.945474       0.951760
    13   H  -   3   O       0.035881       0.025344

    14   H  -   8   C       0.947098       0.957943
    14   H  -   1   C       0.021323       0.022624

    15   H  -   9   C       0.947098       0.957943
    15   H  -   1   C       0.021323       0.022624


 Valency analysis:

   CEN ATOM   TOT.VALENCE
     1   C       3.964899
     2   C       3.947974
     3   O       2.119875
     4   H       0.949881
     5   H       0.995559
     6   H       0.995514
     7   H       0.995514
     8   C       3.965791
     9   C       3.965791
    10   H       0.995309
    11   H       0.995309
    12   H       0.995824
    13   H       0.995824
    14   H       0.996676
    15   H       0.996676

 Total charge composition:

   CEN ATOM         s          p       ELECTRONS ->P.CHARGE
     1   C       2.94235    3.27210      6.21445   -0.21445
     2   C       2.86936    2.87775      5.74712    0.25288
     3   O       3.57784    4.78456      8.36240   -0.36240
     4   H       0.77613                 0.77613    0.22387
     5   H       0.93336                 0.93336    0.06664
     6   H       0.93302                 0.93302    0.06698
     7   H       0.93302                 0.93302    0.06698
     8   C       2.96327    3.27774      6.24101   -0.24101
     9   C       2.96327    3.27774      6.24101   -0.24101
    10   H       0.93151                 0.93151    0.06849
    11   H       0.93151                 0.93151    0.06849
    12   H       0.93538                 0.93538    0.06462
    13   H       0.93538                 0.93538    0.06462
    14   H       0.94235                 0.94235    0.05765
    15   H       0.94235                 0.94235    0.05765

 Total charge composition, AO contributions:

   CEN ATOM SHL      SPHERICAL COMPONENTS
     1   C  1s       1.99735
     1   C  2s       0.94500
     1   C  2p       1.02227    1.12008    1.12974

     2   C  1s       1.99803
     2   C  2s       0.87133
     2   C  2p       1.01802    0.84099    1.01874

     3   O  1s       1.99879
     3   O  2s       1.57906
     3   O  2p       1.39663    1.47806    1.90987

     4   H  1s       0.77613

     5   H  1s       0.93336

     6   H  1s       0.93302

     7   H  1s       0.93302

     8   C  1s       1.99739
     8   C  2s       0.96589
     8   C  2p       1.10204    1.10979    1.06591

     9   C  1s       1.99739
     9   C  2s       0.96589
     9   C  2p       1.10204    1.10979    1.06591

    10   H  1s       0.93151

    11   H  1s       0.93151

    12   H  1s       0.93538

    13   H  1s       0.93538

    14   H  1s       0.94235

    15   H  1s       0.94235

 Summary of localized orbital composition:   [THRPRINT= 0.020]

   ORB  GRP  ORB.ENERGY      CENTERS/CHARGES
     1   1   -16.593740      O  3   2.000
     2   1    -8.226408      C  2   2.000
     3   1    -8.165962      C  8   2.000
     4   1    -8.165962      C  9   2.000
     5   1    -8.160791      C  1   2.000
     6   1    -0.452742      O  3   1.236   C  2   0.738   (other: 0.026)
     7   1    -0.428327      O  3   1.240   H  4   0.744
     8   1    -0.298339      C  9   1.018   C  2   0.951   (other: 0.031)
     9   1    -0.298339      C  8   1.018   C  2   0.951   (other: 0.031)
    10   1    -0.297330      C  1   0.993   C  2   0.959   (other: 0.048)
    11   1    -0.226389      O  3   1.965   (other: 0.035)
    12   1    -0.215253      C  8   1.046   H 14   0.928   (other: 0.026)
    13   1    -0.215253      C  9   1.046   H 15   0.928   (other: 0.026)
    14   1    -0.214336      C  8   1.061   H 12   0.915   (other: 0.024)
    15   1    -0.214336      C  9   1.061   H 13   0.915   (other: 0.024)
    16   1    -0.210681      C  1   1.057   H  5   0.920   (other: 0.023)
    17   1    -0.209108      C  9   1.067   H 11   0.913
    18   1    -0.209108      C  8   1.067   H 10   0.913
    19   1    -0.206514      C  1   1.064   H  7   0.916   (other: 0.021)
    20   1    -0.206514      C  1   1.064   H  6   0.916   (other: 0.021)
    21   1    -0.052013      O  3   1.910   C  2   0.026   (other: 0.064)

 Localized orbitals saved to record      2200.2  (orbital set 4)


 **********************************************************************************************************************************
 DATASETS  * FILE   NREC   LENGTH (MB)   RECORD NAMES
              1      20     1151.61       500      610      700      900      950      970     1000      129      960     1100   
                                          VAR    BASINP    GEOM    SYMINP    ZMAT    AOBASIS   BASIS     P2S    ABASIS      S 
                                         1400     1410     1200     1210     1080     1600     1650     1300     1700     1800   
                                           T        V       H0       H01     AOSYM     SMH    MOLCAS    ERIS     OPER     GRID   

              2       5        5.06       700     1000      520     1800     2200   
                                         GEOM     BASIS   MCVARS    GRID      UKS  

 PROGRAMS   *        TOTAL      IBBA       UKS       INT
 CPU TIMES  *        98.93      0.06     80.93     17.81
 REAL TIME  *       129.18 SEC
 DISK USED  *         3.88 GB      
 **********************************************************************************************************************************
 Molecular orbitals read from record     2200.2  Type=UKS/LOCAL(IBO)  
 Occupation numbers read from record     2200.2  Type=UKS/LOCAL(IBO)  
 Orbital energies read from record       2200.2  Type=UKS/LOCAL(IBO)  
 Redundancy group numbers read from rec  2200.2  Type=UKS/BETA (state 1.1)

 IBBA/aug-cc-pVDZ energy=      0.000000000000

        UKS-SCF 
   -203.13953111
 **********************************************************************************************************************************
 Molpro calculation terminated
