
 Primary working directories    : /local
 Secondary working directories  : /local
 Wavefunction directory         : /local/
 Main file repository           : /local/

 SHA1      : b4a5b34a9e711420743f49e6833241d17c61fb3c
 NAME      : 2099.9.b4a5b34
 ARCHNAME  : linux/x86_64_openmp
 FC        : /cm/shared/languages/GCC-6.1/bin/gfortran
 BLASLIB   : -lblas
 id        : simonbennie

 Nodes     nprocs
 node45-022    1

 Using customized tuning parameters: mindgm=1; mindgv=20; mindgc=4; mindgr=1; noblas=0; minvec=7
 default implementation of scratch files=df  

 memory,500,m
 geomtyp=xyz
 nosym
 noorient
 geometry={
 C         -1.53233        0.02247        0.00000
 C         -0.00192        0.01421        0.00000
 O          0.37239        1.40356        0.00000
 H          1.34248        1.44036        0.00000
 H         -1.92991       -0.99819        0.00000
 H         -1.90797        0.54382       -0.88653
 H         -1.90797        0.54382        0.88653
 C          0.54303       -0.66466       -1.26580
 C          0.54303       -0.66466        1.26580
 H          0.17836       -0.14752       -2.15943
 H          0.17836       -0.14752        2.15943
 H          0.23752       -1.71600       -1.32280
 H          0.23752       -1.71600        1.32280
 H          1.64084       -0.63767       -1.28032
 H          1.64084       -0.63767        1.28032
 }
 basis={ default,qzvp }
 {ks,B3LYP5,direct;wf,42,1,0}
 {ibba,bonds=1}

 Variables initialized (895), CPU time= 0.01 sec
 Commands  initialized (725), CPU time= 0.01 sec, 591 directives.
 Default parameters read. Elapsed time= 0.15 sec

 Checking input...
 Passed
1


                                         ***  PROGRAM SYSTEM MOLPRO  ***
                                       Copyright, TTI GmbH Stuttgart, 2015
                                    Version 2099.9 linked May 26 2017 16:03:21


 **********************************************************************************************************************************
 LABEL *                                                                                 
  64 bit serial version                                                                  DATE: 12-Jun-17          TIME: 18:55:46  
 **********************************************************************************************************************************

 SHA1:             b4a5b34a9e711420743f49e6833241d17c61fb3c
 **********************************************************************************************************************************
 SETTING GEOMTYP        =    XYZ

 Variable memory set to  500000000 words,  buffer space 

 ZSYMEL=NOSYM

 SETTING BASIS          =    QZVP


 Recomputing integrals since basis changed


 Using spherical harmonics

 Library entry C      S def2-QZVP            selected for orbital group  1
 Library entry C      P def2-QZVP            selected for orbital group  1
 Library entry C      D def2-QZVP            selected for orbital group  1
 Library entry C      F def2-QZVP            selected for orbital group  1
 Library entry C      G def2-QZVP            selected for orbital group  1
 Library entry O      S def2-QZVP            selected for orbital group  2
 Library entry O      P def2-QZVP            selected for orbital group  2
 Library entry O      D def2-QZVP            selected for orbital group  2
 Library entry O      F def2-QZVP            selected for orbital group  2
 Library entry O      G def2-QZVP            selected for orbital group  2
 Library entry H      S def2-QZVP            selected for orbital group  3
 Library entry H      P def2-QZVP            selected for orbital group  3
 Library entry H      D def2-QZVP            selected for orbital group  3
 Library entry H      F def2-QZVP            selected for orbital group  3


 PROGRAM * SEWARD (Integral evaluation for generally contracted gaussian basis sets)     Author: Roland Lindh, 1990

 Geometry written to block  1 of record 700


 Point group  C1  



 ATOMIC COORDINATES

 NR  ATOM    CHARGE       X              Y              Z

   1  C       6.00   -2.895684032    0.042462146    0.000000000
   2  C       6.00   -0.003628274    0.026853008    0.000000000
   3  O       8.00    0.703715112    2.652343999    0.000000000
   4  H       1.00    2.536919528    2.721885921    0.000000000
   5  H       1.00   -3.647001345   -1.886305720    0.000000000
   6  H       1.00   -3.605540754    1.027670861   -1.675298901
   7  H       1.00   -3.605540754    1.027670861    1.675298901
   8  C       6.00    1.026177977   -1.256025366   -2.392015328
   9  C       6.00    1.026177977   -1.256025366    2.392015328
  10  H       1.00    0.337051552   -0.278772398   -4.080731285
  11  H       1.00    0.337051552   -0.278772398    4.080731285
  12  H       1.00    0.448847749   -3.242770030   -2.499729718
  13  H       1.00    0.448847749   -3.242770030    2.499729718
  14  H       1.00    3.100738214   -1.205021658   -2.419454152
  15  H       1.00    3.100738214   -1.205021658    2.419454152

 Bond lengths in Bohr (Angstrom)

 1-2  2.892097881  1-5  2.069933136  1-6  2.069096224  1-7  2.069096224  2-3  2.719106031
     ( 1.530432290)     ( 1.095361444)     ( 1.094918569)     ( 1.094918569)     ( 1.438888946)

  2- 8  2.903104402   2- 9  2.903104402   3- 4  1.834522965   8-10  2.069222119   8-12  2.071730422
       ( 1.536256691)       ( 1.536256691)       ( 0.970787746)       ( 1.094985190)       ( 1.096312526)

  8-14  2.075368508   9-11  2.069222119   9-13  2.071730422   9-15  2.075368508
       ( 1.098237719)       ( 1.094985190)       ( 1.096312526)       ( 1.098237719)

 Bond angles

  1-2-3  104.76902697   1-2-8  110.92255387   1-2-9  110.92255387   2-1-5  110.97328220

  2- 1- 6  110.22090701   2- 1- 7  110.22090701   2- 3- 4  107.25071562   2- 8-10  110.21836376

  2- 8-12  111.57747468   2- 8-14  110.77023896   2- 9-11  110.21836376   2- 9-13  111.57747468

  2- 9-15  110.77023896   3- 2- 8  109.53648747   3- 2- 9  109.53648747   5- 1- 6  108.61190457

  5- 1- 7  108.61190457   6- 1- 7  108.12870271   8- 2- 9  110.96453384  10- 8-12  108.52192632

 10- 8-14  108.08997829  11- 9-13  108.52192632  11- 9-15  108.08997829  12- 8-14  107.54424578

 13- 9-15  107.54424578

 NUCLEAR CHARGE:                   42
 NUMBER OF PRIMITIVE AOS:         840
 NUMBER OF SYMMETRY AOS:          715
 NUMBER OF CONTRACTIONS:          585   ( 585A   )
 NUMBER OF CORE ORBITALS:           5   (   5A   )
 NUMBER OF VALENCE ORBITALS:       30   (  30A   )


 NUCLEAR REPULSION ENERGY  198.77359127


 Eigenvalues of metric

         1 0.447E-04 0.459E-04 0.470E-04 0.743E-04 0.823E-04 0.917E-04 0.943E-04 0.107E-03


 Contracted 2-electron integrals neglected if value below      1.0D-12
 AO integral compression algorithm  1   Integral accuracy      1.0D-12

     40752.906 MB (compressed) written to integral file ( 33.4%)


 NUMBER OF SORTED TWO-ELECTRON INTEGRALS:14689922715.     BUFFER LENGTH:  32768
 NUMBER OF SEGMENTS: 184  SEGMENT LENGTH:   79999773      RECORD LENGTH: 262144

 Memory used in sort:      80.29 MW

 SORT1 READ 15248138275. AND WROTE 10587813328. INTEGRALS IN  60679 RECORDS. CPU TIME:   188.63 SEC, REAL TIME:  1885.95 SEC
 SORT2 READ 10587813328. AND WROTE 14689922715. INTEGRALS IN 155460 RECORDS. CPU TIME:   324.03 SEC, REAL TIME:  2391.98 SEC

 FILE SIZES:   FILE 1: 40795.6 MBYTE,  FILE 4:127253.1 MBYTE,   TOTAL: 168048.8 MBYTE

 OPERATOR DM      FOR CENTER  0  COORDINATES:    0.000000    0.000000    0.000000


 **********************************************************************************************************************************
 DATASETS  * FILE   NREC   LENGTH (MB)   RECORD NAMES
              1      19    37754.71       500      610      700      900      950      970     1000      129      960     1100   
                                          VAR    BASINP    GEOM    SYMINP    ZMAT    AOBASIS   BASIS     P2S    ABASIS      S 
                                         1400     1410     1200     1210     1080     1600     1650     1300     1700   
                                           T        V       H0       H01     AOSYM     SMH    MOLCAS    ERIS     OPER   

 PROGRAMS   *        TOTAL       INT
 CPU TIMES  *      1178.61   1178.45
 REAL TIME  *      5027.25 SEC
 DISK USED  *       168.05 GB      
 **********************************************************************************************************************************

 Density functional group B3LYP5=B88+DIRAC+LYP+VWN5
 Functional: B88(Automatically generated (new) B88)                            Gradient terms: 1
 Functional: DIRAC(Automatically generated (new) DIRAC)                        Gradient terms: 0
 Functional: LYP(Automatically generated (new) LYP)                            Gradient terms: 1
 Functional: VWN5(Automatically generated (new) VWN5)                          Gradient terms: 0
 Use grid at  1800.2


 Exact exchange will be calculated, factor:  0.2000

 Functional: B88                       Factor:  0.7200
 Functional: DIRAC                     Factor:  0.0800
 Functional: LYP                       Factor:  0.8100
 Functional: VWN5                      Factor:  0.1900

 Generated new metagrid on record  1800.2 with target accuracy 1.0D-06 and 58228 points in CPU time    1.7
 Computed new grid on record 1800.1 in CPU time    1.9
  469144 words reserved for DFT integration

 PROGRAM * RKS-SCF (Restricted closed shell Kohn-Sham)     Authors: W. Meyer, H.-J. Werner, P.J. Knowles, 1993

 NUMBER OF ELECTRONS:      21+   21-    SPACE SYMMETRY=1    SPIN SYMMETRY: Singlet 
 CONVERGENCE THRESHOLDS:    1.00E-05 (Density)    1.00E-06 (Energy)
 MAX. NUMBER OF ITERATIONS:       60
 INTERPOLATION TYPE:            DIIS
 INTERPOLATION STEPS:              2 (START)      1 (STEP)
 LEVEL SHIFTS:                  0.00 (CLOSED)  0.00 (OPEN) 



 Use fine grid record 1800.2 for energy threshold  1.0D-06
 Orbital guess generated from atomic densities. Full valence occupancy:   21

 Molecular orbital dump at record        2100.2

 Initial occupancy:  21

 ITERATION    DDIFF          GRAD             ENERGY        2-EL.EN.            DIPOLE MOMENTS         DIIS   ORB.
    1      0.000D+00      0.000D+00      -233.41171502    624.394905    0.69964   -0.83813    0.00000    0    start
    2      0.000D+00      0.445D-02      -233.23096549    587.240072   -0.27900   -0.01922    0.00000    1    diag
    3      0.517D-02      0.604D-02      -233.63518310    609.892406    0.37943   -0.64709    0.00000    2    diag
    4      0.432D-02      0.771D-03      -233.63999909    608.991931    0.33673   -0.48109    0.00000    3    diag
    5      0.257D-03      0.236D-03      -233.64046047    608.848914    0.33445   -0.54213    0.00000    4    diag
    6      0.672D-04      0.668D-04      -233.64050317    608.972409    0.33673   -0.53123    0.00000    5    diag
    7      0.173D-04      0.195D-04      -233.64050663    608.958341    0.33739   -0.52974    0.00000    6    diag
    8      0.383D-05      0.206D-05      -233.64050668    608.964426    0.33721   -0.53124    0.00000    7    diag
    9      0.119D-05      0.590D-06      -233.64050668    608.963457    0.33736   -0.53050    0.00000    0    orth

 Final occupancy:  21

 !RKS STATE 1.1 Energy               -233.640506679395
 Nuclear energy                       198.77359127
 One-electron energy                 -709.48160289
 Two-electron energy                  304.48172848
 SCF exchange energy                  -32.49539238     Factor= 0.2000
 Density functional                   -27.41422354     B88=-32.56799706 DIRAC=-29.34725465 LYP= -1.37439123 VWN5= -2.65383365
 Virial quotient                       -1.00499610
 !RKS STATE 1.1 Dipole moment           0.33736234    -0.53050050     0.00000000
 Dipole moment /Debye                   0.85743339    -1.34830945     0.00000000

 Orbital energies:

         1.1          2.1          3.1          4.1          5.1          6.1          7.1          8.1          9.1         10.1
    -19.119862   -10.231778   -10.162942   -10.162939   -10.157618    -1.016747    -0.786627    -0.691022    -0.689905    -0.568327

        11.1         12.1         13.1         14.1         15.1         16.1         17.1         18.1         19.1         20.1
     -0.489429    -0.452034    -0.449258    -0.413023    -0.398460    -0.380580    -0.367402    -0.356589    -0.349528    -0.321508

        21.1         22.1         23.1
     -0.274430     0.007208     0.043482

 HOMO     21.1    -0.274430 =      -7.4676eV
 LUMO     22.1     0.007208 =       0.1961eV
 LUMO-HOMO         0.281637 =       7.6637eV


 **********************************************************************************************************************************
 DATASETS  * FILE   NREC   LENGTH (MB)   RECORD NAMES
              1      20    37756.57       500      610      700      900      950      970     1000      129      960     1100   
                                          VAR    BASINP    GEOM    SYMINP    ZMAT    AOBASIS   BASIS     P2S    ABASIS      S 
                                         1400     1410     1200     1210     1080     1600     1650     1300     1700     1800   
                                           T        V       H0       H01     AOSYM     SMH    MOLCAS    ERIS     OPER     GRID   

              2       5        9.95       700     1000      520     1800     2100   
                                         GEOM     BASIS   MCVARS    GRID      RKS  

 PROGRAMS   *        TOTAL        KS       INT
 CPU TIMES  *      3569.46   2390.86   1178.45
 REAL TIME  *      7742.28 SEC
 DISK USED  *       168.05 GB      
 **********************************************************************************************************************************


 PROGRAM * Intrinsic Basis Bonding Analysis (IBBA)          Author: G. Knizia

 Molecular orbitals read from record     2100.2  Type=RKS/CANONICAL (state 1.1)
 Fock matrix read from record            2100.2  Type=RKS/TOTAL (state 1.1)
 Orbital energies read from record       2100.2  Type=RKS/CANONICAL (state 1.1)
 Density matrix read from record         2100.2  Type=RKS/CHARGE (state 1.1)

 Number of core orbitals:           5 (   5 )
 Number of closed-shell orbitals:  16 (  16 )

 Basis set MINAO-AUTO-PP generated.      Number of basis functions:   35 

 Polarized AO type:                A = (O Ot + (1-O)(1-Ot)) P12
 Orthogonalization method:         Symmetric (Loewdin)
 Localization functional:          L = sum[A,i] <i|n_A|i>^4 -> max

 Localization group 1:  21 orbitals, occupancy  2.000
 Iterative localization: IB/PM,    7 iter; Final gradient 0.28E-08

 Bond order analysis:       [THRPRINT= 0.020]

   CEN ATOM   CEN ATOM     WIBERG.BO      RENORM.BO
     1   C  -   2   C       0.996351       0.994021
     1   C  -   5   H       0.963804       0.987170
     1   C  -   6   H       0.959094       0.981711
     1   C  -   7   H       0.959094       0.981711

     2   C  -   1   C       0.996351       0.994021
     2   C  -   9   C       0.995231       0.976572
     2   C  -   8   C       0.995231       0.976572
     2   C  -   3   O       0.931188       0.950385

     3   O  -   2   C       0.931188       0.950385
     3   O  -   4   H       0.861696       0.976178
     3   O  -   9   C       0.027286       0.013954
     3   O  -   8   C       0.027286       0.013954

     4   H  -   3   O       0.861696       0.976178

     5   H  -   1   C       0.963804       0.987170

     6   H  -   1   C       0.959094       0.981711

     7   H  -   1   C       0.959094       0.981711

     8   C  -   2   C       0.995231       0.976572
     8   C  -  14   H       0.963239       0.982417
     8   C  -  12   H       0.959633       0.981638
     8   C  -  10   H       0.959574       0.981553
     8   C  -   3   O       0.027286       0.013954

     9   C  -   2   C       0.995231       0.976572
     9   C  -  15   H       0.963239       0.982417
     9   C  -  13   H       0.959633       0.981638
     9   C  -  11   H       0.959574       0.981553
     9   C  -   3   O       0.027286       0.013954

    10   H  -   8   C       0.959574       0.981553

    11   H  -   9   C       0.959574       0.981553

    12   H  -   8   C       0.959633       0.981638

    13   H  -   9   C       0.959633       0.981638

    14   H  -   8   C       0.963239       0.982417

    15   H  -   9   C       0.963239       0.982417


 Valency analysis:

   CEN ATOM   TOT.VALENCE
     1   C       3.937589
     2   C       3.928101
     3   O       1.913674
     4   H       0.881305
     5   H       0.982267
     6   H       0.979609
     7   H       0.979609
     8   C       3.940166
     9   C       3.940166
    10   H       0.979611
    11   H       0.979611
    12   H       0.981452
    13   H       0.981452
    14   H       0.983704
    15   H       0.983704

 Total charge composition:

   CEN ATOM         s          p       ELECTRONS ->P.CHARGE
     1   C       3.04164    3.36950      6.41115   -0.41115
     2   C       2.93852    2.80022      5.73875    0.26125
     3   O       3.64833    4.92960      8.57793   -0.57793
     4   H       0.65548                 0.65548    0.34452
     5   H       0.86684                 0.86684    0.13316
     6   H       0.85720                 0.85720    0.14280
     7   H       0.85720                 0.85720    0.14280
     8   C       3.04804    3.37633      6.42437   -0.42437
     9   C       3.04804    3.37633      6.42437   -0.42437
    10   H       0.85721                 0.85721    0.14279
    11   H       0.85721                 0.85721    0.14279
    12   H       0.86381                 0.86381    0.13619
    13   H       0.86381                 0.86381    0.13619
    14   H       0.87235                 0.87235    0.12765
    15   H       0.87235                 0.87235    0.12765

 Total charge composition, AO contributions:

   CEN ATOM SHL      SPHERICAL COMPONENTS
     1   C  1s       1.99120
     1   C  2s       1.05045
     1   C  2p       1.03751    1.15973    1.17227

     2   C  1s       1.99282
     2   C  2s       0.94570
     2   C  2p       1.00710    0.78316    1.00996

     3   O  1s       1.99715
     3   O  2s       1.65118
     3   O  2p       1.47588    1.49679    1.95692

     4   H  1s       0.65548

     5   H  1s       0.86684

     6   H  1s       0.85720

     7   H  1s       0.85720

     8   C  1s       1.99130
     8   C  2s       1.05674
     8   C  2p       1.14195    1.14174    1.09263

     9   C  1s       1.99130
     9   C  2s       1.05674
     9   C  2p       1.14195    1.14174    1.09263

    10   H  1s       0.85721

    11   H  1s       0.85721

    12   H  1s       0.86381

    13   H  1s       0.86381

    14   H  1s       0.87235

    15   H  1s       0.87235

 Summary of localized orbital composition:   [THRPRINT= 0.020]

   ORB  GRP  ORB.ENERGY      CENTERS/CHARGES
     1   1   -18.959638      O  3   2.000
     2   1   -10.139762      C  2   2.000
     3   1   -10.047809      C  9   2.000
     4   1   -10.047809      C  8   2.000
     5   1   -10.041696      C  1   2.000
     6   1    -0.762122      O  3   1.347   H  4   0.644
     7   1    -0.719815      O  3   1.289   C  2   0.693
     8   1    -0.576848      O  3   1.982
     9   1    -0.573994      C  8   1.007   C  2   0.978
    10   1    -0.573994      C  9   1.007   C  2   0.978
    11   1    -0.573214      C  1   0.990   C  2   0.987   (other: 0.023)
    12   1    -0.506423      C  8   1.132   H 12   0.854
    13   1    -0.506423      C  9   1.132   H 13   0.854
    14   1    -0.504569      C  8   1.123   H 14   0.865
    15   1    -0.504569      C  9   1.123   H 15   0.865
    16   1    -0.502051      C  1   1.127   H  5   0.860
    17   1    -0.500454      C  9   1.140   H 11   0.849
    18   1    -0.500454      C  8   1.140   H 10   0.849
    19   1    -0.495697      C  1   1.140   H  6   0.849
    20   1    -0.495697      C  1   1.140   H  7   0.849
    21   1    -0.306973      O  3   1.957   (other: 0.043)

 Localized orbitals saved to record      2100.2  (orbital set 2)


 **********************************************************************************************************************************
 DATASETS  * FILE   NREC   LENGTH (MB)   RECORD NAMES
              1      20    37756.57       500      610      700      900      950      970     1000      129      960     1100   
                                          VAR    BASINP    GEOM    SYMINP    ZMAT    AOBASIS   BASIS     P2S    ABASIS      S 
                                         1400     1410     1200     1210     1080     1600     1650     1300     1700     1800   
                                           T        V       H0       H01     AOSYM     SMH    MOLCAS    ERIS     OPER     GRID   

              2       5       12.70       700     1000      520     1800     2100   
                                         GEOM     BASIS   MCVARS    GRID      RKS  

 PROGRAMS   *        TOTAL      IBBA        KS       INT
 CPU TIMES  *      3569.92      0.46   2390.86   1178.45
 REAL TIME  *      7742.86 SEC
 DISK USED  *       168.05 GB      
 **********************************************************************************************************************************
 Molecular orbitals read from record     2100.2  Type=RKS/LOCAL(IBO)  
 Occupation numbers read from record     2100.2  Type=RKS/LOCAL(IBO)  
 Orbital energies read from record       2100.2  Type=RKS/LOCAL(IBO)  
 Redundancy group numbers read from rec  2100.2  Type=RKS/LOCAL(IBO)  

 IBBA/QZVP energy=      0.000000000000

        KS-SCF  
   -233.64050668
 **********************************************************************************************************************************
 Molpro calculation terminated
