
 Primary working directories    : /local
 Secondary working directories  : /local
 Wavefunction directory         : /local/
 Main file repository           : /local/

 SHA1      : b4a5b34a9e711420743f49e6833241d17c61fb3c
 NAME      : 2099.9.b4a5b34
 ARCHNAME  : linux/x86_64_openmp
 FC        : /cm/shared/languages/GCC-6.1/bin/gfortran
 BLASLIB   : -lblas
 id        : simonbennie

 Nodes     nprocs
 node35-038    1

 Using customized tuning parameters: mindgm=1; mindgv=20; mindgc=4; mindgr=1; noblas=0; minvec=7
 default implementation of scratch files=df  

 memory,500,m
 geomtyp=xyz
 nosym
 noorient
 geometry={
 C         -1.53233        0.02247        0.00000
 C         -0.00192        0.01421        0.00000
 O          0.37239        1.40356        0.00000
 H          1.34248        1.44036        0.00000
 H         -1.92991       -0.99819        0.00000
 H         -1.90797        0.54382       -0.88653
 H         -1.90797        0.54382        0.88653
 C          0.54303       -0.66466       -1.26580
 C          0.54303       -0.66466        1.26580
 H          0.17836       -0.14752       -2.15943
 H          0.17836       -0.14752        2.15943
 H          0.23752       -1.71600       -1.32280
 H          0.23752       -1.71600        1.32280
 H          1.64084       -0.63767       -1.28032
 H          1.64084       -0.63767        1.28032
 }
 basis={ default,avtz }
 {ks,B-LYP,direct;wf,42,1,0}
 {ibba,bonds=1}

 Variables initialized (895), CPU time= 0.01 sec
 Commands  initialized (725), CPU time= 0.01 sec, 591 directives.
 Default parameters read. Elapsed time= 4.81 sec

 Checking input...
 Passed
1


                                         ***  PROGRAM SYSTEM MOLPRO  ***
                                       Copyright, TTI GmbH Stuttgart, 2015
                                    Version 2099.9 linked May 26 2017 16:03:21


 **********************************************************************************************************************************
 LABEL *                                                                                 
  64 bit serial version                                                                  DATE: 12-Jun-17          TIME: 15:14:44  
 **********************************************************************************************************************************

 SHA1:             b4a5b34a9e711420743f49e6833241d17c61fb3c
 **********************************************************************************************************************************
 SETTING GEOMTYP        =    XYZ

 Variable memory set to  500000000 words,  buffer space 

 ZSYMEL=NOSYM

 SETTING BASIS          =    AVTZ


 Recomputing integrals since basis changed


 Using spherical harmonics

 Library entry C      S aug-cc-pVTZ          selected for orbital group  1
 Library entry C      P aug-cc-pVTZ          selected for orbital group  1
 Library entry C      D aug-cc-pVTZ          selected for orbital group  1
 Library entry C      F aug-cc-pVTZ          selected for orbital group  1
 Library entry O      S aug-cc-pVTZ          selected for orbital group  2
 Library entry O      P aug-cc-pVTZ          selected for orbital group  2
 Library entry O      D aug-cc-pVTZ          selected for orbital group  2
 Library entry O      F aug-cc-pVTZ          selected for orbital group  2
 Library entry H      S aug-cc-pVTZ          selected for orbital group  3
 Library entry H      P aug-cc-pVTZ          selected for orbital group  3
 Library entry H      D aug-cc-pVTZ          selected for orbital group  3


 PROGRAM * SEWARD (Integral evaluation for generally contracted gaussian basis sets)     Author: Roland Lindh, 1990

 Geometry written to block  1 of record 700


 Point group  C1  



 ATOMIC COORDINATES

 NR  ATOM    CHARGE       X              Y              Z

   1  C       6.00   -2.895684032    0.042462146    0.000000000
   2  C       6.00   -0.003628274    0.026853008    0.000000000
   3  O       8.00    0.703715112    2.652343999    0.000000000
   4  H       1.00    2.536919528    2.721885921    0.000000000
   5  H       1.00   -3.647001345   -1.886305720    0.000000000
   6  H       1.00   -3.605540754    1.027670861   -1.675298901
   7  H       1.00   -3.605540754    1.027670861    1.675298901
   8  C       6.00    1.026177977   -1.256025366   -2.392015328
   9  C       6.00    1.026177977   -1.256025366    2.392015328
  10  H       1.00    0.337051552   -0.278772398   -4.080731285
  11  H       1.00    0.337051552   -0.278772398    4.080731285
  12  H       1.00    0.448847749   -3.242770030   -2.499729718
  13  H       1.00    0.448847749   -3.242770030    2.499729718
  14  H       1.00    3.100738214   -1.205021658   -2.419454152
  15  H       1.00    3.100738214   -1.205021658    2.419454152

 Bond lengths in Bohr (Angstrom)

 1-2  2.892097881  1-5  2.069933136  1-6  2.069096224  1-7  2.069096224  2-3  2.719106031
     ( 1.530432290)     ( 1.095361444)     ( 1.094918569)     ( 1.094918569)     ( 1.438888946)

  2- 8  2.903104402   2- 9  2.903104402   3- 4  1.834522965   8-10  2.069222119   8-12  2.071730422
       ( 1.536256691)       ( 1.536256691)       ( 0.970787746)       ( 1.094985190)       ( 1.096312526)

  8-14  2.075368508   9-11  2.069222119   9-13  2.071730422   9-15  2.075368508
       ( 1.098237719)       ( 1.094985190)       ( 1.096312526)       ( 1.098237719)

 Bond angles

  1-2-3  104.76902697   1-2-8  110.92255387   1-2-9  110.92255387   2-1-5  110.97328220

  2- 1- 6  110.22090701   2- 1- 7  110.22090701   2- 3- 4  107.25071562   2- 8-10  110.21836376

  2- 8-12  111.57747468   2- 8-14  110.77023896   2- 9-11  110.21836376   2- 9-13  111.57747468

  2- 9-15  110.77023896   3- 2- 8  109.53648747   3- 2- 9  109.53648747   5- 1- 6  108.61190457

  5- 1- 7  108.61190457   6- 1- 7  108.12870271   8- 2- 9  110.96453384  10- 8-12  108.52192632

 10- 8-14  108.08997829  11- 9-13  108.52192632  11- 9-15  108.08997829  12- 8-14  107.54424578

 13- 9-15  107.54424578

 NUCLEAR CHARGE:                   42
 NUMBER OF PRIMITIVE AOS:         605
 NUMBER OF SYMMETRY AOS:          540
 NUMBER OF CONTRACTIONS:          460   ( 460A   )
 NUMBER OF CORE ORBITALS:           5   (   5A   )
 NUMBER OF VALENCE ORBITALS:       30   (  30A   )


 NUCLEAR REPULSION ENERGY  198.77359127


 Eigenvalues of metric

         1 0.351E-05 0.596E-05 0.770E-05 0.977E-05 0.161E-04 0.173E-04 0.207E-04 0.297E-04


 Contracted 2-electron integrals neglected if value below      1.0D-12
 AO integral compression algorithm  1   Integral accuracy      1.0D-12

     24892.932 MB (compressed) written to integral file ( 51.7%)


 NUMBER OF SORTED TWO-ELECTRON INTEGRALS: 5621233465.     BUFFER LENGTH:  32768
 NUMBER OF SEGMENTS: 176  SEGMENT LENGTH:   31999951      RECORD LENGTH: 131072

 Memory used in sort:      32.16 MW

 SORT1 READ  6020115514. AND WROTE  5366777799. INTEGRALS IN  61513 RECORDS. CPU TIME:    82.22 SEC, REAL TIME:  2503.42 SEC
 SORT2 READ  5366777799. AND WROTE  5621233465. INTEGRALS IN  94959 RECORDS. CPU TIME:   131.62 SEC, REAL TIME:  3999.14 SEC

 FILE SIZES:   FILE 1: 24930.9 MBYTE,  FILE 4: 64501.1 MBYTE,   TOTAL:  89432.0 MBYTE

 OPERATOR DM      FOR CENTER  0  COORDINATES:    0.000000    0.000000    0.000000


 **********************************************************************************************************************************
 DATASETS  * FILE   NREC   LENGTH (MB)   RECORD NAMES
              1      19    23757.53       500      610      700      900      950      970     1000      129      960     1100   
                                          VAR    BASINP    GEOM    SYMINP    ZMAT    AOBASIS   BASIS     P2S    ABASIS      S 
                                         1400     1410     1200     1210     1080     1600     1650     1300     1700   
                                           T        V       H0       H01     AOSYM     SMH    MOLCAS    ERIS     OPER   

 PROGRAMS   *        TOTAL       INT
 CPU TIMES  *       428.33    428.19
 REAL TIME  *      7177.09 SEC
 DISK USED  *        89.43 GB      
 **********************************************************************************************************************************

 Density functional group B-LYP=B88+LYP
 Functional: B88(Automatically generated (new) B88)                            Gradient terms: 1
 Functional: LYP(Automatically generated (new) LYP)                            Gradient terms: 1
 Use grid at  1800.2

 Functional: B88                       Factor:  1.0000
 Functional: LYP                       Factor:  1.0000

 Generated new metagrid on record  1800.2 with target accuracy 1.0D-06 and 55396 points in CPU time    1.6
 Computed new grid on record 1800.1 in CPU time    1.8
  370324 words reserved for DFT integration

 PROGRAM * RKS-SCF (Restricted closed shell Kohn-Sham)     Authors: W. Meyer, H.-J. Werner, P.J. Knowles, 1993

 NUMBER OF ELECTRONS:      21+   21-    SPACE SYMMETRY=1    SPIN SYMMETRY: Singlet 
 CONVERGENCE THRESHOLDS:    1.00E-05 (Density)    1.00E-06 (Energy)
 MAX. NUMBER OF ITERATIONS:       60
 INTERPOLATION TYPE:            DIIS
 INTERPOLATION STEPS:              2 (START)      1 (STEP)
 LEVEL SHIFTS:                  0.00 (CLOSED)  0.00 (OPEN) 



 Use fine grid record 1800.2 for energy threshold  1.0D-06
 Orbital guess generated from atomic densities. Full valence occupancy:   35

 Molecular orbital dump at record        2100.2

 Initial occupancy:  21

 ITERATION    DDIFF          GRAD             ENERGY        2-EL.EN.            DIPOLE MOMENTS         DIIS   ORB.
    1      0.000D+00      0.000D+00      -233.30776881    641.374399    0.70096   -0.79852    0.00000    0    start
    2      0.000D+00      0.615D-02      -232.47758117    582.110335   -0.96742    0.31961    0.00000    1    diag
    3      0.168D-01      0.111D-01      -233.62291482    624.595452    0.42482   -0.83213    0.00000    2    diag
    4      0.113D-01      0.191D-02      -233.64649413    621.979241    0.32475   -0.39938    0.00000    3    diag
    5      0.186D-02      0.713D-03      -233.64973656    621.446161    0.30969   -0.55481    0.00000    4    diag
    6      0.602D-03      0.246D-03      -233.65019569    621.762100    0.31435   -0.52041    0.00000    5    diag
    7      0.206D-03      0.684D-04      -233.65022720    621.769893    0.31916   -0.51955    0.00000    6    diag
    8      0.583D-04      0.917D-05      -233.65022800    621.794644    0.31820   -0.52501    0.00000    7    diag
    9      0.108D-04      0.246D-05      -233.65022806    621.795159    0.31862   -0.52347    0.00000    8    diag
   10      0.240D-05      0.548D-06      -233.65022806    621.794494    0.31870   -0.52367    0.00000    0    orth

 Final occupancy:  21

 !RKS STATE 1.1 Energy               -233.650228058007
 Nuclear energy                       198.77359127
 One-electron energy                 -709.37945428
 Two-electron energy                  310.89724695
 Density functional                   -33.94161199     B88=-32.56727437 LYP= -1.37433763
 Virial quotient                       -1.00526879
 !RKS STATE 1.1 Dipole moment           0.31869588    -0.52366971     0.00000000
 Dipole moment /Debye                   0.80999108    -1.33094846     0.00000000

 Orbital energies:

         1.1          2.1          3.1          4.1          5.1          6.1          7.1          8.1          9.1         10.1
    -18.771594    -9.966994    -9.900144    -9.900115    -9.895141    -0.925167    -0.708961    -0.619642    -0.618822    -0.509037

        11.1         12.1         13.1         14.1         15.1         16.1         17.1         18.1         19.1         20.1
     -0.435608    -0.400143    -0.397533    -0.363459    -0.350313    -0.334628    -0.321375    -0.309966    -0.303743    -0.276737

        21.1         22.1         23.1
     -0.224627    -0.028851    -0.003305

 HOMO     21.1    -0.224627 =      -6.1124eV
 LUMO     22.1    -0.028851 =      -0.7851eV
 LUMO-HOMO         0.195776 =       5.3273eV


 **********************************************************************************************************************************
 DATASETS  * FILE   NREC   LENGTH (MB)   RECORD NAMES
              1      20    23759.30       500      610      700      900      950      970     1000      129      960     1100   
                                          VAR    BASINP    GEOM    SYMINP    ZMAT    AOBASIS   BASIS     P2S    ABASIS      S 
                                         1400     1410     1200     1210     1080     1600     1650     1300     1700     1800   
                                           T        V       H0       H01     AOSYM     SMH    MOLCAS    ERIS     OPER     GRID   

              2       5        7.31       700     1000      520     1800     2100   
                                         GEOM     BASIS   MCVARS    GRID      RKS  

 PROGRAMS   *        TOTAL        KS       INT
 CPU TIMES  *       909.86    481.53    428.19
 REAL TIME  *      8134.33 SEC
 DISK USED  *        89.43 GB      
 **********************************************************************************************************************************


 PROGRAM * Intrinsic Basis Bonding Analysis (IBBA)          Author: G. Knizia

 Molecular orbitals read from record     2100.2  Type=RKS/CANONICAL (state 1.1)
 Fock matrix read from record            2100.2  Type=RKS/TOTAL (state 1.1)
 Orbital energies read from record       2100.2  Type=RKS/CANONICAL (state 1.1)
 Density matrix read from record         2100.2  Type=RKS/CHARGE (state 1.1)

 Number of core orbitals:           5 (   5 )
 Number of closed-shell orbitals:  16 (  16 )

 Basis set MINAO-AUTO-PP generated.      Number of basis functions:   35 

 Polarized AO type:                A = (O Ot + (1-O)(1-Ot)) P12
 Orthogonalization method:         Symmetric (Loewdin)
 Localization functional:          L = sum[A,i] <i|n_A|i>^4 -> max

 Localization group 1:  21 orbitals, occupancy  2.000
 Iterative localization: IB/PM,    7 iter; Final gradient 0.18E-08

 Bond order analysis:       [THRPRINT= 0.020]

   CEN ATOM   CEN ATOM     WIBERG.BO      RENORM.BO
     1   C  -   2   C       0.996214       0.994014
     1   C  -   5   H       0.962250       0.986226
     1   C  -   6   H       0.957661       0.980066
     1   C  -   7   H       0.957661       0.980066

     2   C  -   1   C       0.996214       0.994014
     2   C  -   9   C       0.995000       0.974999
     2   C  -   8   C       0.995000       0.974999
     2   C  -   3   O       0.933897       0.946611

     3   O  -   2   C       0.933897       0.946611
     3   O  -   4   H       0.862039       0.973283
     3   O  -   9   C       0.029900       0.015293
     3   O  -   8   C       0.029900       0.015293

     4   H  -   3   O       0.862039       0.973283

     5   H  -   1   C       0.962250       0.986226

     6   H  -   1   C       0.957661       0.980066

     7   H  -   1   C       0.957661       0.980066

     8   C  -   2   C       0.995000       0.974999
     8   C  -  14   H       0.961651       0.980948
     8   C  -  10   H       0.958224       0.979867
     8   C  -  12   H       0.957514       0.979193
     8   C  -   3   O       0.029900       0.015293

     9   C  -   2   C       0.995000       0.974999
     9   C  -  15   H       0.961651       0.980948
     9   C  -  11   H       0.958224       0.979867
     9   C  -  13   H       0.957514       0.979193
     9   C  -   3   O       0.029900       0.015293

    10   H  -   8   C       0.958224       0.979867

    11   H  -   9   C       0.958224       0.979867

    12   H  -   8   C       0.957514       0.979193

    13   H  -   9   C       0.957514       0.979193

    14   H  -   8   C       0.961651       0.980948

    15   H  -   9   C       0.961651       0.980948


 Valency analysis:

   CEN ATOM   TOT.VALENCE
     1   C       3.937711
     2   C       3.930842
     3   O       1.928893
     4   H       0.883768
     5   H       0.982079
     6   H       0.979668
     7   H       0.979668
     8   C       3.940298
     9   C       3.940298
    10   H       0.979721
    11   H       0.979721
    12   H       0.981488
    13   H       0.981488
    14   H       0.983637
    15   H       0.983637

 Total charge composition:

   CEN ATOM         s          p       ELECTRONS ->P.CHARGE
     1   C       3.04271    3.36837      6.41108   -0.41108
     2   C       2.94025    2.80596      5.74622    0.25378
     3   O       3.65252    4.91376      8.56628   -0.56628
     4   H       0.65907                 0.65907    0.34093
     5   H       0.86613                 0.86613    0.13387
     6   H       0.85741                 0.85741    0.14259
     7   H       0.85741                 0.85741    0.14259
     8   C       3.04977    3.37481      6.42458   -0.42458
     9   C       3.04977    3.37481      6.42458   -0.42458
    10   H       0.85760                 0.85760    0.14240
    11   H       0.85760                 0.85760    0.14240
    12   H       0.86394                 0.86394    0.13606
    13   H       0.86394                 0.86394    0.13606
    14   H       0.87208                 0.87208    0.12792
    15   H       0.87208                 0.87208    0.12792

 Total charge composition, AO contributions:

   CEN ATOM SHL      SPHERICAL COMPONENTS
     1   C  1s       1.99143
     1   C  2s       1.05128
     1   C  2p       1.03659    1.15965    1.17213

     2   C  1s       1.99303
     2   C  2s       0.94722
     2   C  2p       1.00760    0.78703    1.01133

     3   O  1s       1.99721
     3   O  2s       1.65531
     3   O  2p       1.47040    1.49118    1.95218

     4   H  1s       0.65907

     5   H  1s       0.86613

     6   H  1s       0.85741

     7   H  1s       0.85741

     8   C  1s       1.99153
     8   C  2s       1.05824
     8   C  2p       1.14188    1.14132    1.09161

     9   C  1s       1.99153
     9   C  2s       1.05824
     9   C  2p       1.14188    1.14132    1.09161

    10   H  1s       0.85760

    11   H  1s       0.85760

    12   H  1s       0.86394

    13   H  1s       0.86394

    14   H  1s       0.87208

    15   H  1s       0.87208

 Summary of localized orbital composition:   [THRPRINT= 0.020]

   ORB  GRP  ORB.ENERGY      CENTERS/CHARGES
     1   1   -18.617456      O  3   2.000
     2   1    -9.877463      C  2   2.000
     3   1    -9.788204      C  8   2.000
     4   1    -9.788204      C  9   2.000
     5   1    -9.782460      C  1   2.000
     6   1    -0.693426      O  3   1.344   H  4   0.646
     7   1    -0.652755      O  3   1.286   C  2   0.695
     8   1    -0.515417      C  9   1.006   C  2   0.978
     9   1    -0.515417      C  8   1.006   C  2   0.978
    10   1    -0.514956      C  1   0.990   C  2   0.985   (other: 0.025)
    11   1    -0.508136      O  3   1.981
    12   1    -0.452068      C  8   1.131   H 12   0.854
    13   1    -0.452068      C  9   1.131   H 13   0.854
    14   1    -0.450322      C  9   1.123   H 15   0.864
    15   1    -0.450322      C  8   1.123   H 14   0.864
    16   1    -0.448040      C  1   1.127   H  5   0.859
    17   1    -0.446127      C  8   1.140   H 10   0.849
    18   1    -0.446127      C  9   1.140   H 11   0.849
    19   1    -0.441721      C  1   1.139   H  7   0.849
    20   1    -0.441721      C  1   1.139   H  6   0.849
    21   1    -0.251341      O  3   1.952   (other: 0.048)

 Localized orbitals saved to record      2100.2  (orbital set 2)


 **********************************************************************************************************************************
 DATASETS  * FILE   NREC   LENGTH (MB)   RECORD NAMES
              1      20    23759.30       500      610      700      900      950      970     1000      129      960     1100   
                                          VAR    BASINP    GEOM    SYMINP    ZMAT    AOBASIS   BASIS     P2S    ABASIS      S 
                                         1400     1410     1200     1210     1080     1600     1650     1300     1700     1800   
                                           T        V       H0       H01     AOSYM     SMH    MOLCAS    ERIS     OPER     GRID   

              2       5        9.01       700     1000      520     1800     2100   
                                         GEOM     BASIS   MCVARS    GRID      RKS  

 PROGRAMS   *        TOTAL      IBBA        KS       INT
 CPU TIMES  *       910.10      0.24    481.53    428.19
 REAL TIME  *      8135.25 SEC
 DISK USED  *        89.43 GB      
 **********************************************************************************************************************************
 Molecular orbitals read from record     2100.2  Type=RKS/LOCAL(IBO)  
 Occupation numbers read from record     2100.2  Type=RKS/LOCAL(IBO)  
 Orbital energies read from record       2100.2  Type=RKS/LOCAL(IBO)  
 Redundancy group numbers read from rec  2100.2  Type=RKS/LOCAL(IBO)  

 IBBA/aug-cc-pVTZ energy=      0.000000000000

        KS-SCF  
   -233.65022806
 **********************************************************************************************************************************
 Molpro calculation terminated
