
 Primary working directories    : /tmp/sb13343
 Secondary working directories  : /tmp/sb13343
 Wavefunction directory         : /tmp/sb13343/
 Main file repository           : /tmp/sb13343/

 SHA1      : b4a5b34a9e711420743f49e6833241d17c61fb3c
 NAME      : 2099.9.b4a5b34
 ARCHNAME  : linux/x86_64_openmp
 FC        : /cm/shared/languages/GCC-6.1/bin/gfortran
 BLASLIB   : -lblas
 id        : simonbennie

 Nodes     nprocs
 node35-005    1

 Using customized tuning parameters: mindgm=1; mindgv=20; mindgc=4; mindgr=1; noblas=0; minvec=7
 default implementation of scratch files=df  

 memory,500,m
 geomtyp=xyz
 nosym
 noorient
 geometry={
 C         -1.53233        0.02247        0.00000
 C         -0.00192        0.01421        0.00000
 O          0.37239        1.40356        0.00000
 H          1.34248        1.44036        0.00000
 H         -1.92991       -0.99819        0.00000
 H         -1.90797        0.54382       -0.88653
 H         -1.90797        0.54382        0.88653
 C          0.54303       -0.66466       -1.26580
 C          0.54303       -0.66466        1.26580
 H          0.17836       -0.14752       -2.15943
 H          0.17836       -0.14752        2.15943
 H          0.23752       -1.71600       -1.32280
 H          0.23752       -1.71600        1.32280
 H          1.64084       -0.63767       -1.28032
 H          1.64084       -0.63767        1.28032
 }
 basis={ default,SV(P) }
 {ks,B3LYP5,direct;wf,42,1,0}
 {ibba,bonds=1}

 Variables initialized (895), CPU time= 0.01 sec
 Commands  initialized (725), CPU time= 0.01 sec, 591 directives.
 Default parameters read. Elapsed time= 2.02 sec

 Checking input...
 Passed
1


                                         ***  PROGRAM SYSTEM MOLPRO  ***
                                       Copyright, TTI GmbH Stuttgart, 2015
                                    Version 2099.9 linked May 26 2017 16:03:21


 **********************************************************************************************************************************
 LABEL *                                                                                 
  64 bit serial version                                                                  DATE: 12-Jun-17          TIME: 13:15:00  
 **********************************************************************************************************************************

 SHA1:             b4a5b34a9e711420743f49e6833241d17c61fb3c
 **********************************************************************************************************************************
 SETTING GEOMTYP        =    XYZ

 Variable memory set to  500000000 words,  buffer space 

 ZSYMEL=NOSYM

 SETTING BASIS          =    SV(P)


 Recomputing integrals since basis changed


 Using spherical harmonics

 Library entry C      S def2-SV(P)           selected for orbital group  1
 Library entry C      P def2-SV(P)           selected for orbital group  1
 Library entry C      D def2-SV(P)           selected for orbital group  1
 Library entry O      S def2-SV(P)           selected for orbital group  2
 Library entry O      P def2-SV(P)           selected for orbital group  2
 Library entry O      D def2-SV(P)           selected for orbital group  2
 Library entry H      S def2-SV(P)           selected for orbital group  3


 PROGRAM * SEWARD (Integral evaluation for generally contracted gaussian basis sets)     Author: Roland Lindh, 1990

 Geometry written to block  1 of record 700


 Point group  C1  



 ATOMIC COORDINATES

 NR  ATOM    CHARGE       X              Y              Z

   1  C       6.00   -2.895684032    0.042462146    0.000000000
   2  C       6.00   -0.003628274    0.026853008    0.000000000
   3  O       8.00    0.703715112    2.652343999    0.000000000
   4  H       1.00    2.536919528    2.721885921    0.000000000
   5  H       1.00   -3.647001345   -1.886305720    0.000000000
   6  H       1.00   -3.605540754    1.027670861   -1.675298901
   7  H       1.00   -3.605540754    1.027670861    1.675298901
   8  C       6.00    1.026177977   -1.256025366   -2.392015328
   9  C       6.00    1.026177977   -1.256025366    2.392015328
  10  H       1.00    0.337051552   -0.278772398   -4.080731285
  11  H       1.00    0.337051552   -0.278772398    4.080731285
  12  H       1.00    0.448847749   -3.242770030   -2.499729718
  13  H       1.00    0.448847749   -3.242770030    2.499729718
  14  H       1.00    3.100738214   -1.205021658   -2.419454152
  15  H       1.00    3.100738214   -1.205021658    2.419454152

 Bond lengths in Bohr (Angstrom)

 1-2  2.892097881  1-5  2.069933136  1-6  2.069096224  1-7  2.069096224  2-3  2.719106031
     ( 1.530432290)     ( 1.095361444)     ( 1.094918569)     ( 1.094918569)     ( 1.438888946)

  2- 8  2.903104402   2- 9  2.903104402   3- 4  1.834522965   8-10  2.069222119   8-12  2.071730422
       ( 1.536256691)       ( 1.536256691)       ( 0.970787746)       ( 1.094985190)       ( 1.096312526)

  8-14  2.075368508   9-11  2.069222119   9-13  2.071730422   9-15  2.075368508
       ( 1.098237719)       ( 1.094985190)       ( 1.096312526)       ( 1.098237719)

 Bond angles

  1-2-3  104.76902697   1-2-8  110.92255387   1-2-9  110.92255387   2-1-5  110.97328220

  2- 1- 6  110.22090701   2- 1- 7  110.22090701   2- 3- 4  107.25071562   2- 8-10  110.21836376

  2- 8-12  111.57747468   2- 8-14  110.77023896   2- 9-11  110.21836376   2- 9-13  111.57747468

  2- 9-15  110.77023896   3- 2- 8  109.53648747   3- 2- 9  109.53648747   5- 1- 6  108.61190457

  5- 1- 7  108.61190457   6- 1- 7  108.12870271   8- 2- 9  110.96453384  10- 8-12  108.52192632

 10- 8-14  108.08997829  11- 9-13  108.52192632  11- 9-15  108.08997829  12- 8-14  107.54424578

 13- 9-15  107.54424578

 NUCLEAR CHARGE:                   42
 NUMBER OF PRIMITIVE AOS:         165
 NUMBER OF SYMMETRY AOS:          160
 NUMBER OF CONTRACTIONS:           90   (  90A   )
 NUMBER OF CORE ORBITALS:           5   (   5A   )
 NUMBER OF VALENCE ORBITALS:       30   (  30A   )


 NUCLEAR REPULSION ENERGY  198.77359127


 Eigenvalues of metric

         1 0.179E-02 0.600E-02 0.603E-02 0.144E-01 0.286E-01 0.297E-01 0.300E-01 0.361E-01


 Contracted 2-electron integrals neglected if value below      1.0D-11
 AO integral compression algorithm  1   Integral accuracy      1.0D-11

     37.487 MB (compressed) written to integral file ( 49.6%)


 NUMBER OF SORTED TWO-ELECTRON INTEGRALS:    8386560.     BUFFER LENGTH:  32768
 NUMBER OF SEGMENTS:   1  SEGMENT LENGTH:    8386560      RECORD LENGTH: 524288

 Memory used in sort:       8.94 MW

 SORT1 READ     9478508. AND WROTE     7931434. INTEGRALS IN     23 RECORDS. CPU TIME:     0.11 SEC, REAL TIME:     0.22 SEC
 SORT2 READ     7931434. AND WROTE     8386560. INTEGRALS IN    143 RECORDS. CPU TIME:     0.24 SEC, REAL TIME:     0.30 SEC

 FILE SIZES:   FILE 1:    68.0 MBYTE,  FILE 4:    96.5 MBYTE,   TOTAL:    164.5 MBYTE

 OPERATOR DM      FOR CENTER  0  COORDINATES:    0.000000    0.000000    0.000000


 **********************************************************************************************************************************
 DATASETS  * FILE   NREC   LENGTH (MB)   RECORD NAMES
              1      19       63.39       500      610      700      900      950      970     1000      129      960     1100   
                                          VAR    BASINP    GEOM    SYMINP    ZMAT    AOBASIS   BASIS     P2S    ABASIS      S 
                                         1400     1410     1200     1210     1080     1600     1650     1300     1700   
                                           T        V       H0       H01     AOSYM     SMH    MOLCAS    ERIS     OPER   

 PROGRAMS   *        TOTAL       INT
 CPU TIMES  *         1.71      1.57
 REAL TIME  *         4.35 SEC
 DISK USED  *       165.03 MB      
 **********************************************************************************************************************************

 Density functional group B3LYP5=B88+DIRAC+LYP+VWN5
 Functional: B88(Automatically generated (new) B88)                            Gradient terms: 1
 Functional: DIRAC(Automatically generated (new) DIRAC)                        Gradient terms: 0
 Functional: LYP(Automatically generated (new) LYP)                            Gradient terms: 1
 Functional: VWN5(Automatically generated (new) VWN5)                          Gradient terms: 0
 Use grid at  1800.2


 Exact exchange will be calculated, factor:  0.2000

 Functional: B88                       Factor:  0.7200
 Functional: DIRAC                     Factor:  0.0800
 Functional: LYP                       Factor:  0.8100
 Functional: VWN5                      Factor:  0.1900

 Generated new metagrid on record  1800.2 with target accuracy 1.0D-06 and 53396 points in CPU time    1.6
 Computed new grid on record 1800.1 in CPU time    1.8
   75909 words reserved for DFT integration

 PROGRAM * RKS-SCF (Restricted closed shell Kohn-Sham)     Authors: W. Meyer, H.-J. Werner, P.J. Knowles, 1993

 NUMBER OF ELECTRONS:      21+   21-    SPACE SYMMETRY=1    SPIN SYMMETRY: Singlet 
 CONVERGENCE THRESHOLDS:    1.00E-05 (Density)    1.00E-06 (Energy)
 MAX. NUMBER OF ITERATIONS:       60
 INTERPOLATION TYPE:            DIIS
 INTERPOLATION STEPS:              2 (START)      1 (STEP)
 LEVEL SHIFTS:                  0.00 (CLOSED)  0.00 (OPEN) 



 Use fine grid record 1800.2 for energy threshold  1.0D-06
 Orbital guess generated from atomic densities. Full valence occupancy:   21

 Molecular orbital dump at record        2100.2

 Initial occupancy:  21

 ITERATION    DDIFF          GRAD             ENERGY        2-EL.EN.            DIPOLE MOMENTS         DIIS   ORB.
    1      0.000D+00      0.000D+00      -233.10177518    623.356102    0.74496   -0.85297    0.00000    0    start
    2      0.000D+00      0.121D-01      -232.99444213    590.475525   -0.07399    0.11345    0.00000    1    diag
    3      0.310D-01      0.149D-01      -233.31710271    609.138165    0.40128   -0.54680    0.00000    2    diag
    4      0.194D-01      0.121D-02      -233.31848683    608.725758    0.38266   -0.43137    0.00000    3    diag
    5      0.144D-02      0.508D-03      -233.31878556    608.673636    0.38706   -0.47312    0.00000    4    diag
    6      0.525D-03      0.100D-03      -233.31879694    608.739973    0.38722   -0.46887    0.00000    5    diag
    7      0.118D-03      0.337D-04      -233.31879841    608.728566    0.38697   -0.46818    0.00000    6    diag
    8      0.304D-04      0.244D-05      -233.31879842    608.731285    0.38713   -0.46858    0.00000    7    diag
    9      0.451D-05      0.564D-06      -233.31879842    608.731384    0.38707   -0.46842    0.00000    0    orth

 Final occupancy:  21

 !RKS STATE 1.1 Energy               -233.318798418609
 Nuclear energy                       198.77359127
 One-electron energy                 -709.08662755
 Two-electron energy                  304.36569195
 SCF exchange energy                  -32.47789614     Factor= 0.2000
 Density functional                   -27.37145409     B88=-32.51520757 DIRAC=-29.30968434 LYP= -1.37196507 VWN5= -2.65493781
 Virial quotient                       -1.00900415
 !RKS STATE 1.1 Dipole moment           0.38706890    -0.46841565     0.00000000
 Dipole moment /Debye                   0.98376658    -1.19051586     0.00000000

 Orbital energies:

         1.1          2.1          3.1          4.1          5.1          6.1          7.1          8.1          9.1         10.1
    -19.113301   -10.234767   -10.166752   -10.166734   -10.160816    -0.996385    -0.775225    -0.681694    -0.680312    -0.560472

        11.1         12.1         13.1         14.1         15.1         16.1         17.1         18.1         19.1         20.1
     -0.484188    -0.447767    -0.445779    -0.408422    -0.395831    -0.377427    -0.365614    -0.350783    -0.345932    -0.314125

        21.1         22.1         23.1
     -0.262245     0.041110     0.090519

 HOMO     21.1    -0.262245 =      -7.1361eV
 LUMO     22.1     0.041110 =       1.1187eV
 LUMO-HOMO         0.303356 =       8.2547eV


 **********************************************************************************************************************************
 DATASETS  * FILE   NREC   LENGTH (MB)   RECORD NAMES
              1      20       65.10       500      610      700      900      950      970     1000      129      960     1100   
                                          VAR    BASINP    GEOM    SYMINP    ZMAT    AOBASIS   BASIS     P2S    ABASIS      S 
                                         1400     1410     1200     1210     1080     1600     1650     1300     1700     1800   
                                           T        V       H0       H01     AOSYM     SMH    MOLCAS    ERIS     OPER     GRID   

              2       5        3.17       700     1000      520     1800     2100   
                                         GEOM     BASIS   MCVARS    GRID      RKS  

 PROGRAMS   *        TOTAL        KS       INT
 CPU TIMES  *        11.72     10.01      1.57
 REAL TIME  *        15.49 SEC
 DISK USED  *       165.03 MB      
 **********************************************************************************************************************************


 PROGRAM * Intrinsic Basis Bonding Analysis (IBBA)          Author: G. Knizia

 Molecular orbitals read from record     2100.2  Type=RKS/CANONICAL (state 1.1)
 Fock matrix read from record            2100.2  Type=RKS/TOTAL (state 1.1)
 Orbital energies read from record       2100.2  Type=RKS/CANONICAL (state 1.1)
 Density matrix read from record         2100.2  Type=RKS/CHARGE (state 1.1)

 Number of core orbitals:           5 (   5 )
 Number of closed-shell orbitals:  16 (  16 )

 Basis set MINAO-AUTO-PP generated.      Number of basis functions:   35 

 Polarized AO type:                A = (O Ot + (1-O)(1-Ot)) P12
 Orthogonalization method:         Symmetric (Loewdin)
 Localization functional:          L = sum[A,i] <i|n_A|i>^4 -> max

 Localization group 1:  21 orbitals, occupancy  2.000
 Iterative localization: IB/PM,    7 iter; Final gradient 0.29E-08

 Bond order analysis:       [THRPRINT= 0.020]

   CEN ATOM   CEN ATOM     WIBERG.BO      RENORM.BO
     1   C  -   2   C       0.994348       0.993346
     1   C  -   5   H       0.967581       0.987264
     1   C  -   6   H       0.962902       0.982189
     1   C  -   7   H       0.962902       0.982189

     2   C  -   1   C       0.994348       0.993346
     2   C  -   9   C       0.993580       0.975588
     2   C  -   8   C       0.993580       0.975588
     2   C  -   3   O       0.940396       0.954974

     3   O  -   2   C       0.940396       0.954974
     3   O  -   4   H       0.881008       0.977108
     3   O  -   9   C       0.027316       0.014034
     3   O  -   8   C       0.027316       0.014034

     4   H  -   3   O       0.881008       0.977108

     5   H  -   1   C       0.967581       0.987264

     6   H  -   1   C       0.962902       0.982189

     7   H  -   1   C       0.962902       0.982189

     8   C  -   2   C       0.993580       0.975588
     8   C  -  14   H       0.966772       0.982720
     8   C  -  12   H       0.963509       0.982247
     8   C  -  10   H       0.963360       0.981951
     8   C  -   3   O       0.027316       0.014034

     9   C  -   2   C       0.993580       0.975588
     9   C  -  15   H       0.966772       0.982720
     9   C  -  13   H       0.963509       0.982247
     9   C  -  11   H       0.963360       0.981951
     9   C  -   3   O       0.027316       0.014034

    10   H  -   8   C       0.963360       0.981951

    11   H  -   9   C       0.963360       0.981951

    12   H  -   8   C       0.963509       0.982247

    13   H  -   9   C       0.963509       0.982247

    14   H  -   8   C       0.966772       0.982720

    15   H  -   9   C       0.966772       0.982720


 Valency analysis:

   CEN ATOM   TOT.VALENCE
     1   C       3.946690
     2   C       3.933016
     3   O       1.941131
     4   H       0.899936
     5   H       0.986110
     6   H       0.983575
     7   H       0.983575
     8   C       3.948995
     9   C       3.948995
    10   H       0.983593
    11   H       0.983593
    12   H       0.985152
    13   H       0.985152
    14   H       0.987423
    15   H       0.987423

 Total charge composition:

   CEN ATOM         s          p       ELECTRONS ->P.CHARGE
     1   C       3.01666    3.35055      6.36721   -0.36721
     2   C       2.92152    2.82641      5.74793    0.25207
     3   O       3.63187    4.90403      8.53590   -0.53590
     4   H       0.68367                 0.68367    0.31633
     5   H       0.88214                 0.88214    0.11786
     6   H       0.87184                 0.87184    0.12816
     7   H       0.87184                 0.87184    0.12816
     8   C       3.02302    3.35881      6.38183   -0.38183
     9   C       3.02302    3.35881      6.38183   -0.38183
    10   H       0.87191                 0.87191    0.12809
    11   H       0.87191                 0.87191    0.12809
    12   H       0.87815                 0.87815    0.12185
    13   H       0.87815                 0.87815    0.12185
    14   H       0.88785                 0.88785    0.11215
    15   H       0.88785                 0.88785    0.11215

 Total charge composition, AO contributions:

   CEN ATOM SHL      SPHERICAL COMPONENTS
     1   C  1s       1.99111
     1   C  2s       1.02555
     1   C  2p       1.04049    1.14854    1.16152

     2   C  1s       1.99270
     2   C  2s       0.92882
     2   C  2p       1.01514    0.79683    1.01445

     3   O  1s       1.99712
     3   O  2s       1.63474
     3   O  2p       1.45631    1.49106    1.95666

     4   H  1s       0.68367

     5   H  1s       0.88214

     6   H  1s       0.87184

     7   H  1s       0.87184

     8   C  1s       1.99121
     8   C  2s       1.03181
     8   C  2p       1.13213    1.13429    1.09239

     9   C  1s       1.99121
     9   C  2s       1.03181
     9   C  2p       1.13213    1.13429    1.09239

    10   H  1s       0.87191

    11   H  1s       0.87191

    12   H  1s       0.87815

    13   H  1s       0.87815

    14   H  1s       0.88785

    15   H  1s       0.88785

 Summary of localized orbital composition:   [THRPRINT= 0.020]

   ORB  GRP  ORB.ENERGY      CENTERS/CHARGES
     1   1   -18.961192      O  3   2.000
     2   1   -10.143384      C  2   2.000
     3   1   -10.053472      C  8   2.000
     4   1   -10.053472      C  9   2.000
     5   1   -10.046755      C  1   2.000
     6   1    -0.752926      O  3   1.318   H  4   0.673
     7   1    -0.714629      O  3   1.275   C  2   0.708
     8   1    -0.568516      C  8   1.008   C  2   0.977
     9   1    -0.568516      C  9   1.008   C  2   0.977
    10   1    -0.567182      C  1   0.989   C  2   0.987   (other: 0.024)
    11   1    -0.540762      O  3   1.982
    12   1    -0.501490      C  8   1.118   H 12   0.869
    13   1    -0.501490      C  9   1.118   H 13   0.869
    14   1    -0.500677      C  9   1.108   H 15   0.881
    15   1    -0.500677      C  8   1.108   H 14   0.881
    16   1    -0.496673      C  1   1.112   H  5   0.875
    17   1    -0.495398      C  8   1.126   H 10   0.864
    18   1    -0.495398      C  9   1.126   H 11   0.864
    19   1    -0.489859      C  1   1.125   H  7   0.864
    20   1    -0.489859      C  1   1.125   H  6   0.864
    21   1    -0.292239      O  3   1.957   (other: 0.043)

 Localized orbitals saved to record      2100.2  (orbital set 2)


 **********************************************************************************************************************************
 DATASETS  * FILE   NREC   LENGTH (MB)   RECORD NAMES
              1      20       65.10       500      610      700      900      950      970     1000      129      960     1100   
                                          VAR    BASINP    GEOM    SYMINP    ZMAT    AOBASIS   BASIS     P2S    ABASIS      S 
                                         1400     1410     1200     1210     1080     1600     1650     1300     1700     1800   
                                           T        V       H0       H01     AOSYM     SMH    MOLCAS    ERIS     OPER     GRID   

              2       5        3.24       700     1000      520     1800     2100   
                                         GEOM     BASIS   MCVARS    GRID      RKS  

 PROGRAMS   *        TOTAL      IBBA        KS       INT
 CPU TIMES  *        11.76      0.03     10.01      1.57
 REAL TIME  *        15.66 SEC
 DISK USED  *       165.03 MB      
 **********************************************************************************************************************************
 Molecular orbitals read from record     2100.2  Type=RKS/LOCAL(IBO)  
 Occupation numbers read from record     2100.2  Type=RKS/LOCAL(IBO)  
 Orbital energies read from record       2100.2  Type=RKS/LOCAL(IBO)  
 Redundancy group numbers read from rec  2100.2  Type=RKS/LOCAL(IBO)  

 IBBA/SV(P) energy=      0.000000000000

        KS-SCF  
   -233.31879842
 **********************************************************************************************************************************
 Molpro calculation terminated
