
 Primary working directories    : /local
 Secondary working directories  : /local
 Wavefunction directory         : /local/
 Main file repository           : /local/

 SHA1      : b4a5b34a9e711420743f49e6833241d17c61fb3c
 NAME      : 2099.9.b4a5b34
 ARCHNAME  : linux/x86_64_openmp
 FC        : /cm/shared/languages/GCC-6.1/bin/gfortran
 BLASLIB   : -lblas
 id        : simonbennie

 Nodes     nprocs
 node35-036    1

 Using customized tuning parameters: mindgm=1; mindgv=20; mindgc=4; mindgr=1; noblas=0; minvec=7
 default implementation of scratch files=df  

 memory,500,m
 geomtyp=xyz
 nosym
 noorient
 geometry={
 C         -1.53233        0.02247        0.00000
 C         -0.00192        0.01421        0.00000
 O          0.37239        1.40356        0.00000
 H          1.34248        1.44036        0.00000
 H         -1.92991       -0.99819        0.00000
 H         -1.90797        0.54382       -0.88653
 H         -1.90797        0.54382        0.88653
 C          0.54303       -0.66466       -1.26580
 C          0.54303       -0.66466        1.26580
 H          0.17836       -0.14752       -2.15943
 H          0.17836       -0.14752        2.15943
 H          0.23752       -1.71600       -1.32280
 H          0.23752       -1.71600        1.32280
 H          1.64084       -0.63767       -1.28032
 H          1.64084       -0.63767        1.28032
 }
 basis={ default,tzvp }
 {ks,BECKE,direct;wf,42,1,0}
 {ibba,bonds=1}

 Variables initialized (895), CPU time= 0.00 sec
 Commands  initialized (725), CPU time= 0.01 sec, 591 directives.
 Default parameters read. Elapsed time= 0.13 sec

 Checking input...
 Passed
1


                                         ***  PROGRAM SYSTEM MOLPRO  ***
                                       Copyright, TTI GmbH Stuttgart, 2015
                                    Version 2099.9 linked May 26 2017 16:03:21


 **********************************************************************************************************************************
 LABEL *                                                                                 
  64 bit serial version                                                                  DATE: 12-Jun-17          TIME: 19:37:00  
 **********************************************************************************************************************************

 SHA1:             b4a5b34a9e711420743f49e6833241d17c61fb3c
 **********************************************************************************************************************************
 SETTING GEOMTYP        =    XYZ

 Variable memory set to  500000000 words,  buffer space 

 ZSYMEL=NOSYM

 SETTING BASIS          =    TZVP


 Recomputing integrals since basis changed


 Using spherical harmonics

 Library entry C      S def2-TZVP            selected for orbital group  1
 Library entry C      P def2-TZVP            selected for orbital group  1
 Library entry C      D def2-TZVP            selected for orbital group  1
 Library entry C      F def2-TZVP            selected for orbital group  1
 Library entry O      S def2-TZVP            selected for orbital group  2
 Library entry O      P def2-TZVP            selected for orbital group  2
 Library entry O      D def2-TZVP            selected for orbital group  2
 Library entry O      F def2-TZVP            selected for orbital group  2
 Library entry H      S def2-TZVP            selected for orbital group  3
 Library entry H      P def2-TZVP            selected for orbital group  3


 PROGRAM * SEWARD (Integral evaluation for generally contracted gaussian basis sets)     Author: Roland Lindh, 1990

 Geometry written to block  1 of record 700


 Point group  C1  



 ATOMIC COORDINATES

 NR  ATOM    CHARGE       X              Y              Z

   1  C       6.00   -2.895684032    0.042462146    0.000000000
   2  C       6.00   -0.003628274    0.026853008    0.000000000
   3  O       8.00    0.703715112    2.652343999    0.000000000
   4  H       1.00    2.536919528    2.721885921    0.000000000
   5  H       1.00   -3.647001345   -1.886305720    0.000000000
   6  H       1.00   -3.605540754    1.027670861   -1.675298901
   7  H       1.00   -3.605540754    1.027670861    1.675298901
   8  C       6.00    1.026177977   -1.256025366   -2.392015328
   9  C       6.00    1.026177977   -1.256025366    2.392015328
  10  H       1.00    0.337051552   -0.278772398   -4.080731285
  11  H       1.00    0.337051552   -0.278772398    4.080731285
  12  H       1.00    0.448847749   -3.242770030   -2.499729718
  13  H       1.00    0.448847749   -3.242770030    2.499729718
  14  H       1.00    3.100738214   -1.205021658   -2.419454152
  15  H       1.00    3.100738214   -1.205021658    2.419454152

 Bond lengths in Bohr (Angstrom)

 1-2  2.892097881  1-5  2.069933136  1-6  2.069096224  1-7  2.069096224  2-3  2.719106031
     ( 1.530432290)     ( 1.095361444)     ( 1.094918569)     ( 1.094918569)     ( 1.438888946)

  2- 8  2.903104402   2- 9  2.903104402   3- 4  1.834522965   8-10  2.069222119   8-12  2.071730422
       ( 1.536256691)       ( 1.536256691)       ( 0.970787746)       ( 1.094985190)       ( 1.096312526)

  8-14  2.075368508   9-11  2.069222119   9-13  2.071730422   9-15  2.075368508
       ( 1.098237719)       ( 1.094985190)       ( 1.096312526)       ( 1.098237719)

 Bond angles

  1-2-3  104.76902697   1-2-8  110.92255387   1-2-9  110.92255387   2-1-5  110.97328220

  2- 1- 6  110.22090701   2- 1- 7  110.22090701   2- 3- 4  107.25071562   2- 8-10  110.21836376

  2- 8-12  111.57747468   2- 8-14  110.77023896   2- 9-11  110.21836376   2- 9-13  111.57747468

  2- 9-15  110.77023896   3- 2- 8  109.53648747   3- 2- 9  109.53648747   5- 1- 6  108.61190457

  5- 1- 7  108.61190457   6- 1- 7  108.12870271   8- 2- 9  110.96453384  10- 8-12  108.52192632

 10- 8-14  108.08997829  11- 9-13  108.52192632  11- 9-15  108.08997829  12- 8-14  107.54424578

 13- 9-15  107.54424578

 NUCLEAR CHARGE:                   42
 NUMBER OF PRIMITIVE AOS:         335
 NUMBER OF SYMMETRY AOS:          310
 NUMBER OF CONTRACTIONS:          215   ( 215A   )
 NUMBER OF CORE ORBITALS:           5   (   5A   )
 NUMBER OF VALENCE ORBITALS:       30   (  30A   )


 NUCLEAR REPULSION ENERGY  198.77359127


 Eigenvalues of metric

         1 0.262E-03 0.510E-03 0.539E-03 0.594E-03 0.697E-03 0.755E-03 0.210E-02 0.239E-02


 Contracted 2-electron integrals neglected if value below      1.0D-11
 AO integral compression algorithm  1   Integral accuracy      1.0D-11

     977.797 MB (compressed) written to integral file ( 41.7%)


 NUMBER OF SORTED TWO-ELECTRON INTEGRALS:  269595810.     BUFFER LENGTH:  32768
 NUMBER OF SEGMENTS:  17  SEGMENT LENGTH:   15999762      RECORD LENGTH: 524288

 Memory used in sort:      16.56 MW

 SORT1 READ   292827432. AND WROTE   238500613. INTEGRALS IN    690 RECORDS. CPU TIME:     3.69 SEC, REAL TIME:    14.92 SEC
 SORT2 READ   238500613. AND WROTE   269595810. INTEGRALS IN   3730 RECORDS. CPU TIME:     5.62 SEC, REAL TIME:    11.01 SEC

 FILE SIZES:   FILE 1:  1009.7 MBYTE,  FILE 4:  2894.1 MBYTE,   TOTAL:   3903.8 MBYTE

 OPERATOR DM      FOR CENTER  0  COORDINATES:    0.000000    0.000000    0.000000


 **********************************************************************************************************************************
 DATASETS  * FILE   NREC   LENGTH (MB)   RECORD NAMES
              1      19      926.27       500      610      700      900      950      970     1000      129      960     1100   
                                          VAR    BASINP    GEOM    SYMINP    ZMAT    AOBASIS   BASIS     P2S    ABASIS      S 
                                         1400     1410     1200     1210     1080     1600     1650     1300     1700   
                                           T        V       H0       H01     AOSYM     SMH    MOLCAS    ERIS     OPER   

 PROGRAMS   *        TOTAL       INT
 CPU TIMES  *        26.77     26.62
 REAL TIME  *        52.34 SEC
 DISK USED  *         3.90 GB      
 **********************************************************************************************************************************

 Density functional group BECKE=B88
 Functional: B88(Automatically generated (new) B88)                            Gradient terms: 1
 Use grid at  1800.2

 Functional: B88                       Factor:  1.0000

 Generated new metagrid on record  1800.2 with target accuracy 1.0D-06 and 54596 points in CPU time    1.7
 Computed new grid on record 1800.1 in CPU time    1.9
  175219 words reserved for DFT integration

 PROGRAM * RKS-SCF (Restricted closed shell Kohn-Sham)     Authors: W. Meyer, H.-J. Werner, P.J. Knowles, 1993

 NUMBER OF ELECTRONS:      21+   21-    SPACE SYMMETRY=1    SPIN SYMMETRY: Singlet 
 CONVERGENCE THRESHOLDS:    1.00E-05 (Density)    1.00E-06 (Energy)
 MAX. NUMBER OF ITERATIONS:       60
 INTERPOLATION TYPE:            DIIS
 INTERPOLATION STEPS:              2 (START)      1 (STEP)
 LEVEL SHIFTS:                  0.00 (CLOSED)  0.00 (OPEN) 



 Use fine grid record 1800.2 for energy threshold  1.0D-06
 Orbital guess generated from atomic densities. Full valence occupancy:   21

 Molecular orbital dump at record        2100.2

 Initial occupancy:  21

 ITERATION    DDIFF          GRAD             ENERGY        2-EL.EN.            DIPOLE MOMENTS         DIIS   ORB.
    1      0.000D+00      0.000D+00      -231.96819020    639.595834    0.70095   -0.75778    0.00000    0    start
    2      0.000D+00      0.873D-02      -231.36377450    587.742414   -0.60287    0.43265   -0.00000    1    diag
    3      0.251D-01      0.147D-01      -232.26209098    623.346387    0.43178   -0.68114    0.00000    2    diag
    4      0.225D-01      0.202D-02      -232.27331659    621.163032    0.33596   -0.35794    0.00000    3    diag
    5      0.147D-02      0.871D-03      -232.27560342    620.917687    0.32929   -0.48375    0.00000    4    diag
    6      0.487D-03      0.255D-03      -232.27581199    621.129441    0.33485   -0.45596    0.00000    5    diag
    7      0.139D-03      0.822D-04      -232.27583238    621.114591    0.33782   -0.45630    0.00000    6    diag
    8      0.329D-04      0.940D-05      -232.27583275    621.132481    0.33679   -0.46026    0.00000    7    diag
    9      0.103D-04      0.288D-05      -232.27583279    621.132521    0.33727   -0.45901    0.00000    8    diag
   10      0.250D-05      0.528D-06      -232.27583279    621.131599    0.33726   -0.45913    0.00000    0    orth

 Final occupancy:  21

 !RKS STATE 1.1 Energy               -232.275832790693
 Nuclear energy                       198.77359127
 One-electron energy                 -709.04983745
 Two-electron energy                  310.56579963
 Density functional                   -32.56538624     B88=-32.56538624
 Virial quotient                       -0.99835600
 !RKS STATE 1.1 Dipole moment           0.33726290    -0.45913269     0.00000000
 Dipole moment /Debye                   0.85718065    -1.16692245     0.00000000

 Orbital energies:

         1.1          2.1          3.1          4.1          5.1          6.1          7.1          8.1          9.1         10.1
    -18.730320    -9.926035    -9.863585    -9.863580    -9.858862    -0.889714    -0.676478    -0.587967    -0.587168    -0.476040

        11.1         12.1         13.1         14.1         15.1         16.1         17.1         18.1         19.1         20.1
     -0.402999    -0.368042    -0.365545    -0.331974    -0.319372    -0.303695    -0.291147    -0.277785    -0.272397    -0.243794

        21.1         22.1         23.1
     -0.189851     0.024217     0.068281

 HOMO     21.1    -0.189851 =      -5.1661eV
 LUMO     22.1     0.024217 =       0.6590eV
 LUMO-HOMO         0.214068 =       5.8251eV


 **********************************************************************************************************************************
 DATASETS  * FILE   NREC   LENGTH (MB)   RECORD NAMES
              1      20      928.02       500      610      700      900      950      970     1000      129      960     1100   
                                          VAR    BASINP    GEOM    SYMINP    ZMAT    AOBASIS   BASIS     P2S    ABASIS      S 
                                         1400     1410     1200     1210     1080     1600     1650     1300     1700     1800   
                                           T        V       H0       H01     AOSYM     SMH    MOLCAS    ERIS     OPER     GRID   

              2       5        3.96       700     1000      520     1800     2100   
                                         GEOM     BASIS   MCVARS    GRID      RKS  

 PROGRAMS   *        TOTAL        KS       INT
 CPU TIMES  *        73.24     46.46     26.62
 REAL TIME  *       107.17 SEC
 DISK USED  *         3.90 GB      
 **********************************************************************************************************************************


 PROGRAM * Intrinsic Basis Bonding Analysis (IBBA)          Author: G. Knizia

 Molecular orbitals read from record     2100.2  Type=RKS/CANONICAL (state 1.1)
 Fock matrix read from record            2100.2  Type=RKS/TOTAL (state 1.1)
 Orbital energies read from record       2100.2  Type=RKS/CANONICAL (state 1.1)
 Density matrix read from record         2100.2  Type=RKS/CHARGE (state 1.1)

 Number of core orbitals:           5 (   5 )
 Number of closed-shell orbitals:  16 (  16 )

 Basis set MINAO-AUTO-PP generated.      Number of basis functions:   35 

 Polarized AO type:                A = (O Ot + (1-O)(1-Ot)) P12
 Orthogonalization method:         Symmetric (Loewdin)
 Localization functional:          L = sum[A,i] <i|n_A|i>^4 -> max

 Localization group 1:  21 orbitals, occupancy  2.000
 Iterative localization: IB/PM,    7 iter; Final gradient 0.26E-08

 Bond order analysis:       [THRPRINT= 0.020]

   CEN ATOM   CEN ATOM     WIBERG.BO      RENORM.BO
     1   C  -   2   C       0.995728       0.994511
     1   C  -   5   H       0.964953       0.985963
     1   C  -   6   H       0.960456       0.979816
     1   C  -   7   H       0.960456       0.979816

     2   C  -   1   C       0.995728       0.994511
     2   C  -   9   C       0.994477       0.975084
     2   C  -   8   C       0.994477       0.975084
     2   C  -   3   O       0.936358       0.949765

     3   O  -   2   C       0.936358       0.949765
     3   O  -   4   H       0.869258       0.973232
     3   O  -   8   C       0.030120       0.015383
     3   O  -   9   C       0.030120       0.015383

     4   H  -   3   O       0.869258       0.973232

     5   H  -   1   C       0.964953       0.985963

     6   H  -   1   C       0.960456       0.979816

     7   H  -   1   C       0.960456       0.979816

     8   C  -   2   C       0.994477       0.975084
     8   C  -  14   H       0.964212       0.980665
     8   C  -  10   H       0.961057       0.979686
     8   C  -  12   H       0.960211       0.978609
     8   C  -   3   O       0.030120       0.015383

     9   C  -   2   C       0.994477       0.975084
     9   C  -  15   H       0.964212       0.980665
     9   C  -  11   H       0.961057       0.979686
     9   C  -  13   H       0.960211       0.978609
     9   C  -   3   O       0.030120       0.015383

    10   H  -   8   C       0.961057       0.979686

    11   H  -   9   C       0.961057       0.979686

    12   H  -   8   C       0.960211       0.978609

    13   H  -   9   C       0.960211       0.978609

    14   H  -   8   C       0.964212       0.980665

    15   H  -   9   C       0.964212       0.980665


 Valency analysis:

   CEN ATOM   TOT.VALENCE
     1   C       3.945633
     2   C       3.931276
     3   O       1.939458
     4   H       0.891199
     5   H       0.984631
     6   H       0.982366
     7   H       0.982366
     8   C       3.948030
     9   C       3.948030
    10   H       0.982428
    11   H       0.982428
    12   H       0.984135
    13   H       0.984135
    14   H       0.986127
    15   H       0.986127

 Total charge composition:

   CEN ATOM         s          p       ELECTRONS ->P.CHARGE
     1   C       3.03854    3.34534      6.38388   -0.38388
     2   C       2.93965    2.80156      5.74122    0.25878
     3   O       3.65106    4.90100      8.55207   -0.55207
     4   H       0.67015                 0.67015    0.32985
     5   H       0.87603                 0.87603    0.12397
     6   H       0.86721                 0.86721    0.13279
     7   H       0.86721                 0.86721    0.13279
     8   C       3.04577    3.35166      6.39742   -0.39742
     9   C       3.04577    3.35166      6.39742   -0.39742
    10   H       0.86744                 0.86744    0.13256
    11   H       0.86744                 0.86744    0.13256
    12   H       0.87404                 0.87404    0.12596
    13   H       0.87404                 0.87404    0.12596
    14   H       0.88222                 0.88222    0.11778
    15   H       0.88222                 0.88222    0.11778

 Total charge composition, AO contributions:

   CEN ATOM SHL      SPHERICAL COMPONENTS
     1   C  1s       1.99143
     1   C  2s       1.04711
     1   C  2p       1.03408    1.14930    1.16195

     2   C  1s       1.99302
     2   C  2s       0.94663
     2   C  2p       1.00541    0.78722    1.00893

     3   O  1s       1.99721
     3   O  2s       1.65385
     3   O  2p       1.46012    1.48954    1.95134

     4   H  1s       0.67015

     5   H  1s       0.87603

     6   H  1s       0.86721

     7   H  1s       0.86721

     8   C  1s       1.99153
     8   C  2s       1.05423
     8   C  2p       1.13246    1.13233    1.08686

     9   C  1s       1.99153
     9   C  2s       1.05423
     9   C  2p       1.13246    1.13233    1.08686

    10   H  1s       0.86744

    11   H  1s       0.86744

    12   H  1s       0.87404

    13   H  1s       0.87404

    14   H  1s       0.88222

    15   H  1s       0.88222

 Summary of localized orbital composition:   [THRPRINT= 0.020]

   ORB  GRP  ORB.ENERGY      CENTERS/CHARGES
     1   1   -18.577147      O  3   2.000
     2   1    -9.836624      C  2   2.000
     3   1    -9.752230      C  9   2.000
     4   1    -9.752230      C  8   2.000
     5   1    -9.746759      C  1   2.000
     6   1    -0.656648      O  3   1.333   H  4   0.657
     7   1    -0.618700      O  3   1.283   C  2   0.697
     8   1    -0.482653      C  8   1.008   C  2   0.976
     9   1    -0.482653      C  9   1.008   C  2   0.976
    10   1    -0.482431      C  1   0.991   C  2   0.984   (other: 0.025)
    11   1    -0.472982      O  3   1.980
    12   1    -0.420935      C  8   1.122   H 12   0.864
    13   1    -0.420935      C  9   1.122   H 13   0.864
    14   1    -0.419297      C  9   1.113   H 15   0.875
    15   1    -0.419297      C  8   1.113   H 14   0.875
    16   1    -0.417049      C  1   1.117   H  5   0.869
    17   1    -0.415149      C  8   1.130   H 10   0.859
    18   1    -0.415149      C  9   1.130   H 11   0.859
    19   1    -0.410878      C  1   1.130   H  7   0.859
    20   1    -0.410878      C  1   1.130   H  6   0.859
    21   1    -0.215727      O  3   1.951   (other: 0.049)

 Localized orbitals saved to record      2100.2  (orbital set 2)


 **********************************************************************************************************************************
 DATASETS  * FILE   NREC   LENGTH (MB)   RECORD NAMES
              1      20      928.02       500      610      700      900      950      970     1000      129      960     1100   
                                          VAR    BASINP    GEOM    SYMINP    ZMAT    AOBASIS   BASIS     P2S    ABASIS      S 
                                         1400     1410     1200     1210     1080     1600     1650     1300     1700     1800   
                                           T        V       H0       H01     AOSYM     SMH    MOLCAS    ERIS     OPER     GRID   

              2       5        4.33       700     1000      520     1800     2100   
                                         GEOM     BASIS   MCVARS    GRID      RKS  

 PROGRAMS   *        TOTAL      IBBA        KS       INT
 CPU TIMES  *        73.31      0.08     46.46     26.62
 REAL TIME  *       107.34 SEC
 DISK USED  *         3.90 GB      
 **********************************************************************************************************************************
 Molecular orbitals read from record     2100.2  Type=RKS/LOCAL(IBO)  
 Occupation numbers read from record     2100.2  Type=RKS/LOCAL(IBO)  
 Orbital energies read from record       2100.2  Type=RKS/LOCAL(IBO)  
 Redundancy group numbers read from rec  2100.2  Type=RKS/LOCAL(IBO)  

 IBBA/TZVP energy=      0.000000000000

        KS-SCF  
   -232.27583279
 **********************************************************************************************************************************
 Molpro calculation terminated
