
 Primary working directories    : /tmp/sb13343
 Secondary working directories  : /tmp/sb13343
 Wavefunction directory         : /panfs/panasas01/chem/sb13343/wfu/
 Main file repository           : /tmp/sb13343/

 SHA1      : b4a5b34a9e711420743f49e6833241d17c61fb3c
 NAME      : 2099.9.b4a5b34
 ARCHNAME  : linux/x86_64_openmp
 FC        : /cm/shared/languages/GCC-6.1/bin/gfortran
 BLASLIB   : -lblas
 id        : simonbennie

 Nodes     nprocs
 node32-034    1

 Using customized tuning parameters: mindgm=1; mindgv=20; mindgc=4; mindgr=1; noblas=0; minvec=7
 default implementation of scratch files=df  

 memory,500,m
 geomtyp=xyz
 nosym
 noorient
 geometry={
 H         -1.13405        1.76167        0.00000
 C         -1.32915        0.67205        0.00000
 C         -0.06360       -0.12883        0.00000
 C          0.67426       -0.31636        1.28970
 C          0.67426       -0.31636       -1.28970
 H         -1.94006        0.46750        0.88859
 H         -1.94006        0.46750       -0.88859
 H          1.28359        0.56876        1.55544
 H         -0.01165       -0.48291        2.13019
 H          1.36783       -1.16569        1.24157
 H          1.28359        0.56876       -1.55544
 H         -0.01165       -0.48291       -2.13019
 H          1.36783       -1.16569       -1.24157
 }
 basis={ default,svp }
 {ks,M06-2X,direct;wf,33,1,1}
 {ibba,bonds=1}

 Variables initialized (895), CPU time= 0.00 sec
 Commands  initialized (725), CPU time= 0.01 sec, 591 directives.
 Default parameters read. Elapsed time= 0.08 sec

 Checking input...
 Passed
1


                                         ***  PROGRAM SYSTEM MOLPRO  ***
                                       Copyright, TTI GmbH Stuttgart, 2015
                                    Version 2099.9 linked May 26 2017 16:03:21


 **********************************************************************************************************************************
 LABEL *                                                                                 
  64 bit serial version                                                                  DATE: 08-Jun-17          TIME: 20:47:53  
 **********************************************************************************************************************************

 SHA1:             b4a5b34a9e711420743f49e6833241d17c61fb3c
 **********************************************************************************************************************************
 SETTING GEOMTYP        =    XYZ

 Variable memory set to  500000000 words,  buffer space 

 ZSYMEL=NOSYM

 SETTING BASIS          =    SVP


 Recomputing integrals since basis changed


 Using spherical harmonics

 Library entry H      S def2-SVP             selected for orbital group  1
 Library entry H      P def2-SVP             selected for orbital group  1
 Library entry C      S def2-SVP             selected for orbital group  2
 Library entry C      P def2-SVP             selected for orbital group  2
 Library entry C      D def2-SVP             selected for orbital group  2


 PROGRAM * SEWARD (Integral evaluation for generally contracted gaussian basis sets)     Author: Roland Lindh, 1990

 Geometry written to block  1 of record 700


 Point group  C1  



 ATOMIC COORDINATES

 NR  ATOM    CHARGE       X              Y              Z

   1  H       1.00   -2.143043912    3.329073822    0.000000000
   2  C       6.00   -2.511729478    1.269990442    0.000000000
   3  C       6.00   -0.120186582   -0.243453417    0.000000000
   4  C       6.00    1.274166737   -0.597833757    2.437179783
   5  C       6.00    1.274166737   -0.597833757   -2.437179783
   6  H       1.00   -3.666182065    0.883446963    1.679191737
   7  H       1.00   -3.666182065    0.883446963   -1.679191737
   8  H       1.00    2.425633556    1.074800631    2.939355603
   9  H       1.00   -0.022015309   -0.912567643    4.025475693
  10  H       1.00    2.584824085   -2.202834846    2.346227264
  11  H       1.00    2.425633556    1.074800631   -2.939355603
  12  H       1.00   -0.022015309   -0.912567643   -4.025475693
  13  H       1.00    2.584824085   -2.202834846   -2.346227264

 Bond lengths in Bohr (Angstrom)

 1-2  2.091830159  2-3  2.830192527  2-6  2.074092940  2-7  2.074092940  3-4  2.830132841
     ( 1.106948849)     ( 1.497673388)     ( 1.097562717)     ( 1.097562717)     ( 1.497641803)

  3- 5  2.830132841   4- 8  2.091832255   4- 9  2.074085151   4-10  2.074156104   5-11  2.091832255
       ( 1.497641803)       ( 1.106949959)       ( 1.097558596)       ( 1.097596142)       ( 1.106949959)

  5-12  2.074085151   5-13  2.074156104
       ( 1.097558596)       ( 1.097596142)

 Bond angles

  1-2-3  112.17549786   1-2-6  106.35284965   1-2-7  106.35284965   2-3-4  118.89987932

  2-3-5  118.89987932   3-2-6  111.75744418   3-2-7  111.75744418   3-4-8  112.19808176

  3- 4- 9  111.75014522   3- 4-10  111.74379558   3- 5-11  112.19808176   3- 5-12  111.75014522

  3- 5-13  111.74379558   4- 3- 5  118.89276928   6- 2- 7  108.11431090   8- 4- 9  106.34995457

  8- 4-10  106.34572146   9- 4-10  108.12296896  11- 5-12  106.34995457  11- 5-13  106.34572146

 12- 5-13  108.12296896

 NUCLEAR CHARGE:                   33
 NUMBER OF PRIMITIVE AOS:         163
 NUMBER OF SYMMETRY AOS:          159
 NUMBER OF CONTRACTIONS:          101   ( 101A   )
 NUMBER OF CORE ORBITALS:           4   (   4A   )
 NUMBER OF VALENCE ORBITALS:       25   (  25A   )


 NUCLEAR REPULSION ENERGY  124.92676597


 Eigenvalues of metric

         1 0.371E-02 0.424E-02 0.424E-02 0.242E-01 0.242E-01 0.268E-01 0.277E-01 0.371E-01


 Contracted 2-electron integrals neglected if value below      1.0D-11
 AO integral compression algorithm  1   Integral accuracy      1.0D-11

     53.477 MB (compressed) written to integral file ( 46.4%)


 NUMBER OF SORTED TWO-ELECTRON INTEGRALS:   13268976.     BUFFER LENGTH:  32768
 NUMBER OF SEGMENTS:   1  SEGMENT LENGTH:   13268976      RECORD LENGTH: 524288

 Memory used in sort:      13.83 MW

 SORT1 READ    14422061. AND WROTE    12225547. INTEGRALS IN     35 RECORDS. CPU TIME:     0.16 SEC, REAL TIME:     0.31 SEC
 SORT2 READ    12225547. AND WROTE    13268976. INTEGRALS IN    204 RECORDS. CPU TIME:     0.32 SEC, REAL TIME:     0.40 SEC

 FILE SIZES:   FILE 1:    84.0 MBYTE,  FILE 4:   146.8 MBYTE,   TOTAL:    230.9 MBYTE

 OPERATOR DM      FOR CENTER  0  COORDINATES:    0.000000    0.000000    0.000000


 **********************************************************************************************************************************
 DATASETS  * FILE   NREC   LENGTH (MB)   RECORD NAMES
              1      19       77.16       500      610      700      900      950      970     1000      129      960     1100   
                                          VAR    BASINP    GEOM    SYMINP    ZMAT    AOBASIS   BASIS     P2S    ABASIS      S 
                                         1400     1410     1200     1210     1080     1600     1650     1300     1700   
                                           T        V       H0       H01     AOSYM     SMH    MOLCAS    ERIS     OPER   

 PROGRAMS   *        TOTAL       INT
 CPU TIMES  *         2.14      2.01
 REAL TIME  *         2.77 SEC
 DISK USED  *       231.35 MB      
 **********************************************************************************************************************************

 Density functional group M06-2X=XC-M06-2X
 Functional: XC-M06-2X(via MFM 1.6)                                            Gradient terms: 1
 Use grid at  1800.2


 Exact exchange will be calculated, factor:  0.5400

 Functional: XC-M06-2X                 Factor:  1.0000

 Generated new metagrid on record  1800.2 with target accuracy 1.0D-06 and 45406 points in CPU time    1.3
 Computed new grid on record 1800.1 in CPU time    1.4
   84355 words reserved for DFT integration

 PROGRAM * RKS-SCF (Restricted open shell Kohn-Sham)     Authors: W. Meyer, H.-J. Werner, P.J. Knowles, 1993

 NUMBER OF ELECTRONS:      17+   16-    SPACE SYMMETRY=1    SPIN SYMMETRY: Doublet 
 CONVERGENCE THRESHOLDS:    1.00E-05 (Density)    1.00E-06 (Energy)
 MAX. NUMBER OF ITERATIONS:       60
 INTERPOLATION TYPE:            DIIS
 INTERPOLATION STEPS:              2 (START)      1 (STEP)
 LEVEL SHIFTS:                 -0.60 (CLOSED) -0.30 (OPEN) 



 Use fine grid record 1800.2 for energy threshold  1.0D-06
 Orbital guess generated from atomic densities. Full valence occupancy:   17

 Molecular orbital dump at record        2100.2

 Initial alpha occupancy:  17
 Initial beta  occupancy:  16
 Wave function symmetry:    1

 ITERATION    DDIFF          GRAD             ENERGY        2-EL.EN.            DIPOLE MOMENTS         DIIS   ORB.
    1      0.000D+00      0.000D+00      -157.48157456    381.350735    0.13364    0.27018    0.00000    0    start
    2      0.000D+00      0.716D-02      -157.57037162    373.051138    0.05870    0.11533    0.00000    1    diag,B
    3      0.692D-02      0.168D-02      -157.57554985    373.987233    0.05763    0.11281    0.00000    2    diag,B
    4      0.163D-02      0.580D-03      -157.57731517    373.815966    0.04886    0.09488    0.00000    3    diag,B
    5      0.129D-02      0.185D-03      -157.57751931    373.806607    0.04711    0.09160    0.00000    4    diag,B
    6      0.521D-03      0.549D-04      -157.57754182    373.793570    0.04605    0.08968    0.00000    5    diag,B
    7      0.216D-03      0.159D-04      -157.57754411    373.793349    0.04593    0.08955    0.00000    6    fixocc
    8      0.669D-04      0.480D-05      -157.57754437    373.793506    0.04587    0.08946    0.00000    7    diag,B
    9      0.209D-04      0.146D-05      -157.57754439    373.793615    0.04587    0.08949    0.00000    8    diag,B
   10      0.854D-05      0.375D-06      -157.57754439    373.793625    0.04587    0.08948    0.00000    0    orth

 Final alpha occupancy:  17
 Final beta  occupancy:  16

 !RKS STATE 1.1 Energy               -157.577544394497
 Nuclear energy                       124.92676597
 One-electron energy                 -457.39316355
 Two-electron energy                  186.89681250
 Density functional                   -12.00795932     XC-M06-2X=-12.00795932
 Virial quotient                       -1.01276838
 !RKS STATE 1.1 Dipole moment           0.04586920     0.08948187     0.00000000
 Dipole moment /Debye                   0.11658023     0.22742533     0.00000000

 Orbital energies:

         1.1          2.1          3.1          4.1          5.1          6.1          7.1          8.1          9.1         10.1
    -10.547710   -10.541914   -10.541901   -10.541864    -0.878400    -0.768124    -0.768106    -0.593048    -0.501906    -0.501904

        11.1         12.1         13.1         14.1         15.1         16.1         17.1         18.1         19.1
     -0.494013    -0.442020    -0.441913    -0.425003    -0.398749    -0.398728    -0.224906     0.096966     0.149119

 HOMO     17.1    -0.224906 =      -6.1200eV
 LUMO     18.1     0.096966 =       2.6386eV
 LUMO-HOMO         0.321873 =       8.7586eV


 **********************************************************************************************************************************
 DATASETS  * FILE   NREC   LENGTH (MB)   RECORD NAMES
              1      20       78.61       500      610      700      900      950      970     1000      129      960     1100   
                                          VAR    BASINP    GEOM    SYMINP    ZMAT    AOBASIS   BASIS     P2S    ABASIS      S 
                                         1400     1410     1200     1210     1080     1600     1650     1300     1700     1800   
                                           T        V       H0       H01     AOSYM     SMH    MOLCAS    ERIS     OPER     GRID   

              2       5        3.26       700     1000      520     1800     2100   
                                         GEOM     BASIS   MCVARS    GRID      RKS  

 PROGRAMS   *        TOTAL        KS       INT
 CPU TIMES  *        39.73     37.58      2.01
 REAL TIME  *        40.53 SEC
 DISK USED  *       231.35 MB      
 **********************************************************************************************************************************


 PROGRAM * Intrinsic Basis Bonding Analysis (IBBA)          Author: G. Knizia

 Molecular orbitals read from record     2100.2  Type=RKS/CANONICAL (state 1.1)
 Fock matrix read from record            2100.2  Type=RKS/TOTAL (state 1.1)
 Orbital energies read from record       2100.2  Type=RKS/CANONICAL (state 1.1)
 Density matrix read from record         2100.2  Type=RKS/CHARGE (state 1.1)

 Number of core orbitals:           4 (   4 )
 Number of closed-shell orbitals:  12 (  12 )
 Number of active  orbitals:        1 (   1 )

 Basis set MINAO-AUTO-PP generated.      Number of basis functions:   29 

 Polarized AO type:                A = (O Ot + (1-O)(1-Ot)) P12
 Orthogonalization method:         Symmetric (Loewdin)
 Localization functional:          L = sum[A,i] <i|n_A|i>^4 -> max

 Localization group 1:  16 orbitals, occupancy  2.000
 Iterative localization: IB/PM,    7 iter; Final gradient 0.27E-08

 Bond order analysis:       [THRPRINT= 0.020]

   CEN ATOM   CEN ATOM     WIBERG.BO      RENORM.BO
     1   H  -   2   C       0.930488       0.998760
     1   H  -   3   C       0.031730       0.204389

     2   C  -   3   C       1.064610       1.317435
     2   C  -   6   H       0.957237       0.988579
     2   C  -   7   H       0.957237       0.988579
     2   C  -   1   H       0.930488       0.998760

     3   C  -   2   C       1.064610       1.317435
     3   C  -   5   C       1.064489       1.316823
     3   C  -   4   C       1.064489       1.316823
     3   C  -  11   H       0.031813       0.204879
     3   C  -   8   H       0.031813       0.204879
     3   C  -   1   H       0.031730       0.204389

     4   C  -   3   C       1.064489       1.316823
     4   C  -   9   H       0.957354       0.988576
     4   C  -  10   H       0.957325       0.988561
     4   C  -   8   H       0.930500       0.998776

     5   C  -   3   C       1.064489       1.316823
     5   C  -  12   H       0.957354       0.988576
     5   C  -  13   H       0.957325       0.988561
     5   C  -  11   H       0.930500       0.998776

     6   H  -   2   C       0.957237       0.988579

     7   H  -   2   C       0.957237       0.988579

     8   H  -   4   C       0.930500       0.998776
     8   H  -   3   C       0.031813       0.204879

     9   H  -   4   C       0.957354       0.988576

    10   H  -   4   C       0.957325       0.988561

    11   H  -   5   C       0.930500       0.998776
    11   H  -   3   C       0.031813       0.204879

    12   H  -   5   C       0.957354       0.988576

    13   H  -   5   C       0.957325       0.988561


 Valency analysis:

   CEN ATOM   TOT.VALENCE
     1   H       0.972169
     2   C       3.940055
     3   C       3.329251
     4   C       3.940112
     5   C       3.940112
     6   H       0.980434
     7   H       0.980434
     8   H       0.972226
     9   H       0.980506
    10   H       0.980420
    11   H       0.972226
    12   H       0.980506
    13   H       0.980420
 Localization group 2:   1 orbitals, occupancy  1.000
 Iterative localization: IB/PM,    1 iter; Final gradient 0.00E+00

 Bond order analysis:       [THRPRINT= 0.020]

   CEN ATOM   CEN ATOM     WIBERG.BO      RENORM.BO
     1   H  -   3   C       0.069320       0.500000


     3   C  -  11   H       0.069480       0.500000
     3   C  -   8   H       0.069480       0.500000
     3   C  -   1   H       0.069320       0.500000





     8   H  -   3   C       0.069480       0.500000



    11   H  -   3   C       0.069480       0.500000




 Valency analysis:

   CEN ATOM   TOT.VALENCE
     1   H       0.080378
     2   C       0.002263
     3   C       0.287134
     4   C       0.002402
     5   C       0.002402
     6   H       0.014656
     7   H       0.014656
     8   H       0.080556
     9   H       0.014618
    10   H       0.014582
    11   H       0.080556
    12   H       0.014618
    13   H       0.014582

 Total charge composition:

   CEN ATOM         s          p       ELECTRONS ->P.CHARGE
     1   H       0.87512                 0.87512    0.12488
     2   C       3.00506    3.39245      6.39751   -0.39751
     3   C       2.95963    3.01756      5.97719    0.02281
     4   C       3.00489    3.39215      6.39704   -0.39704
     5   C       3.00489    3.39215      6.39704   -0.39704
     6   H       0.86750                 0.86750    0.13250
     7   H       0.86750                 0.86750    0.13250
     8   H       0.87539                 0.87539    0.12461
     9   H       0.86774                 0.86774    0.13226
    10   H       0.86742                 0.86742    0.13258
    11   H       0.87539                 0.87539    0.12461
    12   H       0.86774                 0.86774    0.13226
    13   H       0.86742                 0.86742    0.13258

 Total charge composition, AO contributions:

   CEN ATOM SHL      SPHERICAL COMPONENTS
     1   H  1s       0.87512

     2   C  1s       1.99041
     2   C  2s       1.01465
     2   C  2p       1.09785    1.13001    1.16459

     3   C  1s       1.99222
     3   C  2s       0.96741
     3   C  2p       1.00628    1.00147    1.00981

     4   C  1s       1.99041
     4   C  2s       1.01448
     4   C  2p       1.14025    1.15507    1.09683

     5   C  1s       1.99041
     5   C  2s       1.01448
     5   C  2p       1.14025    1.15507    1.09683

     6   H  1s       0.86750

     7   H  1s       0.86750

     8   H  1s       0.87539

     9   H  1s       0.86774

    10   H  1s       0.86742

    11   H  1s       0.87539

    12   H  1s       0.86774

    13   H  1s       0.86742

 Active orbital charges:

   CEN ATOM         s          p       ELECTRONS ->SPIN.DEN
     1   H       0.04195                 0.04195    0.04195
     2   C       0.00019    0.00094      0.00113    0.00113
     3   C       0.01669    0.80955      0.82624    0.82624
     4   C       0.00021    0.00099      0.00120    0.00120
     5   C       0.00021    0.00099      0.00120    0.00120
     6   H       0.00738                 0.00738    0.00738
     7   H       0.00738                 0.00738    0.00738
     8   H       0.04205                 0.04205    0.04205
     9   H       0.00736                 0.00736    0.00736
    10   H       0.00735                 0.00735    0.00735
    11   H       0.04205                 0.04205    0.04205
    12   H       0.00736                 0.00736    0.00736
    13   H       0.00735                 0.00735    0.00735

 Active orbital charges, AO contributions:

   CEN ATOM SHL      SPHERICAL COMPONENTS
     1   H  1s       0.04195

     2   C  1s       0.00000
     2   C  2s       0.00019
     2   C  2p       0.00004    0.00090    0.00000

     3   C  1s       0.00001
     3   C  2s       0.01668
     3   C  2p       0.15928    0.65027    0.00000

     4   C  1s       0.00000
     4   C  2s       0.00021
     4   C  2p       0.00040    0.00029    0.00031

     5   C  1s       0.00000
     5   C  2s       0.00021
     5   C  2p       0.00040    0.00029    0.00031

     6   H  1s       0.00738

     7   H  1s       0.00738

     8   H  1s       0.04205

     9   H  1s       0.00736

    10   H  1s       0.00735

    11   H  1s       0.04205

    12   H  1s       0.00736

    13   H  1s       0.00735

 Summary of localized orbital composition:   [THRPRINT= 0.020]

   ORB  GRP  ORB.ENERGY      CENTERS/CHARGES
     1   1   -10.450417      C  3   2.000
     2   1   -10.423489      C  5   2.000
     3   1   -10.423489      C  4   2.000
     4   1   -10.423441      C  2   2.000
     5   1    -0.665582      C  5   1.007   C  3   0.980
     6   1    -0.665582      C  4   1.007   C  3   0.980
     7   1    -0.665227      C  2   1.007   C  3   0.980
     8   1    -0.564198      C  4   1.123   H  8   0.830   C  3   0.044
     9   1    -0.564198      C  5   1.123   H 11   0.830   C  3   0.044
    10   1    -0.564169      C  2   1.123   H  1   0.830   C  3   0.044
    11   1    -0.562674      C  4   1.129   H 10   0.854
    12   1    -0.562674      C  5   1.129   H 13   0.854
    13   1    -0.562632      C  2   1.129   H  6   0.854
    14   1    -0.562632      C  2   1.129   H  7   0.854
    15   1    -0.562446      C  5   1.129   H 12   0.854
    16   1    -0.562446      C  4   1.129   H  9   0.854
    17   2    -0.097832      C  3   0.826   H 11   0.042   H  8   0.042   H  1   0.042   (other: 0.048)

 Localized orbitals saved to record      2100.2  (orbital set 2)


 **********************************************************************************************************************************
 DATASETS  * FILE   NREC   LENGTH (MB)   RECORD NAMES
              1      20       78.61       500      610      700      900      950      970     1000      129      960     1100   
                                          VAR    BASINP    GEOM    SYMINP    ZMAT    AOBASIS   BASIS     P2S    ABASIS      S 
                                         1400     1410     1200     1210     1080     1600     1650     1300     1700     1800   
                                           T        V       H0       H01     AOSYM     SMH    MOLCAS    ERIS     OPER     GRID   

              2       5        3.34       700     1000      520     1800     2100   
                                         GEOM     BASIS   MCVARS    GRID      RKS  

 PROGRAMS   *        TOTAL      IBBA        KS       INT
 CPU TIMES  *        39.77      0.05     37.58      2.01
 REAL TIME  *        40.65 SEC
 DISK USED  *       231.35 MB      
 **********************************************************************************************************************************
 Molecular orbitals read from record     2100.2  Type=RKS/LOCAL(IBO)  
 Occupation numbers read from record     2100.2  Type=RKS/LOCAL(IBO)  
 Orbital energies read from record       2100.2  Type=RKS/LOCAL(IBO)  
 Redundancy group numbers read from rec  2100.2  Type=RKS/LOCAL(IBO)  

 IBBA/SVP energy=      0.000000000000

        KS-SCF  
   -157.57754439
 **********************************************************************************************************************************
 Molpro calculation terminated
