
 Primary working directories    : /tmp/sb13343
 Secondary working directories  : /tmp/sb13343
 Wavefunction directory         : /panfs/panasas01/chem/sb13343/wfu/
 Main file repository           : /tmp/sb13343/

 SHA1      : b4a5b34a9e711420743f49e6833241d17c61fb3c
 NAME      : 2099.9.b4a5b34
 ARCHNAME  : linux/x86_64_openmp
 FC        : /cm/shared/languages/GCC-6.1/bin/gfortran
 BLASLIB   : -lblas
 id        : simonbennie

 Nodes     nprocs
 node32-034    1

 Using customized tuning parameters: mindgm=1; mindgv=20; mindgc=4; mindgr=1; noblas=0; minvec=7
 default implementation of scratch files=df  

 memory,500,m
 geomtyp=xyz
 nosym
 noorient
 geometry={
 H         -1.13405        1.76167        0.00000
 C         -1.32915        0.67205        0.00000
 C         -0.06360       -0.12883        0.00000
 C          0.67426       -0.31636        1.28970
 C          0.67426       -0.31636       -1.28970
 H         -1.94006        0.46750        0.88859
 H         -1.94006        0.46750       -0.88859
 H          1.28359        0.56876        1.55544
 H         -0.01165       -0.48291        2.13019
 H          1.36783       -1.16569        1.24157
 H          1.28359        0.56876       -1.55544
 H         -0.01165       -0.48291       -2.13019
 H          1.36783       -1.16569       -1.24157
 }
 basis={ default,svp }
 {ks,M05-2X,direct;wf,33,1,1}
 {ibba,bonds=1}

 Variables initialized (895), CPU time= 0.00 sec
 Commands  initialized (725), CPU time= 0.01 sec, 591 directives.
 Default parameters read. Elapsed time= 0.08 sec

 Checking input...
 Passed
1


                                         ***  PROGRAM SYSTEM MOLPRO  ***
                                       Copyright, TTI GmbH Stuttgart, 2015
                                    Version 2099.9 linked May 26 2017 16:03:21


 **********************************************************************************************************************************
 LABEL *                                                                                 
  64 bit serial version                                                                  DATE: 08-Jun-17          TIME: 20:46:49  
 **********************************************************************************************************************************

 SHA1:             b4a5b34a9e711420743f49e6833241d17c61fb3c
 **********************************************************************************************************************************
 SETTING GEOMTYP        =    XYZ

 Variable memory set to  500000000 words,  buffer space 

 ZSYMEL=NOSYM

 SETTING BASIS          =    SVP


 Recomputing integrals since basis changed


 Using spherical harmonics

 Library entry H      S def2-SVP             selected for orbital group  1
 Library entry H      P def2-SVP             selected for orbital group  1
 Library entry C      S def2-SVP             selected for orbital group  2
 Library entry C      P def2-SVP             selected for orbital group  2
 Library entry C      D def2-SVP             selected for orbital group  2


 PROGRAM * SEWARD (Integral evaluation for generally contracted gaussian basis sets)     Author: Roland Lindh, 1990

 Geometry written to block  1 of record 700


 Point group  C1  



 ATOMIC COORDINATES

 NR  ATOM    CHARGE       X              Y              Z

   1  H       1.00   -2.143043912    3.329073822    0.000000000
   2  C       6.00   -2.511729478    1.269990442    0.000000000
   3  C       6.00   -0.120186582   -0.243453417    0.000000000
   4  C       6.00    1.274166737   -0.597833757    2.437179783
   5  C       6.00    1.274166737   -0.597833757   -2.437179783
   6  H       1.00   -3.666182065    0.883446963    1.679191737
   7  H       1.00   -3.666182065    0.883446963   -1.679191737
   8  H       1.00    2.425633556    1.074800631    2.939355603
   9  H       1.00   -0.022015309   -0.912567643    4.025475693
  10  H       1.00    2.584824085   -2.202834846    2.346227264
  11  H       1.00    2.425633556    1.074800631   -2.939355603
  12  H       1.00   -0.022015309   -0.912567643   -4.025475693
  13  H       1.00    2.584824085   -2.202834846   -2.346227264

 Bond lengths in Bohr (Angstrom)

 1-2  2.091830159  2-3  2.830192527  2-6  2.074092940  2-7  2.074092940  3-4  2.830132841
     ( 1.106948849)     ( 1.497673388)     ( 1.097562717)     ( 1.097562717)     ( 1.497641803)

  3- 5  2.830132841   4- 8  2.091832255   4- 9  2.074085151   4-10  2.074156104   5-11  2.091832255
       ( 1.497641803)       ( 1.106949959)       ( 1.097558596)       ( 1.097596142)       ( 1.106949959)

  5-12  2.074085151   5-13  2.074156104
       ( 1.097558596)       ( 1.097596142)

 Bond angles

  1-2-3  112.17549786   1-2-6  106.35284965   1-2-7  106.35284965   2-3-4  118.89987932

  2-3-5  118.89987932   3-2-6  111.75744418   3-2-7  111.75744418   3-4-8  112.19808176

  3- 4- 9  111.75014522   3- 4-10  111.74379558   3- 5-11  112.19808176   3- 5-12  111.75014522

  3- 5-13  111.74379558   4- 3- 5  118.89276928   6- 2- 7  108.11431090   8- 4- 9  106.34995457

  8- 4-10  106.34572146   9- 4-10  108.12296896  11- 5-12  106.34995457  11- 5-13  106.34572146

 12- 5-13  108.12296896

 NUCLEAR CHARGE:                   33
 NUMBER OF PRIMITIVE AOS:         163
 NUMBER OF SYMMETRY AOS:          159
 NUMBER OF CONTRACTIONS:          101   ( 101A   )
 NUMBER OF CORE ORBITALS:           4   (   4A   )
 NUMBER OF VALENCE ORBITALS:       25   (  25A   )


 NUCLEAR REPULSION ENERGY  124.92676597


 Eigenvalues of metric

         1 0.371E-02 0.424E-02 0.424E-02 0.242E-01 0.242E-01 0.268E-01 0.277E-01 0.371E-01


 Contracted 2-electron integrals neglected if value below      1.0D-11
 AO integral compression algorithm  1   Integral accuracy      1.0D-11

     53.477 MB (compressed) written to integral file ( 46.4%)


 NUMBER OF SORTED TWO-ELECTRON INTEGRALS:   13268976.     BUFFER LENGTH:  32768
 NUMBER OF SEGMENTS:   1  SEGMENT LENGTH:   13268976      RECORD LENGTH: 524288

 Memory used in sort:      13.83 MW

 SORT1 READ    14422061. AND WROTE    12225547. INTEGRALS IN     35 RECORDS. CPU TIME:     0.16 SEC, REAL TIME:     0.32 SEC
 SORT2 READ    12225547. AND WROTE    13268976. INTEGRALS IN    204 RECORDS. CPU TIME:     0.32 SEC, REAL TIME:     0.40 SEC

 FILE SIZES:   FILE 1:    84.0 MBYTE,  FILE 4:   146.8 MBYTE,   TOTAL:    230.9 MBYTE

 OPERATOR DM      FOR CENTER  0  COORDINATES:    0.000000    0.000000    0.000000


 **********************************************************************************************************************************
 DATASETS  * FILE   NREC   LENGTH (MB)   RECORD NAMES
              1      19       77.16       500      610      700      900      950      970     1000      129      960     1100   
                                          VAR    BASINP    GEOM    SYMINP    ZMAT    AOBASIS   BASIS     P2S    ABASIS      S 
                                         1400     1410     1200     1210     1080     1600     1650     1300     1700   
                                           T        V       H0       H01     AOSYM     SMH    MOLCAS    ERIS     OPER   

 PROGRAMS   *        TOTAL       INT
 CPU TIMES  *         2.14      1.99
 REAL TIME  *         2.77 SEC
 DISK USED  *       231.35 MB      
 **********************************************************************************************************************************

 Density functional group M05-2X=XC-M05-2X
 Functional: XC-M05-2X(via MFM 1.6)                                            Gradient terms: 1
 Use grid at  1800.2


 Exact exchange will be calculated, factor:  0.5600

 Functional: XC-M05-2X                 Factor:  1.0000

 Generated new metagrid on record  1800.2 with target accuracy 1.0D-06 and 45406 points in CPU time    1.3
 Computed new grid on record 1800.1 in CPU time    1.4
   84355 words reserved for DFT integration

 PROGRAM * RKS-SCF (Restricted open shell Kohn-Sham)     Authors: W. Meyer, H.-J. Werner, P.J. Knowles, 1993

 NUMBER OF ELECTRONS:      17+   16-    SPACE SYMMETRY=1    SPIN SYMMETRY: Doublet 
 CONVERGENCE THRESHOLDS:    1.00E-05 (Density)    1.00E-06 (Energy)
 MAX. NUMBER OF ITERATIONS:       60
 INTERPOLATION TYPE:            DIIS
 INTERPOLATION STEPS:              2 (START)      1 (STEP)
 LEVEL SHIFTS:                 -0.60 (CLOSED) -0.30 (OPEN) 



 Use fine grid record 1800.2 for energy threshold  1.0D-06
 Orbital guess generated from atomic densities. Full valence occupancy:   17

 Molecular orbital dump at record        2100.2

 Initial alpha occupancy:  17
 Initial beta  occupancy:  16
 Wave function symmetry:    1

 ITERATION    DDIFF          GRAD             ENERGY        2-EL.EN.            DIPOLE MOMENTS         DIIS   ORB.
    1      0.000D+00      0.000D+00      -157.56311406    380.549670    0.13854    0.28013    0.00000    0    start
    2      0.000D+00      0.747D-02      -157.65420733    372.186981    0.06083    0.12047    0.00000    1    diag,B
    3      0.710D-02      0.178D-02      -157.66027545    373.199126    0.06017    0.11845    0.00000    2    diag,B
    4      0.162D-02      0.614D-03      -157.66213925    373.072848    0.05292    0.10234    0.00000    3    diag,B
    5      0.133D-02      0.178D-03      -157.66237360    373.068421    0.05220    0.10012    0.00000    4    diag,B
    6      0.537D-03      0.524D-04      -157.66239514    373.055982    0.05171    0.09885    0.00000    5    diag,B
    7      0.211D-03      0.141D-04      -157.66240436    373.055643    0.05177    0.09889    0.00000    6    fixocc
    8      0.628D-04      0.360D-05      -157.66240690    373.055364    0.05178    0.09888    0.00000    7    diag,B
    9      0.126D-04      0.108D-05      -157.66240788    373.055407    0.05181    0.09893    0.00000    8    diag,B
   10      0.480D-05      0.295D-06      -157.66240799    373.055414    0.05181    0.09894    0.00000    0    orth

 Final alpha occupancy:  17
 Final beta  occupancy:  16

 !RKS STATE 1.1 Energy               -157.662407987962
 Nuclear energy                       124.92676597
 One-electron energy                 -457.50140425
 Two-electron energy                  186.52770691
 Density functional                   -11.61547663     XC-M05-2X=-11.61547663
 Virial quotient                       -1.01369746
 !RKS STATE 1.1 Dipole moment           0.05181008     0.09893779     0.00000000
 Dipole moment /Debye                   0.13167946     0.25145830     0.00000000

 Orbital energies:

         1.1          2.1          3.1          4.1          5.1          6.1          7.1          8.1          9.1         10.1
    -10.571141   -10.568117   -10.568087   -10.567887    -0.889327    -0.777762    -0.777657    -0.600834    -0.509036    -0.508814

        11.1         12.1         13.1         14.1         15.1         16.1         17.1         18.1         19.1
     -0.501259    -0.447646    -0.447618    -0.430906    -0.403781    -0.403485    -0.226181     0.105200     0.159153

 HOMO     17.1    -0.226181 =      -6.1547eV
 LUMO     18.1     0.105200 =       2.8626eV
 LUMO-HOMO         0.331381 =       9.0173eV


 **********************************************************************************************************************************
 DATASETS  * FILE   NREC   LENGTH (MB)   RECORD NAMES
              1      20       78.61       500      610      700      900      950      970     1000      129      960     1100   
                                          VAR    BASINP    GEOM    SYMINP    ZMAT    AOBASIS   BASIS     P2S    ABASIS      S 
                                         1400     1410     1200     1210     1080     1600     1650     1300     1700     1800   
                                           T        V       H0       H01     AOSYM     SMH    MOLCAS    ERIS     OPER     GRID   

              2       5        3.26       700     1000      520     1800     2100   
                                         GEOM     BASIS   MCVARS    GRID      RKS  

 PROGRAMS   *        TOTAL        KS       INT
 CPU TIMES  *        36.63     34.49      1.99
 REAL TIME  *        37.48 SEC
 DISK USED  *       231.35 MB      
 **********************************************************************************************************************************


 PROGRAM * Intrinsic Basis Bonding Analysis (IBBA)          Author: G. Knizia

 Molecular orbitals read from record     2100.2  Type=RKS/CANONICAL (state 1.1)
 Fock matrix read from record            2100.2  Type=RKS/TOTAL (state 1.1)
 Orbital energies read from record       2100.2  Type=RKS/CANONICAL (state 1.1)
 Density matrix read from record         2100.2  Type=RKS/CHARGE (state 1.1)

 Number of core orbitals:           4 (   4 )
 Number of closed-shell orbitals:  12 (  12 )
 Number of active  orbitals:        1 (   1 )

 Basis set MINAO-AUTO-PP generated.      Number of basis functions:   29 

 Polarized AO type:                A = (O Ot + (1-O)(1-Ot)) P12
 Orthogonalization method:         Symmetric (Loewdin)
 Localization functional:          L = sum[A,i] <i|n_A|i>^4 -> max

 Localization group 1:  16 orbitals, occupancy  2.000
 Iterative localization: IB/PM,    7 iter; Final gradient 0.30E-08

 Bond order analysis:       [THRPRINT= 0.020]

   CEN ATOM   CEN ATOM     WIBERG.BO      RENORM.BO
     1   H  -   2   C       0.927207       0.998617
     1   H  -   3   C       0.032953       0.205678

     2   C  -   3   C       1.067102       1.316262
     2   C  -   6   H       0.956342       0.988698
     2   C  -   7   H       0.956342       0.988698
     2   C  -   1   H       0.927207       0.998617

     3   C  -   5   C       1.067156       1.316913
     3   C  -   4   C       1.067156       1.316913
     3   C  -   2   C       1.067102       1.316262
     3   C  -   1   H       0.032953       0.205678
     3   C  -  11   H       0.032856       0.204984
     3   C  -   8   H       0.032856       0.204984

     4   C  -   3   C       1.067156       1.316913
     4   C  -   9   H       0.956334       0.988705
     4   C  -  10   H       0.956144       0.988785
     4   C  -   8   H       0.927327       0.998597

     5   C  -   3   C       1.067156       1.316913
     5   C  -  12   H       0.956334       0.988705
     5   C  -  13   H       0.956144       0.988785
     5   C  -  11   H       0.927327       0.998597

     6   H  -   2   C       0.956342       0.988698

     7   H  -   2   C       0.956342       0.988698

     8   H  -   4   C       0.927327       0.998597
     8   H  -   3   C       0.032856       0.204984

     9   H  -   4   C       0.956334       0.988705

    10   H  -   4   C       0.956144       0.988785

    11   H  -   5   C       0.927327       0.998597
    11   H  -   3   C       0.032856       0.204984

    12   H  -   5   C       0.956334       0.988705

    13   H  -   5   C       0.956144       0.988785


 Valency analysis:

   CEN ATOM   TOT.VALENCE
     1   H       0.970822
     2   C       3.937388
     3   C       3.340623
     4   C       3.937419
     5   C       3.937419
     6   H       0.979473
     7   H       0.979473
     8   H       0.970873
     9   H       0.979470
    10   H       0.979403
    11   H       0.970873
    12   H       0.979470
    13   H       0.979403
 Localization group 2:   1 orbitals, occupancy  1.000
 Iterative localization: IB/PM,    1 iter; Final gradient 0.00E+00

 Bond order analysis:       [THRPRINT= 0.020]

   CEN ATOM   CEN ATOM     WIBERG.BO      RENORM.BO
     1   H  -   3   C       0.069698       0.500000


     3   C  -   1   H       0.069698       0.500000
     3   C  -  11   H       0.069656       0.500000
     3   C  -   8   H       0.069656       0.500000





     8   H  -   3   C       0.069656       0.500000



    11   H  -   3   C       0.069656       0.500000




 Valency analysis:

   CEN ATOM   TOT.VALENCE
     1   H       0.080923
     2   C       0.003244
     3   C       0.288878
     4   C       0.003094
     5   C       0.003094
     6   H       0.014387
     7   H       0.014387
     8   H       0.080877
     9   H       0.014320
    10   H       0.014661
    11   H       0.080877
    12   H       0.014320
    13   H       0.014661

 Total charge composition:

   CEN ATOM         s          p       ELECTRONS ->P.CHARGE
     1   H       0.87143                 0.87143    0.12857
     2   C       3.00452    3.39921      6.40374   -0.40374
     3   C       2.96110    3.03056      5.99166    0.00834
     4   C       3.00450    3.39877      6.40327   -0.40327
     5   C       3.00450    3.39877      6.40327   -0.40327
     6   H       0.86397                 0.86397    0.13603
     7   H       0.86397                 0.86397    0.13603
     8   H       0.87155                 0.87155    0.12845
     9   H       0.86393                 0.86393    0.13607
    10   H       0.86387                 0.86387    0.13613
    11   H       0.87155                 0.87155    0.12845
    12   H       0.86393                 0.86393    0.13607
    13   H       0.86387                 0.86387    0.13613

 Total charge composition, AO contributions:

   CEN ATOM SHL      SPHERICAL COMPONENTS
     1   H  1s       0.87143

     2   C  1s       1.99055
     2   C  2s       1.01397
     2   C  2p       1.09949    1.13080    1.16893

     3   C  1s       1.99232
     3   C  2s       0.96877
     3   C  2p       1.01228    1.00492    1.01335

     4   C  1s       1.99055
     4   C  2s       1.01395
     4   C  2p       1.14288    1.15839    1.09750

     5   C  1s       1.99055
     5   C  2s       1.01395
     5   C  2p       1.14288    1.15839    1.09750

     6   H  1s       0.86397

     7   H  1s       0.86397

     8   H  1s       0.87155

     9   H  1s       0.86393

    10   H  1s       0.86387

    11   H  1s       0.87155

    12   H  1s       0.86393

    13   H  1s       0.86387

 Active orbital charges:

   CEN ATOM         s          p       ELECTRONS ->SPIN.DEN
     1   H       0.04225                 0.04225    0.04225
     2   C       0.00022    0.00140      0.00162    0.00162
     3   C       0.01494    0.80996      0.82490    0.82490
     4   C       0.00021    0.00134      0.00155    0.00155
     5   C       0.00021    0.00134      0.00155    0.00155
     6   H       0.00725                 0.00725    0.00725
     7   H       0.00725                 0.00725    0.00725
     8   H       0.04222                 0.04222    0.04222
     9   H       0.00721                 0.00721    0.00721
    10   H       0.00739                 0.00739    0.00739
    11   H       0.04222                 0.04222    0.04222
    12   H       0.00721                 0.00721    0.00721
    13   H       0.00739                 0.00739    0.00739

 Active orbital charges, AO contributions:

   CEN ATOM SHL      SPHERICAL COMPONENTS
     1   H  1s       0.04225

     2   C  1s       0.00000
     2   C  2s       0.00022
     2   C  2p       0.00006    0.00134    0.00000

     3   C  1s       0.00002
     3   C  2s       0.01493
     3   C  2p       0.15740    0.65256    0.00000

     4   C  1s       0.00000
     4   C  2s       0.00021
     4   C  2p       0.00051    0.00047    0.00036

     5   C  1s       0.00000
     5   C  2s       0.00021
     5   C  2p       0.00051    0.00047    0.00036

     6   H  1s       0.00725

     7   H  1s       0.00725

     8   H  1s       0.04222

     9   H  1s       0.00721

    10   H  1s       0.00739

    11   H  1s       0.04222

    12   H  1s       0.00721

    13   H  1s       0.00739

 Summary of localized orbital composition:   [THRPRINT= 0.020]

   ORB  GRP  ORB.ENERGY      CENTERS/CHARGES
     1   1   -10.473301      C  3   2.000
     2   1   -10.449344      C  5   2.000
     3   1   -10.449344      C  4   2.000
     4   1   -10.449137      C  2   2.000
     5   1    -0.673146      C  2   1.004   C  3   0.983
     6   1    -0.672877      C  4   1.004   C  3   0.983
     7   1    -0.672877      C  5   1.004   C  3   0.983
     8   1    -0.571752      C  2   1.125   H  1   0.826   C  3   0.047
     9   1    -0.571639      C  4   1.125   H  8   0.826   C  3   0.047
    10   1    -0.571639      C  5   1.125   H 11   0.826   C  3   0.047
    11   1    -0.569878      C  5   1.133   H 12   0.851
    12   1    -0.569878      C  4   1.133   H  9   0.851
    13   1    -0.569869      C  4   1.133   H 10   0.850
    14   1    -0.569869      C  5   1.133   H 13   0.850
    15   1    -0.569401      C  2   1.133   H  6   0.851
    16   1    -0.569401      C  2   1.133   H  7   0.851
    17   2    -0.098929      C  3   0.825   H  1   0.042   H 11   0.042   H  8   0.042   (other: 0.048)

 Localized orbitals saved to record      2100.2  (orbital set 2)


 **********************************************************************************************************************************
 DATASETS  * FILE   NREC   LENGTH (MB)   RECORD NAMES
              1      20       78.61       500      610      700      900      950      970     1000      129      960     1100   
                                          VAR    BASINP    GEOM    SYMINP    ZMAT    AOBASIS   BASIS     P2S    ABASIS      S 
                                         1400     1410     1200     1210     1080     1600     1650     1300     1700     1800   
                                           T        V       H0       H01     AOSYM     SMH    MOLCAS    ERIS     OPER     GRID   

              2       5        3.34       700     1000      520     1800     2100   
                                         GEOM     BASIS   MCVARS    GRID      RKS  

 PROGRAMS   *        TOTAL      IBBA        KS       INT
 CPU TIMES  *        36.66      0.02     34.49      1.99
 REAL TIME  *        37.59 SEC
 DISK USED  *       231.35 MB      
 **********************************************************************************************************************************
 Molecular orbitals read from record     2100.2  Type=RKS/LOCAL(IBO)  
 Occupation numbers read from record     2100.2  Type=RKS/LOCAL(IBO)  
 Orbital energies read from record       2100.2  Type=RKS/LOCAL(IBO)  
 Redundancy group numbers read from rec  2100.2  Type=RKS/LOCAL(IBO)  

 IBBA/SVP energy=      0.000000000000

        KS-SCF  
   -157.66240799
 **********************************************************************************************************************************
 Molpro calculation terminated
