
 Primary working directories    : /tmp/sb13343
 Secondary working directories  : /tmp/sb13343
 Wavefunction directory         : /panfs/panasas01/chem/sb13343/wfu/
 Main file repository           : /tmp/sb13343/

 SHA1      : b4a5b34a9e711420743f49e6833241d17c61fb3c
 NAME      : 2099.9.b4a5b34
 ARCHNAME  : linux/x86_64_openmp
 FC        : /cm/shared/languages/GCC-6.1/bin/gfortran
 BLASLIB   : -lblas
 id        : simonbennie

 Nodes     nprocs
 node33-016    1

 Using customized tuning parameters: mindgm=1; mindgv=20; mindgc=4; mindgr=1; noblas=0; minvec=7
 default implementation of scratch files=df  

 memory,500,m
 geomtyp=xyz
 nosym
 noorient
 geometry={
 C          0.00000        0.00000        0.00000
 C          1.54025       -0.00009       -0.00004
 C         -0.51333        1.45219       -0.00005
 C         -0.51349       -0.72611       -1.25756
 C         -0.51342       -0.72599        1.25765
 H         -1.60999        1.48489       -0.00002
 H         -1.61015       -0.74237       -1.28580
 H         -1.61008       -0.74225        1.28596
 H         -0.16312        1.99638        0.88591
 H         -0.16316        1.99630       -0.88608
 H         -0.16333       -0.23096       -2.17186
 H         -0.16339       -1.76551       -1.28580
 H         -0.16332       -1.76539        1.28596
 H         -0.16320       -0.23077        2.17189
 H          1.93652       -1.02316       -0.00001
 H          1.93658        0.51138       -0.88607
 H          1.93663        0.51146        0.88592
 }
 basis={ default,svp }
 {ks,CS,direct;wf,42,1,0}
 {ibba,bonds=1}

 Variables initialized (895), CPU time= 0.00 sec
 Commands  initialized (725), CPU time= 0.02 sec, 591 directives.
 Default parameters read. Elapsed time= 0.08 sec

 Checking input...
 Passed
1


                                         ***  PROGRAM SYSTEM MOLPRO  ***
                                       Copyright, TTI GmbH Stuttgart, 2015
                                    Version 2099.9 linked May 26 2017 16:03:21


 **********************************************************************************************************************************
 LABEL *                                                                                 
  64 bit serial version                                                                  DATE: 08-Jun-17          TIME: 22:22:52  
 **********************************************************************************************************************************

 SHA1:             b4a5b34a9e711420743f49e6833241d17c61fb3c
 **********************************************************************************************************************************
 SETTING GEOMTYP        =    XYZ

 Variable memory set to  500000000 words,  buffer space 

 ZSYMEL=NOSYM

 SETTING BASIS          =    SVP


 Recomputing integrals since basis changed


 Using spherical harmonics

 Library entry C      S def2-SVP             selected for orbital group  1
 Library entry C      P def2-SVP             selected for orbital group  1
 Library entry C      D def2-SVP             selected for orbital group  1
 Library entry H      S def2-SVP             selected for orbital group  2
 Library entry H      P def2-SVP             selected for orbital group  2


 PROGRAM * SEWARD (Integral evaluation for generally contracted gaussian basis sets)     Author: Roland Lindh, 1990

 Geometry written to block  1 of record 700


 Point group  C1  



 ATOMIC COORDINATES

 NR  ATOM    CHARGE       X              Y              Z

   1  C       6.00    0.000000000    0.000000000    0.000000000
   2  C       6.00    2.910650663   -0.000170075   -0.000075589
   3  C       6.00   -0.970053112    2.744241381   -0.000094486
   4  C       6.00   -0.970355468   -1.372149036   -2.376443985
   5  C       6.00   -0.970223187   -1.371922269    2.376614061
   6  H       1.00   -3.042440163    2.806035425   -0.000037795
   7  H       1.00   -3.042742519   -1.402875983   -2.429809851
   8  H       1.00   -3.042610239   -1.402649216    2.430112207
   9  H       1.00   -0.308252125    3.772611441    1.674127271
  10  H       1.00   -0.308327714    3.772460262   -1.674448524
  11  H       1.00   -0.308648968   -0.436451146   -4.104220581
  12  H       1.00   -0.308762351   -3.336330370   -2.429809851
  13  H       1.00   -0.308630071   -3.336103603    2.430112207
  14  H       1.00   -0.308403304   -0.436092098    4.104277273
  15  H       1.00    3.659492435   -1.933492182   -0.000018897
  16  H       1.00    3.659605818    0.966368146   -1.674429627
  17  H       1.00    3.659700305    0.966519324    1.674146168

 Bond lengths in Bohr (Angstrom)

  1- 2  2.910650669   1- 3  2.910646630   1- 4  2.910647475   1- 5  2.910635350   2-15  2.073282028
       ( 1.540250003)       ( 1.540247866)       ( 1.540248313)       ( 1.540241896)       ( 1.097133601)

  2-16  2.073304464   2-17  2.073302258   3- 6  2.073308129   3- 9  2.073293037   3-10  2.073300754
       ( 1.097145474)       ( 1.097144306)       ( 1.097147413)       ( 1.097139427)       ( 1.097143510)

  4- 7  2.073301752   4-11  2.073306055   4-12  2.073297296   5- 8  2.073305161   5-13  2.073300706
       ( 1.097144038)       ( 1.097146316)       ( 1.097141681)       ( 1.097145842)       ( 1.097143485)

  5-14  2.073307464
       ( 1.097147061)

 Bond angles

  1- 2-15  111.17643746   1- 2-16  111.17582452   1- 2-17  111.17607088   1- 3- 6  111.17575783

  1- 3- 9  111.17644989   1- 3-10  111.17611121   1- 4- 7  111.17614317   1- 4-11  111.17631877

  1- 4-12  111.17675056   1- 5- 8  111.17663037   1- 5-13  111.17645588   1- 5-14  111.17672823

  2-1-3  109.47117711   2-1-4  109.47117360   2-1-5  109.47107360   3-1-4  109.47144919

  3- 1- 5  109.47121161   4- 1- 5  109.47123870   6- 3- 9  107.71338639   6- 3-10  107.71391335

  7- 4-11  107.71323113   7- 4-12  107.71354587   8- 5-13  107.71328790   8- 5-14  107.71342022

  9- 3-10  107.71420977  11- 4-12  107.71378459  13- 5-14  107.71321488  15- 2-16  107.71365571

 15- 2-17  107.71411853  16- 2-17  107.71372051

 NUCLEAR CHARGE:                   42
 NUMBER OF PRIMITIVE AOS:         209
 NUMBER OF SYMMETRY AOS:          204
 NUMBER OF CONTRACTIONS:          130   ( 130A   )
 NUMBER OF CORE ORBITALS:           5   (   5A   )
 NUMBER OF VALENCE ORBITALS:       32   (  32A   )


 NUCLEAR REPULSION ENERGY  197.66618863


 Eigenvalues of metric

         1 0.175E-02 0.577E-02 0.577E-02 0.577E-02 0.252E-01 0.252E-01 0.252E-01 0.256E-01


 Contracted 2-electron integrals neglected if value below      1.0D-11
 AO integral compression algorithm  1   Integral accuracy      1.0D-11

     139.198 MB (compressed) written to integral file ( 45.3%)


 NUMBER OF SORTED TWO-ELECTRON INTEGRALS:   36256870.     BUFFER LENGTH:  32768
 NUMBER OF SEGMENTS:   3  SEGMENT LENGTH:   15998004      RECORD LENGTH: 524288

 Memory used in sort:      16.56 MW

 SORT1 READ    38373714. AND WROTE    33465425. INTEGRALS IN     97 RECORDS. CPU TIME:     0.55 SEC, REAL TIME:     1.10 SEC
 SORT2 READ    33465425. AND WROTE    36256870. INTEGRALS IN    531 RECORDS. CPU TIME:     0.82 SEC, REAL TIME:     1.08 SEC

 FILE SIZES:   FILE 1:   170.1 MBYTE,  FILE 4:   406.9 MBYTE,   TOTAL:    576.9 MBYTE

 OPERATOR DM      FOR CENTER  0  COORDINATES:    0.000000    0.000000    0.000000


 **********************************************************************************************************************************
 DATASETS  * FILE   NREC   LENGTH (MB)   RECORD NAMES
              1      19      153.85       500      610      700      900      950      970     1000      129      960     1100   
                                          VAR    BASINP    GEOM    SYMINP    ZMAT    AOBASIS   BASIS     P2S    ABASIS      S 
                                         1400     1410     1200     1210     1080     1600     1650     1300     1700   
                                           T        V       H0       H01     AOSYM     SMH    MOLCAS    ERIS     OPER   

 PROGRAMS   *        TOTAL       INT
 CPU TIMES  *         5.68      5.54
 REAL TIME  *         7.87 SEC
 DISK USED  *       577.52 MB      
 **********************************************************************************************************************************

 Density functional group CS=CS1
 Functional: CS1(Colle-Salvetti (Gradient form))                               Gradient terms: 1
 Use grid at  1800.2

 Functional: CS1                       Factor:  1.0000

 Generated new metagrid on record  1800.2 with target accuracy 1.0D-06 and 57016 points in CPU time    1.9
 Computed new grid on record 1800.1 in CPU time    2.1
  107513 words reserved for DFT integration

 PROGRAM * RKS-SCF (Restricted closed shell Kohn-Sham)     Authors: W. Meyer, H.-J. Werner, P.J. Knowles, 1993

 NUMBER OF ELECTRONS:      21+   21-    SPACE SYMMETRY=1    SPIN SYMMETRY: Singlet 
 CONVERGENCE THRESHOLDS:    1.00E-05 (Density)    1.00E-06 (Energy)
 MAX. NUMBER OF ITERATIONS:       60
 INTERPOLATION TYPE:            DIIS
 INTERPOLATION STEPS:              2 (START)      1 (STEP)
 LEVEL SHIFTS:                  0.00 (CLOSED)  0.00 (OPEN) 



 Use fine grid record 1800.2 for energy threshold  1.0D-06
 Orbital guess generated from atomic densities. Full valence occupancy:   21

 Molecular orbital dump at record        2100.2

 Initial occupancy:  21

 ITERATION    DDIFF          GRAD             ENERGY        2-EL.EN.            DIPOLE MOMENTS         DIIS   ORB.
    1      0.000D+00      0.000D+00      -168.02321142    547.071536   -0.00016   -0.00012    0.00000    0    start
    2      0.000D+00      0.794D-02      -167.43750663    588.775577   -0.00003    0.00002   -0.00000    1    diag
    3      0.343D-01      0.174D-01      -168.15647286    558.130217   -0.00010   -0.00001    0.00000    2    diag
    4      0.232D-01      0.685D-03      -168.15759712    559.489261   -0.00012   -0.00005   -0.00000    3    diag
    5      0.138D-02      0.122D-03      -168.15764080    559.249195   -0.00010   -0.00002    0.00000    4    diag
    6      0.359D-03      0.192D-04      -168.15764180    559.278666   -0.00011   -0.00002   -0.00001    5    diag
    7      0.457D-04      0.682D-05      -168.15764189    559.280612   -0.00011   -0.00004    0.00000    6    diag
    8      0.861D-05      0.103D-05      -168.15764189    559.281761   -0.00011   -0.00002   -0.00000    0    orth

 Final occupancy:  21

 !RKS STATE 1.1 Energy               -168.157641885446
 Nuclear energy                       197.66618863
 One-electron energy                 -644.17868015
 Two-electron energy                  279.64088064
 Density functional                    -1.28603100     CS1=-1.28603100
 Virial quotient                       -0.91798195
 !RKS STATE 1.1 Dipole moment          -0.00010970    -0.00001596    -0.00000368
 Dipole moment /Debye                  -0.00027882    -0.00004056    -0.00000936

 Orbital energies:

         1.1          2.1          3.1          4.1          5.1          6.1          7.1          8.1          9.1         10.1
     -8.205059    -8.201506    -8.201499    -8.201495    -8.199852    -0.435564    -0.298030    -0.298028    -0.298026    -0.172408

        11.1         12.1         13.1         14.1         15.1         16.1         17.1         18.1         19.1         20.1
     -0.129966    -0.129965    -0.129963    -0.078994    -0.078993    -0.026567    -0.026566    -0.026564    -0.010170    -0.010169

        21.1         22.1         23.1
     -0.010168     0.170499     0.236307

 HOMO     21.1    -0.010168 =      -0.2767eV
 LUMO     22.1     0.170499 =       4.6395eV
 LUMO-HOMO         0.180667 =       4.9162eV


 **********************************************************************************************************************************
 DATASETS  * FILE   NREC   LENGTH (MB)   RECORD NAMES
              1      20      155.67       500      610      700      900      950      970     1000      129      960     1100   
                                          VAR    BASINP    GEOM    SYMINP    ZMAT    AOBASIS   BASIS     P2S    ABASIS      S 
                                         1400     1410     1200     1210     1080     1600     1650     1300     1700     1800   
                                           T        V       H0       H01     AOSYM     SMH    MOLCAS    ERIS     OPER     GRID   

              2       5        3.39       700     1000      520     1800     2100   
                                         GEOM     BASIS   MCVARS    GRID      RKS  

 PROGRAMS   *        TOTAL        KS       INT
 CPU TIMES  *        29.73     24.04      5.54
 REAL TIME  *        32.33 SEC
 DISK USED  *       577.52 MB      
 **********************************************************************************************************************************


 PROGRAM * Intrinsic Basis Bonding Analysis (IBBA)          Author: G. Knizia

 Molecular orbitals read from record     2100.2  Type=RKS/CANONICAL (state 1.1)
 Fock matrix read from record            2100.2  Type=RKS/TOTAL (state 1.1)
 Orbital energies read from record       2100.2  Type=RKS/CANONICAL (state 1.1)
 Density matrix read from record         2100.2  Type=RKS/CHARGE (state 1.1)

 Number of core orbitals:           5 (   5 )
 Number of closed-shell orbitals:  16 (  16 )

 Basis set MINAO-AUTO-PP generated.      Number of basis functions:   37 

 Polarized AO type:                A = (O Ot + (1-O)(1-Ot)) P12
 Orthogonalization method:         Symmetric (Loewdin)
 Localization functional:          L = sum[A,i] <i|n_A|i>^4 -> max

 Localization group 1:  21 orbitals, occupancy  2.000
 Iterative localization: IB/PM,    8 iter; Final gradient 0.11E-08

 Bond order analysis:       [THRPRINT= 0.020]

   CEN ATOM   CEN ATOM     WIBERG.BO      RENORM.BO
     1   C  -   5   C       0.985907       1.011221
     1   C  -   2   C       0.985906       1.011218
     1   C  -   3   C       0.985905       1.011222
     1   C  -   4   C       0.985904       1.011219

     2   C  -   1   C       0.985906       1.011218
     2   C  -  15   H       0.954182       0.958563
     2   C  -  17   H       0.954180       0.958561
     2   C  -  16   H       0.954180       0.958561
     2   C  -   8   H       0.020823       0.021777
     2   C  -   7   H       0.020822       0.021776
     2   C  -   6   H       0.020822       0.021776

     3   C  -   1   C       0.985905       1.011222
     3   C  -   6   H       0.954183       0.958567
     3   C  -   9   H       0.954181       0.958563
     3   C  -  10   H       0.954181       0.958563
     3   C  -  13   H       0.020822       0.021776
     3   C  -  15   H       0.020822       0.021776
     3   C  -  12   H       0.020822       0.021776

     4   C  -   1   C       0.985904       1.011219
     4   C  -  12   H       0.954182       0.958564
     4   C  -   7   H       0.954182       0.958565
     4   C  -  11   H       0.954181       0.958563
     4   C  -  14   H       0.020823       0.021777
     4   C  -  17   H       0.020823       0.021777
     4   C  -   9   H       0.020822       0.021776

     5   C  -   1   C       0.985907       1.011221
     5   C  -  13   H       0.954181       0.958563
     5   C  -   8   H       0.954181       0.958563
     5   C  -  14   H       0.954180       0.958562
     5   C  -  16   H       0.020823       0.021776
     5   C  -  11   H       0.020822       0.021776
     5   C  -  10   H       0.020822       0.021776

     6   H  -   3   C       0.954183       0.958567
     6   H  -   2   C       0.020822       0.021776

     7   H  -   4   C       0.954182       0.958565
     7   H  -   2   C       0.020822       0.021776

     8   H  -   5   C       0.954181       0.958563
     8   H  -   2   C       0.020823       0.021777

     9   H  -   3   C       0.954181       0.958563
     9   H  -   4   C       0.020822       0.021776

    10   H  -   3   C       0.954181       0.958563
    10   H  -   5   C       0.020822       0.021776

    11   H  -   4   C       0.954181       0.958563
    11   H  -   5   C       0.020822       0.021776

    12   H  -   4   C       0.954182       0.958564
    12   H  -   3   C       0.020822       0.021776

    13   H  -   5   C       0.954181       0.958563
    13   H  -   3   C       0.020822       0.021776

    14   H  -   5   C       0.954180       0.958562
    14   H  -   4   C       0.020823       0.021777

    15   H  -   2   C       0.954182       0.958563
    15   H  -   3   C       0.020822       0.021776

    16   H  -   2   C       0.954180       0.958561
    16   H  -   5   C       0.020823       0.021776

    17   H  -   2   C       0.954180       0.958561
    17   H  -   4   C       0.020823       0.021777


 Valency analysis:

   CEN ATOM   TOT.VALENCE
     1   C       3.968336
     2   C       3.965024
     3   C       3.965023
     4   C       3.965023
     5   C       3.965022
     6   H       0.998389
     7   H       0.998389
     8   H       0.998389
     9   H       0.998389
    10   H       0.998389
    11   H       0.998389
    12   H       0.998389
    13   H       0.998388
    14   H       0.998389
    15   H       0.998389
    16   H       0.998389
    17   H       0.998389

 Total charge composition:

   CEN ATOM         s          p       ELECTRONS ->P.CHARGE
     1   C       2.82181    3.03492      5.85673    0.14327
     2   C       2.90172    3.25452      6.15623   -0.15623
     3   C       2.90171    3.25452      6.15623   -0.15623
     4   C       2.90172    3.25452      6.15624   -0.15624
     5   C       2.90172    3.25453      6.15624   -0.15624
     6   H       0.95986                 0.95986    0.04014
     7   H       0.95986                 0.95986    0.04014
     8   H       0.95986                 0.95986    0.04014
     9   H       0.95986                 0.95986    0.04014
    10   H       0.95986                 0.95986    0.04014
    11   H       0.95986                 0.95986    0.04014
    12   H       0.95986                 0.95986    0.04014
    13   H       0.95986                 0.95986    0.04014
    14   H       0.95986                 0.95986    0.04014
    15   H       0.95986                 0.95986    0.04014
    16   H       0.95986                 0.95986    0.04014
    17   H       0.95986                 0.95986    0.04014

 Total charge composition, AO contributions:

   CEN ATOM SHL      SPHERICAL COMPONENTS
     1   C  1s       1.99821
     1   C  2s       0.82360
     1   C  2p       1.01164    1.01164    1.01164

     2   C  1s       1.99780
     2   C  2s       0.90391
     2   C  2p       1.03944    1.10754    1.10753

     3   C  1s       1.99780
     3   C  2s       0.90391
     3   C  2p       1.09997    1.04701    1.10753

     4   C  1s       1.99780
     4   C  2s       0.90391
     4   C  2p       1.09997    1.09241    1.06214

     5   C  1s       1.99780
     5   C  2s       0.90391
     5   C  2p       1.09997    1.09241    1.06214

     6   H  1s       0.95986

     7   H  1s       0.95986

     8   H  1s       0.95986

     9   H  1s       0.95986

    10   H  1s       0.95986

    11   H  1s       0.95986

    12   H  1s       0.95986

    13   H  1s       0.95986

    14   H  1s       0.95986

    15   H  1s       0.95986

    16   H  1s       0.95986

    17   H  1s       0.95986

 Summary of localized orbital composition:   [THRPRINT= 0.020]

   ORB  GRP  ORB.ENERGY      CENTERS/CHARGES
     1   1    -8.133417      C  1   2.000
     2   1    -8.122497      C  3   2.000
     3   1    -8.122487      C  2   2.000
     4   1    -8.122487      C  4   2.000
     5   1    -8.122482      C  5   2.000
     6   1    -0.209752      C  3   1.004   C  1   0.947   (other: 0.049)
     7   1    -0.209751      C  5   1.004   C  1   0.947   (other: 0.049)
     8   1    -0.209750      C  4   1.004   C  1   0.947   (other: 0.049)
     9   1    -0.209749      C  2   1.004   C  1   0.947   (other: 0.049)
    10   1    -0.142270      C  3   1.039   H  9   0.945
    11   1    -0.142269      C  3   1.039   H 10   0.945
    12   1    -0.142268      C  2   1.039   H 15   0.945
    13   1    -0.142268      C  3   1.039   H  6   0.945
    14   1    -0.142265      C  2   1.039   H 17   0.945
    15   1    -0.142265      C  2   1.039   H 16   0.945
    16   1    -0.142264      C  4   1.039   H  7   0.945
    17   1    -0.142264      C  4   1.039   H 12   0.945
    18   1    -0.142263      C  4   1.039   H 11   0.945
    19   1    -0.142262      C  5   1.039   H  8   0.945
    20   1    -0.142261      C  5   1.039   H 14   0.945
    21   1    -0.142261      C  5   1.039   H 13   0.945

 Localized orbitals saved to record      2100.2  (orbital set 2)


 **********************************************************************************************************************************
 DATASETS  * FILE   NREC   LENGTH (MB)   RECORD NAMES
              1      20      155.67       500      610      700      900      950      970     1000      129      960     1100   
                                          VAR    BASINP    GEOM    SYMINP    ZMAT    AOBASIS   BASIS     P2S    ABASIS      S 
                                         1400     1410     1200     1210     1080     1600     1650     1300     1700     1800   
                                           T        V       H0       H01     AOSYM     SMH    MOLCAS    ERIS     OPER     GRID   

              2       5        3.53       700     1000      520     1800     2100   
                                         GEOM     BASIS   MCVARS    GRID      RKS  

 PROGRAMS   *        TOTAL      IBBA        KS       INT
 CPU TIMES  *        29.78      0.04     24.04      5.54
 REAL TIME  *        32.47 SEC
 DISK USED  *       577.52 MB      
 **********************************************************************************************************************************
 Molecular orbitals read from record     2100.2  Type=RKS/LOCAL(IBO)  
 Occupation numbers read from record     2100.2  Type=RKS/LOCAL(IBO)  
 Orbital energies read from record       2100.2  Type=RKS/LOCAL(IBO)  
 Redundancy group numbers read from rec  2100.2  Type=RKS/LOCAL(IBO)  

 IBBA/SVP energy=      0.000000000000

        KS-SCF  
   -168.15764189
 **********************************************************************************************************************************
 Molpro calculation terminated
