
 Primary working directories    : /local
 Secondary working directories  : /local
 Wavefunction directory         : /local/
 Main file repository           : /local/

 SHA1      : b4a5b34a9e711420743f49e6833241d17c61fb3c
 NAME      : 2099.9.b4a5b34
 ARCHNAME  : linux/x86_64_openmp
 FC        : /cm/shared/languages/GCC-6.1/bin/gfortran
 BLASLIB   : -lblas
 id        : simonbennie

 Nodes     nprocs
 node32-036    1

 Using customized tuning parameters: mindgm=1; mindgv=20; mindgc=4; mindgr=1; noblas=0; minvec=7
 default implementation of scratch files=df  

 memory,500,m
 geomtyp=xyz
 nosym
 noorient
 geometry={
 C         -1.53233        0.02247        0.00000
 C         -0.00192        0.01421        0.00000
 O          0.37239        1.40356        0.00000
 H          1.34248        1.44036        0.00000
 H         -1.92991       -0.99819        0.00000
 H         -1.90797        0.54382       -0.88653
 H         -1.90797        0.54382        0.88653
 C          0.54303       -0.66466       -1.26580
 C          0.54303       -0.66466        1.26580
 H          0.17836       -0.14752       -2.15943
 H          0.17836       -0.14752        2.15943
 H          0.23752       -1.71600       -1.32280
 H          0.23752       -1.71600        1.32280
 H          1.64084       -0.63767       -1.28032
 H          1.64084       -0.63767        1.28032
 }
 basis={ default,avtz }
 {ks,M11-L,direct;wf,42,1,0}
 {ibba,bonds=1}

 Variables initialized (895), CPU time= 0.01 sec
 Commands  initialized (725), CPU time= 0.01 sec, 591 directives.
 Default parameters read. Elapsed time= 0.09 sec

 Checking input...
 Passed
1


                                         ***  PROGRAM SYSTEM MOLPRO  ***
                                       Copyright, TTI GmbH Stuttgart, 2015
                                    Version 2099.9 linked May 26 2017 16:03:21


 **********************************************************************************************************************************
 LABEL *                                                                                 
  64 bit serial version                                                                  DATE: 12-Jun-17          TIME: 14:16:20  
 **********************************************************************************************************************************

 SHA1:             b4a5b34a9e711420743f49e6833241d17c61fb3c
 **********************************************************************************************************************************
 SETTING GEOMTYP        =    XYZ

 Variable memory set to  500000000 words,  buffer space 

 ZSYMEL=NOSYM

 SETTING BASIS          =    AVTZ


 Recomputing integrals since basis changed


 Using spherical harmonics

 Library entry C      S aug-cc-pVTZ          selected for orbital group  1
 Library entry C      P aug-cc-pVTZ          selected for orbital group  1
 Library entry C      D aug-cc-pVTZ          selected for orbital group  1
 Library entry C      F aug-cc-pVTZ          selected for orbital group  1
 Library entry O      S aug-cc-pVTZ          selected for orbital group  2
 Library entry O      P aug-cc-pVTZ          selected for orbital group  2
 Library entry O      D aug-cc-pVTZ          selected for orbital group  2
 Library entry O      F aug-cc-pVTZ          selected for orbital group  2
 Library entry H      S aug-cc-pVTZ          selected for orbital group  3
 Library entry H      P aug-cc-pVTZ          selected for orbital group  3
 Library entry H      D aug-cc-pVTZ          selected for orbital group  3


 PROGRAM * SEWARD (Integral evaluation for generally contracted gaussian basis sets)     Author: Roland Lindh, 1990

 Geometry written to block  1 of record 700


 Point group  C1  



 ATOMIC COORDINATES

 NR  ATOM    CHARGE       X              Y              Z

   1  C       6.00   -2.895684032    0.042462146    0.000000000
   2  C       6.00   -0.003628274    0.026853008    0.000000000
   3  O       8.00    0.703715112    2.652343999    0.000000000
   4  H       1.00    2.536919528    2.721885921    0.000000000
   5  H       1.00   -3.647001345   -1.886305720    0.000000000
   6  H       1.00   -3.605540754    1.027670861   -1.675298901
   7  H       1.00   -3.605540754    1.027670861    1.675298901
   8  C       6.00    1.026177977   -1.256025366   -2.392015328
   9  C       6.00    1.026177977   -1.256025366    2.392015328
  10  H       1.00    0.337051552   -0.278772398   -4.080731285
  11  H       1.00    0.337051552   -0.278772398    4.080731285
  12  H       1.00    0.448847749   -3.242770030   -2.499729718
  13  H       1.00    0.448847749   -3.242770030    2.499729718
  14  H       1.00    3.100738214   -1.205021658   -2.419454152
  15  H       1.00    3.100738214   -1.205021658    2.419454152

 Bond lengths in Bohr (Angstrom)

 1-2  2.892097881  1-5  2.069933136  1-6  2.069096224  1-7  2.069096224  2-3  2.719106031
     ( 1.530432290)     ( 1.095361444)     ( 1.094918569)     ( 1.094918569)     ( 1.438888946)

  2- 8  2.903104402   2- 9  2.903104402   3- 4  1.834522965   8-10  2.069222119   8-12  2.071730422
       ( 1.536256691)       ( 1.536256691)       ( 0.970787746)       ( 1.094985190)       ( 1.096312526)

  8-14  2.075368508   9-11  2.069222119   9-13  2.071730422   9-15  2.075368508
       ( 1.098237719)       ( 1.094985190)       ( 1.096312526)       ( 1.098237719)

 Bond angles

  1-2-3  104.76902697   1-2-8  110.92255387   1-2-9  110.92255387   2-1-5  110.97328220

  2- 1- 6  110.22090701   2- 1- 7  110.22090701   2- 3- 4  107.25071562   2- 8-10  110.21836376

  2- 8-12  111.57747468   2- 8-14  110.77023896   2- 9-11  110.21836376   2- 9-13  111.57747468

  2- 9-15  110.77023896   3- 2- 8  109.53648747   3- 2- 9  109.53648747   5- 1- 6  108.61190457

  5- 1- 7  108.61190457   6- 1- 7  108.12870271   8- 2- 9  110.96453384  10- 8-12  108.52192632

 10- 8-14  108.08997829  11- 9-13  108.52192632  11- 9-15  108.08997829  12- 8-14  107.54424578

 13- 9-15  107.54424578

 NUCLEAR CHARGE:                   42
 NUMBER OF PRIMITIVE AOS:         605
 NUMBER OF SYMMETRY AOS:          540
 NUMBER OF CONTRACTIONS:          460   ( 460A   )
 NUMBER OF CORE ORBITALS:           5   (   5A   )
 NUMBER OF VALENCE ORBITALS:       30   (  30A   )


 NUCLEAR REPULSION ENERGY  198.77359127


 Eigenvalues of metric

         1 0.351E-05 0.596E-05 0.770E-05 0.977E-05 0.161E-04 0.173E-04 0.207E-04 0.297E-04


 Contracted 2-electron integrals neglected if value below      1.0D-12
 AO integral compression algorithm  1   Integral accuracy      1.0D-12

     24892.932 MB (compressed) written to integral file ( 51.7%)


 NUMBER OF SORTED TWO-ELECTRON INTEGRALS: 5621233465.     BUFFER LENGTH:  32768
 NUMBER OF SEGMENTS: 176  SEGMENT LENGTH:   31999951      RECORD LENGTH: 131072

 Memory used in sort:      32.16 MW

 SORT1 READ  6020115514. AND WROTE  5366777799. INTEGRALS IN  61513 RECORDS. CPU TIME:    84.26 SEC, REAL TIME:  3961.71 SEC
 SORT2 READ  5366777799. AND WROTE  5621233465. INTEGRALS IN  94959 RECORDS. CPU TIME:   141.96 SEC, REAL TIME:  3967.14 SEC

 FILE SIZES:   FILE 1: 24930.9 MBYTE,  FILE 4: 64501.1 MBYTE,   TOTAL:  89432.0 MBYTE

 OPERATOR DM      FOR CENTER  0  COORDINATES:    0.000000    0.000000    0.000000


 **********************************************************************************************************************************
 DATASETS  * FILE   NREC   LENGTH (MB)   RECORD NAMES
              1      19    23757.53       500      610      700      900      950      970     1000      129      960     1100   
                                          VAR    BASINP    GEOM    SYMINP    ZMAT    AOBASIS   BASIS     P2S    ABASIS      S 
                                         1400     1410     1200     1210     1080     1600     1650     1300     1700   
                                           T        V       H0       H01     AOSYM     SMH    MOLCAS    ERIS     OPER   

 PROGRAMS   *        TOTAL       INT
 CPU TIMES  *       439.23    439.09
 REAL TIME  *      8671.86 SEC
 DISK USED  *        89.43 GB      
 **********************************************************************************************************************************

 Density functional group M11-L=XC-M11-L
 Functional: XC-M11-L(via MFM 1.6)                                             Gradient terms: 1
 Use grid at  1800.2

 Functional: XC-M11-L                  Factor:  1.0000

 Generated new metagrid on record  1800.2 with target accuracy 1.0D-06 and 55396 points in CPU time    1.7
 Computed new grid on record 1800.1 in CPU time    1.9
  370324 words reserved for DFT integration

 PROGRAM * RKS-SCF (Restricted closed shell Kohn-Sham)     Authors: W. Meyer, H.-J. Werner, P.J. Knowles, 1993

 NUMBER OF ELECTRONS:      21+   21-    SPACE SYMMETRY=1    SPIN SYMMETRY: Singlet 
 CONVERGENCE THRESHOLDS:    1.00E-05 (Density)    1.00E-06 (Energy)
 MAX. NUMBER OF ITERATIONS:       60
 INTERPOLATION TYPE:            DIIS
 INTERPOLATION STEPS:              2 (START)      1 (STEP)
 LEVEL SHIFTS:                  0.00 (CLOSED)  0.00 (OPEN) 



 Use fine grid record 1800.2 for energy threshold  1.0D-06
 Orbital guess generated from atomic densities. Full valence occupancy:   35

 Molecular orbital dump at record        2100.2

 Initial occupancy:  21

 ITERATION    DDIFF          GRAD             ENERGY        2-EL.EN.            DIPOLE MOMENTS         DIIS   ORB.
    1      0.000D+00      0.000D+00      -233.41357306    639.458771    0.67403   -0.85820    0.00000    0    start
    2      0.000D+00      0.563D-02      -232.85277274    586.250186   -1.00825    0.73258    0.00000    1    diag
    3      0.318D-01      0.914D-02      -233.68734358    624.865638    0.42212   -0.77789   -0.00000    2    diag
    4      0.160D-01      0.161D-02      -233.70730473    621.742362    0.33205   -0.36508   -0.00000    3    diag
    5      0.110D-01      0.579D-03      -233.70992691    621.677191    0.32596   -0.51360   -0.00000    4    diag
    6      0.732D-02      0.180D-03      -233.70997985    621.773322    0.32380   -0.43976   -0.00000    5    diag
    7      0.712D-03      0.153D-03      -233.71015161    621.680968    0.32768   -0.46774   -0.00000    6    diag
    8      0.266D-03      0.249D-04      -233.71015691    621.717882    0.32449   -0.47216    0.00000    7    diag
    9      0.442D-03      0.591D-05      -233.71015729    621.716120    0.32577   -0.46823   -0.00000    8    diag
   10      0.759D-04      0.120D-05      -233.71015730    621.716142    0.32565   -0.46893    0.00000    9    orth
   11      0.158D-04      0.420D-06      -233.71015730    621.716313    0.32559   -0.46883    0.00000    9    diag
   12      0.477D-05      0.155D-06      -233.71015730    621.716268    0.32568   -0.46877    0.00000    0    orth

 Final occupancy:  21

 !RKS STATE 1.1 Energy               -233.710157303237
 Nuclear energy                       198.77359127
 One-electron energy                 -709.22600852
 Two-electron energy                  310.85813408
 Density functional                   -34.11587414     XC-M11-L=-34.11587414
 Virial quotient                       -1.00424704
 !RKS STATE 1.1 Dipole moment           0.32567803    -0.46877390     0.00000000
 Dipole moment /Debye                   0.82773678    -1.19142636     0.00000000

 Orbital energies:

         1.1          2.1          3.1          4.1          5.1          6.1          7.1          8.1          9.1         10.1
    -19.375871   -10.428251   -10.350179   -10.350100   -10.345376    -1.043866    -0.779521    -0.677311    -0.676296    -0.550629

        11.1         12.1         13.1         14.1         15.1         16.1         17.1         18.1         19.1         20.1
     -0.466114    -0.424016    -0.419422    -0.386028    -0.369609    -0.355595    -0.341339    -0.334069    -0.325376    -0.302874

        21.1         22.1         23.1
     -0.254641    -0.070730    -0.052023

 HOMO     21.1    -0.254641 =      -6.9291eV
 LUMO     22.1    -0.070730 =      -1.9247eV
 LUMO-HOMO         0.183910 =       5.0045eV


 **********************************************************************************************************************************
 DATASETS  * FILE   NREC   LENGTH (MB)   RECORD NAMES
              1      20    23759.30       500      610      700      900      950      970     1000      129      960     1100   
                                          VAR    BASINP    GEOM    SYMINP    ZMAT    AOBASIS   BASIS     P2S    ABASIS      S 
                                         1400     1410     1200     1210     1080     1600     1650     1300     1700     1800   
                                           T        V       H0       H01     AOSYM     SMH    MOLCAS    ERIS     OPER     GRID   

              2       5        7.31       700     1000      520     1800     2100   
                                         GEOM     BASIS   MCVARS    GRID      RKS  

 PROGRAMS   *        TOTAL        KS       INT
 CPU TIMES  *      1383.98    944.75    439.09
 REAL TIME  *     10044.33 SEC
 DISK USED  *        89.43 GB      
 **********************************************************************************************************************************


 PROGRAM * Intrinsic Basis Bonding Analysis (IBBA)          Author: G. Knizia

 Molecular orbitals read from record     2100.2  Type=RKS/CANONICAL (state 1.1)
 Fock matrix read from record            2100.2  Type=RKS/TOTAL (state 1.1)
 Orbital energies read from record       2100.2  Type=RKS/CANONICAL (state 1.1)
 Density matrix read from record         2100.2  Type=RKS/CHARGE (state 1.1)

 Number of core orbitals:           5 (   5 )
 Number of closed-shell orbitals:  16 (  16 )

 Basis set MINAO-AUTO-PP generated.      Number of basis functions:   35 

 Polarized AO type:                A = (O Ot + (1-O)(1-Ot)) P12
 Orthogonalization method:         Symmetric (Loewdin)
 Localization functional:          L = sum[A,i] <i|n_A|i>^4 -> max

 Localization group 1:  21 orbitals, occupancy  2.000
 Iterative localization: IB/PM,    7 iter; Final gradient 0.88E-08

 Bond order analysis:       [THRPRINT= 0.020]

   CEN ATOM   CEN ATOM     WIBERG.BO      RENORM.BO
     1   C  -   2   C       0.997974       0.994593
     1   C  -   5   H       0.963194       0.987920
     1   C  -   6   H       0.957216       0.980056
     1   C  -   7   H       0.957216       0.980056

     2   C  -   1   C       0.997974       0.994593
     2   C  -   9   C       0.994801       0.975303
     2   C  -   8   C       0.994801       0.975303
     2   C  -   3   O       0.921653       0.946570

     3   O  -   2   C       0.921653       0.946570
     3   O  -   4   H       0.844371       0.975991
     3   O  -   8   C       0.028604       0.014390
     3   O  -   9   C       0.028604       0.014390

     4   H  -   3   O       0.844371       0.975991

     5   H  -   1   C       0.963194       0.987920

     6   H  -   1   C       0.957216       0.980056

     7   H  -   1   C       0.957216       0.980056

     8   C  -   2   C       0.994801       0.975303
     8   C  -  14   H       0.961686       0.980668
     8   C  -  12   H       0.958262       0.979871
     8   C  -  10   H       0.957929       0.979950
     8   C  -   3   O       0.028604       0.014390

     9   C  -   2   C       0.994801       0.975303
     9   C  -  15   H       0.961686       0.980668
     9   C  -  13   H       0.958262       0.979871
     9   C  -  11   H       0.957929       0.979950
     9   C  -   3   O       0.028604       0.014390

    10   H  -   8   C       0.957929       0.979950

    11   H  -   9   C       0.957929       0.979950

    12   H  -   8   C       0.958262       0.979871

    13   H  -   9   C       0.958262       0.979871

    14   H  -   8   C       0.961686       0.980668

    15   H  -   9   C       0.961686       0.980668


 Valency analysis:

   CEN ATOM   TOT.VALENCE
     1   C       3.938650
     2   C       3.918238
     3   O       1.892028
     4   H       0.865182
     5   H       0.980723
     6   H       0.978240
     7   H       0.978240
     8   C       3.940739
     9   C       3.940739
    10   H       0.978461
    11   H       0.978461
    12   H       0.980416
    13   H       0.980416
    14   H       0.982705
    15   H       0.982705

 Total charge composition:

   CEN ATOM         s          p       ELECTRONS ->P.CHARGE
     1   C       3.09681    3.34152      6.43833   -0.43833
     2   C       2.97450    2.71256      5.68707    0.31293
     3   O       3.69751    4.91661      8.61411   -0.61411
     4   H       0.63282                 0.63282    0.36718
     5   H       0.86116                 0.86116    0.13884
     6   H       0.85249                 0.85249    0.14751
     7   H       0.85249                 0.85249    0.14751
     8   C       3.10362    3.34536      6.44898   -0.44898
     9   C       3.10362    3.34536      6.44898   -0.44898
    10   H       0.85324                 0.85324    0.14676
    11   H       0.85324                 0.85324    0.14676
    12   H       0.86006                 0.86006    0.13994
    13   H       0.86006                 0.86006    0.13994
    14   H       0.86849                 0.86849    0.13151
    15   H       0.86849                 0.86849    0.13151

 Total charge composition, AO contributions:

   CEN ATOM SHL      SPHERICAL COMPONENTS
     1   C  1s       1.98871
     1   C  2s       1.10811
     1   C  2p       1.03533    1.14769    1.15849

     2   C  1s       1.99050
     2   C  2s       0.98401
     2   C  2p       0.97574    0.75828    0.97855

     3   O  1s       1.99666
     3   O  2s       1.70085
     3   O  2p       1.47482    1.48784    1.95395

     4   H  1s       0.63282

     5   H  1s       0.86116

     6   H  1s       0.85249

     7   H  1s       0.85249

     8   C  1s       1.98884
     8   C  2s       1.11479
     8   C  2p       1.12983    1.13035    1.08518

     9   C  1s       1.98884
     9   C  2s       1.11479
     9   C  2p       1.12983    1.13035    1.08518

    10   H  1s       0.85324

    11   H  1s       0.85324

    12   H  1s       0.86006

    13   H  1s       0.86006

    14   H  1s       0.86849

    15   H  1s       0.86849

 Summary of localized orbital composition:   [THRPRINT= 0.020]

   ORB  GRP  ORB.ENERGY      CENTERS/CHARGES
     1   1   -19.182285      O  3   2.000
     2   1   -10.330828      C  2   2.000
     3   1   -10.224270      C  8   2.000
     4   1   -10.224270      C  9   2.000
     5   1   -10.218660      C  1   2.000
     6   1    -0.747686      O  3   1.369   H  4   0.620
     7   1    -0.697561      O  3   1.306   C  2   0.673   (other: 0.021)
     8   1    -0.641443      O  3   1.982
     9   1    -0.561479      C  9   1.021   C  2   0.963
    10   1    -0.561479      C  8   1.021   C  2   0.963
    11   1    -0.560844      C  1   1.005   C  2   0.970   (other: 0.025)
    12   1    -0.484492      C  9   1.135   H 13   0.850
    13   1    -0.484492      C  8   1.135   H 12   0.850
    14   1    -0.482069      C  8   1.127   H 14   0.861
    15   1    -0.482069      C  9   1.127   H 15   0.861
    16   1    -0.480628      C  1   1.131   H  5   0.855
    17   1    -0.479029      C  9   1.143   H 11   0.845
    18   1    -0.479029      C  8   1.143   H 10   0.845
    19   1    -0.475058      C  1   1.143   H  6   0.844
    20   1    -0.475058      C  1   1.143   H  7   0.844
    21   1    -0.283754      O  3   1.954   (other: 0.046)

 Localized orbitals saved to record      2100.2  (orbital set 2)


 **********************************************************************************************************************************
 DATASETS  * FILE   NREC   LENGTH (MB)   RECORD NAMES
              1      20    23759.30       500      610      700      900      950      970     1000      129      960     1100   
                                          VAR    BASINP    GEOM    SYMINP    ZMAT    AOBASIS   BASIS     P2S    ABASIS      S 
                                         1400     1410     1200     1210     1080     1600     1650     1300     1700     1800   
                                           T        V       H0       H01     AOSYM     SMH    MOLCAS    ERIS     OPER     GRID   

              2       5        9.01       700     1000      520     1800     2100   
                                         GEOM     BASIS   MCVARS    GRID      RKS  

 PROGRAMS   *        TOTAL      IBBA        KS       INT
 CPU TIMES  *      1384.26      0.27    944.75    439.09
 REAL TIME  *     10044.92 SEC
 DISK USED  *        89.43 GB      
 **********************************************************************************************************************************
 Molecular orbitals read from record     2100.2  Type=RKS/LOCAL(IBO)  
 Occupation numbers read from record     2100.2  Type=RKS/LOCAL(IBO)  
 Orbital energies read from record       2100.2  Type=RKS/LOCAL(IBO)  
 Redundancy group numbers read from rec  2100.2  Type=RKS/LOCAL(IBO)  

 IBBA/aug-cc-pVTZ energy=      0.000000000000

        KS-SCF  
   -233.71015730
 **********************************************************************************************************************************
 Molpro calculation terminated
