
 Primary working directories    : /tmp/sb13343
 Secondary working directories  : /tmp/sb13343
 Wavefunction directory         : /panfs/panasas01/chem/sb13343/wfu/
 Main file repository           : /tmp/sb13343/

 SHA1      : b4a5b34a9e711420743f49e6833241d17c61fb3c
 NAME      : 2099.9.b4a5b34
 ARCHNAME  : linux/x86_64_openmp
 FC        : /cm/shared/languages/GCC-6.1/bin/gfortran
 BLASLIB   : -lblas
 id        : simonbennie

 Nodes     nprocs
 node32-036    1

 Using customized tuning parameters: mindgm=1; mindgv=20; mindgc=4; mindgr=1; noblas=0; minvec=7
 default implementation of scratch files=df  

 memory,500,m
 geomtyp=xyz
 nosym
 noorient
 geometry={
 C          0.00000        0.00000        0.00000
 C          0.00000        0.00000        1.53307
 O          1.40344        0.00000        1.86307
 C          1.76314        0.00000        3.22887
 H         -1.02289        0.00000       -0.39176
 H          0.51995       -0.88625       -0.37815
 H          0.51995        0.88625       -0.37815
 H          2.85677        0.00000        3.25413
 H          1.40708       -0.89217        3.76475
 H          1.40708        0.89217        3.76475
 C         -0.69252       -1.26694        2.06222
 C         -0.69252        1.26694        2.06222
 H         -0.15366       -2.16088        1.72982
 H         -0.15366        2.16088        1.72982
 H         -1.72011       -1.32515        1.68649
 H         -1.72011        1.32515        1.68649
 H         -0.74365       -1.28188        3.15638
 H         -0.74365        1.28188        3.15638
 }
 basis={ default,svp }
 {uks,M05,direct;wf,50,1,0}
 {ibba,bonds=1}

 Variables initialized (895), CPU time= 0.00 sec
 Commands  initialized (725), CPU time= 0.02 sec, 591 directives.
 Default parameters read. Elapsed time= 0.08 sec

 Checking input...
 Passed
1


                                         ***  PROGRAM SYSTEM MOLPRO  ***
                                       Copyright, TTI GmbH Stuttgart, 2015
                                    Version 2099.9 linked May 26 2017 16:03:21


 **********************************************************************************************************************************
 LABEL *                                                                                 
  64 bit serial version                                                                  DATE: 09-Jun-17          TIME: 02:02:36  
 **********************************************************************************************************************************

 SHA1:             b4a5b34a9e711420743f49e6833241d17c61fb3c
 **********************************************************************************************************************************
 SETTING GEOMTYP        =    XYZ

 Variable memory set to  500000000 words,  buffer space 

 ZSYMEL=NOSYM

 SETTING BASIS          =    SVP


 Recomputing integrals since basis changed


 Using spherical harmonics

 Library entry C      S def2-SVP             selected for orbital group  1
 Library entry C      P def2-SVP             selected for orbital group  1
 Library entry C      D def2-SVP             selected for orbital group  1
 Library entry O      S def2-SVP             selected for orbital group  2
 Library entry O      P def2-SVP             selected for orbital group  2
 Library entry O      D def2-SVP             selected for orbital group  2
 Library entry H      S def2-SVP             selected for orbital group  4
 Library entry H      P def2-SVP             selected for orbital group  4


 PROGRAM * SEWARD (Integral evaluation for generally contracted gaussian basis sets)     Author: Roland Lindh, 1990

 Geometry written to block  1 of record 700


 Point group  C1  



 ATOMIC COORDINATES

 NR  ATOM    CHARGE       X              Y              Z

   1  C       6.00    0.000000000    0.000000000    0.000000000
   2  C       6.00    0.000000000    0.000000000    2.897082430
   3  O       8.00    2.652117232    0.000000000    3.520692051
   4  C       6.00    3.331851719    0.000000000    6.101679992
   5  H       1.00   -1.932981956    0.000000000   -0.740319107
   6  H       1.00    0.982563098   -1.674769778   -0.714599934
   7  H       1.00    0.982563098    1.674769778   -0.714599934
   8  H       1.00    5.398512901    0.000000000    6.149414474
   9  H       1.00    2.658995835   -1.685956957    7.114346427
  10  H       1.00    2.658995835    1.685956957    7.114346427
  11  C       6.00   -1.308673136   -2.394169616    3.897031009
  12  C       6.00   -1.308673136    2.394169616    3.897031009
  13  H       1.00   -0.290375316   -4.083471388    3.268886045
  14  H       1.00   -0.290375316    4.083471388    3.268886045
  15  H       1.00   -3.250536804   -2.504170574    3.187004212
  16  H       1.00   -3.250536804    2.504170574    3.187004212
  17  H       1.00   -1.405294833   -2.422402125    5.964693745
  18  H       1.00   -1.405294833    2.422402125    5.964693745

 Bond lengths in Bohr (Angstrom)

 1-2  2.897082430  1-5  2.069901355  1-6  2.069042560  1-7  2.069042560  2-3  2.724447609
     ( 1.533070000)     ( 1.095344626)     ( 1.094890171)     ( 1.094890171)     ( 1.441715587)

  2-11  2.905954351   2-12  2.905954351   3- 4  2.668995640   4- 8  2.067212379   4- 9  2.078624355
       ( 1.537764818)       ( 1.537764818)       ( 1.412371669)       ( 1.093921681)       ( 1.099960639)

  4-10  2.078624355  11-13  2.070081404  11-15  2.070524757  11-17  2.070111596  12-14  2.070081404
       ( 1.099960639)       ( 1.095439904)       ( 1.095674516)       ( 1.095455880)       ( 1.095439904)

 12-16  2.070524757  12-18  2.070111596
       ( 1.095674516)       ( 1.095455880)

 Bond angles

  1- 2- 3  103.23196371   1- 2-11  110.12706952   1- 2-12  110.12706952   2- 1- 5  110.95650426

  2- 1- 6  110.20481748   2- 1- 7  110.20481748   2- 3- 4  117.98647004   2-11-13  110.26679927

  2-11-15  110.37287188   2-11-17  112.08316935   2-12-14  110.26679927   2-12-16  110.37287188

  2-12-18  112.08316935   3- 2-11  111.07703285   3- 2-12  111.07703285   3- 4- 8  106.07765410

  3- 4- 9  112.87219182   3- 4-10  112.87219182   5- 1- 6  108.65976572   5- 1- 7  108.65976572

  6- 1- 7  108.08288210   8- 4- 9  108.20190897   8- 4-10  108.20190897   9- 4-10  108.40564999

 11- 2-12  110.95103964  13-11-15  108.29648994  13-11-17  108.35544687  14-12-16  108.29648994

 14-12-18  108.35544687  15-11-17  107.33851825  16-12-18  107.33851825

 NUCLEAR CHARGE:                   50
 NUMBER OF PRIMITIVE AOS:         234
 NUMBER OF SYMMETRY AOS:          228
 NUMBER OF CONTRACTIONS:          144   ( 144A   )
 NUMBER OF CORE ORBITALS:           6   (   6A   )
 NUMBER OF VALENCE ORBITALS:       36   (  36A   )


 NUCLEAR REPULSION ENERGY  270.15500869


 Eigenvalues of metric

         1 0.176E-02 0.508E-02 0.513E-02 0.102E-01 0.124E-01 0.215E-01 0.221E-01 0.252E-01


 Contracted 2-electron integrals neglected if value below      1.0D-11
 AO integral compression algorithm  1   Integral accuracy      1.0D-11

     186.384 MB (compressed) written to integral file ( 41.3%)


 NUMBER OF SORTED TWO-ELECTRON INTEGRALS:   54502020.     BUFFER LENGTH:  32768
 NUMBER OF SEGMENTS:   4  SEGMENT LENGTH:   15999503      RECORD LENGTH: 524288

 Memory used in sort:      16.56 MW

 SORT1 READ    56333432. AND WROTE    45703433. INTEGRALS IN    132 RECORDS. CPU TIME:     0.74 SEC, REAL TIME:     1.38 SEC
 SORT2 READ    45703433. AND WROTE    54502020. INTEGRALS IN    711 RECORDS. CPU TIME:     1.18 SEC, REAL TIME:     1.49 SEC

 FILE SIZES:   FILE 1:   217.4 MBYTE,  FILE 4:   553.7 MBYTE,   TOTAL:    771.1 MBYTE

 OPERATOR DM      FOR CENTER  0  COORDINATES:    0.000000    0.000000    0.000000


 **********************************************************************************************************************************
 DATASETS  * FILE   NREC   LENGTH (MB)   RECORD NAMES
              1      19      194.45       500      610      700      900      950      970     1000      129      960     1100   
                                          VAR    BASINP    GEOM    SYMINP    ZMAT    AOBASIS   BASIS     P2S    ABASIS      S 
                                         1400     1410     1200     1210     1080     1600     1650     1300     1700   
                                           T        V       H0       H01     AOSYM     SMH    MOLCAS    ERIS     OPER   

 PROGRAMS   *        TOTAL       INT
 CPU TIMES  *         7.33      7.20
 REAL TIME  *         9.36 SEC
 DISK USED  *       771.70 MB      
 **********************************************************************************************************************************

 Density functional group M05=XC-M05
 Functional: XC-M05(via MFM 1.6)                                               Gradient terms: 1
 Use grid at  1800.2


 Exact exchange will be calculated, factor:  0.2800

 Functional: XC-M05                    Factor:  1.0000

 Generated new metagrid on record  1800.2 with target accuracy 1.0D-06 and 66012 points in CPU time    1.9
 Computed new grid on record 1800.1 in CPU time    2.2
  118710 words reserved for DFT integration

 PROGRAM * UKS-SCF (Unrestricted Kohn-Sham)     Authors: W. Meyer, H.-J. Werner, P.J. Knowles, 1993

 NUMBER OF ELECTRONS:      25+   25-    SPACE SYMMETRY=1    SPIN SYMMETRY: Singlet 
 CONVERGENCE THRESHOLDS:    1.00E-05 (Density)    1.00E-06 (Energy)
 MAX. NUMBER OF ITERATIONS:       60
 INTERPOLATION TYPE:            DIIS
 INTERPOLATION STEPS:              2 (START)      1 (STEP)
 LEVEL SHIFTS:                 -0.20 (ALPHA)  -0.20 (BETA) 



 Use fine grid record 1800.2 for energy threshold  1.0D-06
 Orbital guess generated from atomic densities. Full valence occupancy:   25

 Molecular orbital dump at record        2200.2

 Initial alpha occupation  25
 Initial beta  occupation  25

 ITERATION    DDIFF          GRAD             ENERGY        2-EL.EN.            DIPOLE MOMENTS         DIIS
    1      0.000D+00      0.000D+00      -272.36659689    794.995303   -0.72756    0.00000    0.63193    0
    2      0.844D-02      0.398D-02      -272.53607640    776.727954   -0.37837    0.00000    0.26761    1
    3      0.250D-02      0.155D-02      -272.55579327    780.688752   -0.42045    0.00000    0.34561    2
    4      0.997D-03      0.289D-03      -272.55714820    780.320802   -0.38346    0.00000    0.32341    3
    5      0.584D-03      0.154D-03      -272.55757749    780.296644   -0.38645    0.00000    0.32839    4
    6      0.332D-03      0.447D-04      -272.55764051    780.259009   -0.38116    0.00000    0.32850    5
    7      0.481D-04      0.801D-05      -272.55764198    780.243172   -0.38225    0.00000    0.32901    6
    8      0.123D-04      0.389D-05      -272.55764219    780.248474   -0.38204    0.00000    0.32916    7
    9      0.510D-05      0.984D-06      -272.55764221    780.247516   -0.38196    0.00000    0.32911    7
   10      0.144D-05      0.229D-06      -272.55764221    780.247962   -0.38203    0.00000    0.32916    7

 Final alpha occupancy:  25
 Final beta  occupancy:  25

 !UKS STATE 1.1 Energy               -272.557642211334
 Nuclear energy                       270.15500869
 One-electron energy                 -903.59982374
 Two-electron energy                  390.12398080
 Density functional                   -29.23680797     XC-M05=-29.23680797
 Virial quotient                       -1.01038069
 !UKS STATE 1.1 Dipole moment          -0.38202649     0.00000000     0.32916380
 Dipole moment /Debye                  -0.97095090     0.00000000     0.83659613

 Orbital energies for positive spin:

         1.1          2.1          3.1          4.1          5.1          6.1          7.1          8.1          9.1         10.1
    -19.165189   -10.276591   -10.255726   -10.207658   -10.207646   -10.201958    -1.035135    -0.810353    -0.706980    -0.702293

        11.1         12.1         13.1         14.1         15.1         16.1         17.1         18.1         19.1         20.1
     -0.678600    -0.557705    -0.493368    -0.471867    -0.469270    -0.438344    -0.421611    -0.406859    -0.390672    -0.381948

        21.1         22.1         23.1         24.1         25.1         26.1         27.1
     -0.373277    -0.352290    -0.351692    -0.306751    -0.261439     0.054515     0.086621

 Orbital energies for negative spin:

         1.1          2.1          3.1          4.1          5.1          6.1          7.1          8.1          9.1         10.1
    -19.165189   -10.276591   -10.255726   -10.207658   -10.207646   -10.201958    -1.035135    -0.810353    -0.706980    -0.702293

        11.1         12.1         13.1         14.1         15.1         16.1         17.1         18.1         19.1         20.1
     -0.678600    -0.557705    -0.493368    -0.471867    -0.469270    -0.438344    -0.421611    -0.406859    -0.390672    -0.381948

        21.1         22.1         23.1         24.1         25.1         26.1         27.1
     -0.373277    -0.352290    -0.351692    -0.306751    -0.261439     0.054515     0.086621

 HOMO     25.1    -0.261439 =      -7.1141eV
 LUMO     26.1     0.054515 =       1.4834eV
 LUMO-HOMO         0.315954 =       8.5975eV

 EXPECTATION VALUE OF S**2:             0.00000000

 Natural orbitals saved to record    2200.2 (Orbital set 3)

 Orbital spaces for UNO-CAS (Min. occupation: 0.020  Max. occupation: 1.980):

 Closed:       25
 Active:        0


 **********************************************************************************************************************************
 DATASETS  * FILE   NREC   LENGTH (MB)   RECORD NAMES
              1      20      196.57       500      610      700      900      950      970     1000      129      960     1100   
                                          VAR    BASINP    GEOM    SYMINP    ZMAT    AOBASIS   BASIS     P2S    ABASIS      S 
                                         1400     1410     1200     1210     1080     1600     1650     1300     1700     1800   
                                           T        V       H0       H01     AOSYM     SMH    MOLCAS    ERIS     OPER     GRID   

              2       5        3.91       700     1000      520     1800     2200   
                                         GEOM     BASIS   MCVARS    GRID      UKS  

 PROGRAMS   *        TOTAL       UKS       INT
 CPU TIMES  *        98.69     91.35      7.20
 REAL TIME  *       101.99 SEC
 DISK USED  *       771.70 MB      
 **********************************************************************************************************************************


 PROGRAM * Intrinsic Basis Bonding Analysis (IBBA)          Author: G. Knizia

 Molecular orbitals read from record     2200.2  Type=UKS/ALPHA (state 1.1)
 Fock matrix read from record            2200.2  Type=UKS/TOTAL (state 1.1)
 Orbital energies read from record       2200.2  Type=UKS/ALPHA (state 1.1)
 Density matrix read from record         2200.2  Type=UKS/CHARGE (state 1.1)

 Number of core orbitals:           6 (   6 )
 Number of closed-shell orbitals:  19 (  19 )

 Basis set MINAO-AUTO-PP generated.      Number of basis functions:   42 

 Polarized AO type:                A = (O Ot + (1-O)(1-Ot)) P12
 Orthogonalization method:         Symmetric (Loewdin)
 Localization functional:          L = sum[A,i] <i|n_A|i>^4 -> max

 Localization group 1:  25 orbitals, occupancy  2.000
 Iterative localization: IB/PM,    7 iter; Final gradient 0.55E-08

 Bond order analysis:       [THRPRINT= 0.020]

   CEN ATOM   CEN ATOM     WIBERG.BO      RENORM.BO
     1   C  -   2   C       0.996083       0.995165
     1   C  -   5   H       0.965141       0.986353
     1   C  -   7   H       0.960967       0.982190
     1   C  -   6   H       0.960967       0.982190

     2   C  -   1   C       0.996083       0.995165
     2   C  -  12   C       0.992099       0.972810
     2   C  -  11   C       0.992099       0.972810
     2   C  -   3   O       0.922190       0.937904

     3   O  -   4   C       0.987068       1.015680
     3   O  -   2   C       0.922190       0.937904
     3   O  -   9   H       0.033770       0.019948
     3   O  -  10   H       0.033770       0.019948
     3   O  -  12   C       0.025515       0.013276
     3   O  -  11   C       0.025515       0.013276

     4   C  -   3   O       0.987068       1.015680
     4   C  -   8   H       0.957071       0.977802
     4   C  -   9   H       0.949820       0.936894
     4   C  -  10   H       0.949820       0.936894

     5   H  -   1   C       0.965141       0.986353

     6   H  -   1   C       0.960967       0.982190

     7   H  -   1   C       0.960967       0.982190

     8   H  -   4   C       0.957071       0.977802

     9   H  -   4   C       0.949820       0.936894
     9   H  -   3   O       0.033770       0.019948

    10   H  -   4   C       0.949820       0.936894
    10   H  -   3   O       0.033770       0.019948

    11   C  -   2   C       0.992099       0.972810
    11   C  -  17   H       0.963483       0.982084
    11   C  -  15   H       0.961527       0.987161
    11   C  -  13   H       0.961121       0.982090
    11   C  -   3   O       0.025515       0.013276

    12   C  -   2   C       0.992099       0.972810
    12   C  -  18   H       0.963483       0.982084
    12   C  -  16   H       0.961527       0.987161
    12   C  -  14   H       0.961121       0.982090
    12   C  -   3   O       0.025515       0.013276

    13   H  -  11   C       0.961121       0.982090

    14   H  -  12   C       0.961121       0.982090

    15   H  -  11   C       0.961527       0.987161

    16   H  -  12   C       0.961527       0.987161

    17   H  -  11   C       0.963483       0.982084

    18   H  -  12   C       0.963483       0.982084


 Valency analysis:

   CEN ATOM   TOT.VALENCE
     1   C       3.940761
     2   C       3.930356
     3   O       2.093792
     4   C       3.866475
     5   H       0.983752
     6   H       0.981130
     7   H       0.981130
     8   H       0.978130
     9   H       0.987837
    10   H       0.987837
    11   C       3.940496
    12   C       3.940496
    13   H       0.981318
    14   H       0.981318
    15   H       0.981609
    16   H       0.981609
    17   H       0.983580
    18   H       0.983580

 Total charge composition:

   CEN ATOM         s          p       ELECTRONS ->P.CHARGE
     1   C       3.03188    3.36565      6.39753   -0.39753
     2   C       2.92759    2.81495      5.74254    0.25746
     3   O       3.60547    4.81157      8.41704   -0.41704
     4   C       3.01850    3.16094      6.17944   -0.17944
     5   H       0.87253                 0.87253    0.12747
     6   H       0.86263                 0.86263    0.13737
     7   H       0.86263                 0.86263    0.13737
     8   H       0.85211                 0.85211    0.14789
     9   H       0.88972                 0.88972    0.11028
    10   H       0.88972                 0.88972    0.11028
    11   C       3.03187    3.38562      6.41749   -0.41749
    12   C       3.03187    3.38562      6.41749   -0.41749
    13   H       0.86332                 0.86332    0.13668
    14   H       0.86332                 0.86332    0.13668
    15   H       0.86439                 0.86439    0.13561
    16   H       0.86439                 0.86439    0.13561
    17   H       0.87186                 0.87186    0.12814
    18   H       0.87186                 0.87186    0.12814

 Total charge composition, AO contributions:

   CEN ATOM SHL      SPHERICAL COMPONENTS
     1   C  1s       1.99085
     1   C  2s       1.04104
     1   C  2p       1.15626    1.16848    1.04091

     2   C  1s       1.99254
     2   C  2s       0.93505
     2   C  2p       0.78775    1.01382    1.01337

     3   O  1s       1.99722
     3   O  2s       1.60824
     3   O  2p       1.44423    1.91165    1.45569

     4   C  1s       1.99150
     4   C  2s       1.02699
     4   C  2p       1.15512    1.16358    0.84224

     5   H  1s       0.87253

     6   H  1s       0.86263

     7   H  1s       0.86263

     8   H  1s       0.85211

     9   H  1s       0.88972

    10   H  1s       0.88972

    11   C  1s       1.99090
    11   C  2s       1.04098
    11   C  2p       1.14178    1.09489    1.14895

    12   C  1s       1.99090
    12   C  2s       1.04098
    12   C  2p       1.14178    1.09489    1.14895

    13   H  1s       0.86332

    14   H  1s       0.86332

    15   H  1s       0.86439

    16   H  1s       0.86439

    17   H  1s       0.87186

    18   H  1s       0.87186

 Summary of localized orbital composition:   [THRPRINT= 0.020]

   ORB  GRP  ORB.ENERGY      CENTERS/CHARGES
     1   1   -19.018563      O  3   2.000
     2   1   -10.185184      C  2   2.000
     3   1   -10.145211      C  4   2.000
     4   1   -10.092209      C 12   2.000
     5   1   -10.092209      C 11   2.000
     6   1   -10.085825      C  1   2.000
     7   1    -0.770428      O  3   1.256   C  4   0.736
     8   1    -0.745850      O  3   1.283   C  2   0.693   (other: 0.024)
     9   1    -0.587656      C 11   1.008   C  2   0.977
    10   1    -0.587656      C 12   1.008   C  2   0.977
    11   1    -0.584548      C  1   0.991   C  2   0.986   (other: 0.022)
    12   1    -0.560040      O  3   1.961   (other: 0.039)
    13   1    -0.527829      C  4   1.129   H  9   0.869
    14   1    -0.527829      C  4   1.129   H 10   0.869
    15   1    -0.525079      C  4   1.146   H  8   0.845
    16   1    -0.513823      C 11   1.129   H 15   0.857
    17   1    -0.513823      C 12   1.129   H 16   0.857
    18   1    -0.511662      C 12   1.126   H 18   0.864
    19   1    -0.511662      C 11   1.126   H 17   0.864
    20   1    -0.509764      C  1   1.122   H  5   0.865
    21   1    -0.506655      C 12   1.134   H 14   0.855
    22   1    -0.506655      C 11   1.134   H 13   0.855
    23   1    -0.500988      C  1   1.135   H  7   0.855
    24   1    -0.500988      C  1   1.135   H  6   0.855
    25   1    -0.312975      O  3   1.912   (other: 0.088)

 Localized orbitals saved to record      2200.2  (orbital set 4)


 **********************************************************************************************************************************
 DATASETS  * FILE   NREC   LENGTH (MB)   RECORD NAMES
              1      20      196.57       500      610      700      900      950      970     1000      129      960     1100   
                                          VAR    BASINP    GEOM    SYMINP    ZMAT    AOBASIS   BASIS     P2S    ABASIS      S 
                                         1400     1410     1200     1210     1080     1600     1650     1300     1700     1800   
                                           T        V       H0       H01     AOSYM     SMH    MOLCAS    ERIS     OPER     GRID   

              2       5        4.08       700     1000      520     1800     2200   
                                         GEOM     BASIS   MCVARS    GRID      UKS  

 PROGRAMS   *        TOTAL      IBBA       UKS       INT
 CPU TIMES  *        98.74      0.05     91.35      7.20
 REAL TIME  *       102.14 SEC
 DISK USED  *       771.70 MB      
 **********************************************************************************************************************************
 Molecular orbitals read from record     2200.2  Type=UKS/LOCAL(IBO)  
 Occupation numbers read from record     2200.2  Type=UKS/LOCAL(IBO)  
 Orbital energies read from record       2200.2  Type=UKS/LOCAL(IBO)  
 Redundancy group numbers read from rec  2200.2  Type=UKS/BETA (state 1.1)

 IBBA/SVP energy=      0.000000000000

        UKS-SCF 
   -272.55764221
 **********************************************************************************************************************************
 Molpro calculation terminated
