
 Primary working directories    : /tmp/sb13343
 Secondary working directories  : /tmp/sb13343
 Wavefunction directory         : /panfs/panasas01/chem/sb13343/wfu/
 Main file repository           : /tmp/sb13343/

 SHA1      : b4a5b34a9e711420743f49e6833241d17c61fb3c
 NAME      : 2099.9.b4a5b34
 ARCHNAME  : linux/x86_64_openmp
 FC        : /cm/shared/languages/GCC-6.1/bin/gfortran
 BLASLIB   : -lblas
 id        : simonbennie

 Nodes     nprocs
 node32-007    1

 Using customized tuning parameters: mindgm=1; mindgv=20; mindgc=4; mindgr=1; noblas=0; minvec=7
 default implementation of scratch files=df  

 memory,500,m
 geomtyp=xyz
 nosym
 noorient
 geometry={
 C          0.00000        0.00000        0.00000
 C          0.00000        0.00000        1.53307
 O          1.40344        0.00000        1.86307
 C          1.76314        0.00000        3.22887
 H         -1.02289        0.00000       -0.39176
 H          0.51995       -0.88625       -0.37815
 H          0.51995        0.88625       -0.37815
 H          2.85677        0.00000        3.25413
 H          1.40708       -0.89217        3.76475
 H          1.40708        0.89217        3.76475
 C         -0.69252       -1.26694        2.06222
 C         -0.69252        1.26694        2.06222
 H         -0.15366       -2.16088        1.72982
 H         -0.15366        2.16088        1.72982
 H         -1.72011       -1.32515        1.68649
 H         -1.72011        1.32515        1.68649
 H         -0.74365       -1.28188        3.15638
 H         -0.74365        1.28188        3.15638
 }
 basis={ default,sto-3g }
 {uks,PW91,direct;wf,50,1,0}
 {ibba,bonds=1}

 Variables initialized (895), CPU time= 0.00 sec
 Commands  initialized (725), CPU time= 0.02 sec, 591 directives.
 Default parameters read. Elapsed time= 0.08 sec

 Checking input...
 Passed
1


                                         ***  PROGRAM SYSTEM MOLPRO  ***
                                       Copyright, TTI GmbH Stuttgart, 2015
                                    Version 2099.9 linked May 26 2017 16:03:21


 **********************************************************************************************************************************
 LABEL *                                                                                 
  64 bit serial version                                                                  DATE: 09-Jun-17          TIME: 01:42:21  
 **********************************************************************************************************************************

 SHA1:             b4a5b34a9e711420743f49e6833241d17c61fb3c
 **********************************************************************************************************************************
 SETTING GEOMTYP        =    XYZ

 Variable memory set to  500000000 words,  buffer space 

 ZSYMEL=NOSYM

 SETTING BASIS          =    STO-3G


 Recomputing integrals since basis changed


 Using spherical harmonics

 Library entry C      S STO-3G               selected for orbital group  1
 Library entry C      P STO-3G               selected for orbital group  1
 Library entry O      S STO-3G               selected for orbital group  2
 Library entry O      P STO-3G               selected for orbital group  2
 Library entry H      S STO-3G               selected for orbital group  4


 PROGRAM * SEWARD (Integral evaluation for generally contracted gaussian basis sets)     Author: Roland Lindh, 1990

 Geometry written to block  1 of record 700


 Point group  C1  



 ATOMIC COORDINATES

 NR  ATOM    CHARGE       X              Y              Z

   1  C       6.00    0.000000000    0.000000000    0.000000000
   2  C       6.00    0.000000000    0.000000000    2.897082430
   3  O       8.00    2.652117232    0.000000000    3.520692051
   4  C       6.00    3.331851719    0.000000000    6.101679992
   5  H       1.00   -1.932981956    0.000000000   -0.740319107
   6  H       1.00    0.982563098   -1.674769778   -0.714599934
   7  H       1.00    0.982563098    1.674769778   -0.714599934
   8  H       1.00    5.398512901    0.000000000    6.149414474
   9  H       1.00    2.658995835   -1.685956957    7.114346427
  10  H       1.00    2.658995835    1.685956957    7.114346427
  11  C       6.00   -1.308673136   -2.394169616    3.897031009
  12  C       6.00   -1.308673136    2.394169616    3.897031009
  13  H       1.00   -0.290375316   -4.083471388    3.268886045
  14  H       1.00   -0.290375316    4.083471388    3.268886045
  15  H       1.00   -3.250536804   -2.504170574    3.187004212
  16  H       1.00   -3.250536804    2.504170574    3.187004212
  17  H       1.00   -1.405294833   -2.422402125    5.964693745
  18  H       1.00   -1.405294833    2.422402125    5.964693745

 Bond lengths in Bohr (Angstrom)

 1-2  2.897082430  1-5  2.069901355  1-6  2.069042560  1-7  2.069042560  2-3  2.724447609
     ( 1.533070000)     ( 1.095344626)     ( 1.094890171)     ( 1.094890171)     ( 1.441715587)

  2-11  2.905954351   2-12  2.905954351   3- 4  2.668995640   4- 8  2.067212379   4- 9  2.078624355
       ( 1.537764818)       ( 1.537764818)       ( 1.412371669)       ( 1.093921681)       ( 1.099960639)

  4-10  2.078624355  11-13  2.070081404  11-15  2.070524757  11-17  2.070111596  12-14  2.070081404
       ( 1.099960639)       ( 1.095439904)       ( 1.095674516)       ( 1.095455880)       ( 1.095439904)

 12-16  2.070524757  12-18  2.070111596
       ( 1.095674516)       ( 1.095455880)

 Bond angles

  1- 2- 3  103.23196371   1- 2-11  110.12706952   1- 2-12  110.12706952   2- 1- 5  110.95650426

  2- 1- 6  110.20481748   2- 1- 7  110.20481748   2- 3- 4  117.98647004   2-11-13  110.26679927

  2-11-15  110.37287188   2-11-17  112.08316935   2-12-14  110.26679927   2-12-16  110.37287188

  2-12-18  112.08316935   3- 2-11  111.07703285   3- 2-12  111.07703285   3- 4- 8  106.07765410

  3- 4- 9  112.87219182   3- 4-10  112.87219182   5- 1- 6  108.65976572   5- 1- 7  108.65976572

  6- 1- 7  108.08288210   8- 4- 9  108.20190897   8- 4-10  108.20190897   9- 4-10  108.40564999

 11- 2-12  110.95103964  13-11-15  108.29648994  13-11-17  108.35544687  14-12-16  108.29648994

 14-12-18  108.35544687  15-11-17  107.33851825  16-12-18  107.33851825

 NUCLEAR CHARGE:                   50
 NUMBER OF PRIMITIVE AOS:         126
 NUMBER OF SYMMETRY AOS:          126
 NUMBER OF CONTRACTIONS:           42   (  42A   )
 NUMBER OF CORE ORBITALS:           6   (   6A   )
 NUMBER OF VALENCE ORBITALS:       36   (  36A   )


 NUCLEAR REPULSION ENERGY  270.15500869


 Eigenvalues of metric

         1 0.207E+00 0.226E+00 0.228E+00 0.234E+00 0.307E+00 0.355E+00 0.359E+00 0.362E+00


 Contracted 2-electron integrals neglected if value below      1.0D-11
 AO integral compression algorithm  1   Integral accuracy      1.0D-11

     2.884 MB (compressed) written to integral file ( 84.3%)


 NUMBER OF SORTED TWO-ELECTRON INTEGRALS:     408156.     BUFFER LENGTH:  32768
 NUMBER OF SEGMENTS:   1  SEGMENT LENGTH:     408156      RECORD LENGTH: 524288

 Memory used in sort:       0.97 MW

 SORT1 READ      453477. AND WROTE      382834. INTEGRALS IN      2 RECORDS. CPU TIME:     0.01 SEC, REAL TIME:     0.02 SEC
 SORT2 READ      382834. AND WROTE      408156. INTEGRALS IN     11 RECORDS. CPU TIME:     0.03 SEC, REAL TIME:     0.04 SEC

 FILE SIZES:   FILE 1:    33.2 MBYTE,  FILE 4:     8.4 MBYTE,   TOTAL:     41.6 MBYTE

 OPERATOR DM      FOR CENTER  0  COORDINATES:    0.000000    0.000000    0.000000


 **********************************************************************************************************************************
 DATASETS  * FILE   NREC   LENGTH (MB)   RECORD NAMES
              1      19       31.98       500      610      700      900      950      970     1000      129      960     1100   
                                          VAR    BASINP    GEOM    SYMINP    ZMAT    AOBASIS   BASIS     P2S    ABASIS      S 
                                         1400     1410     1200     1210     1080     1600     1650     1300     1700   
                                           T        V       H0       H01     AOSYM     SMH    MOLCAS    ERIS     OPER   

 PROGRAMS   *        TOTAL       INT
 CPU TIMES  *         0.85      0.70
 REAL TIME  *         1.26 SEC
 DISK USED  *        42.19 MB      
 **********************************************************************************************************************************

 Density functional group PW91=PW91X+PW91C
 Functional: PW91X(Automatically generated (new) PW91X)                        Gradient terms: 1
 Functional: PW91C(Automatically generated (new) PW91C)                        Gradient terms: 1
 Use grid at  1800.2

 Functional: PW91X                     Factor:  1.0000
 Functional: PW91C                     Factor:  1.0000

 Generated new metagrid on record  1800.2 with target accuracy 1.0D-06 and 66012 points in CPU time    2.0
 Computed new grid on record 1800.1 in CPU time    2.3
   38106 words reserved for DFT integration

 PROGRAM * UKS-SCF (Unrestricted Kohn-Sham)     Authors: W. Meyer, H.-J. Werner, P.J. Knowles, 1993

 NUMBER OF ELECTRONS:      25+   25-    SPACE SYMMETRY=1    SPIN SYMMETRY: Singlet 
 CONVERGENCE THRESHOLDS:    1.00E-05 (Density)    1.00E-06 (Energy)
 MAX. NUMBER OF ITERATIONS:       60
 INTERPOLATION TYPE:            DIIS
 INTERPOLATION STEPS:              2 (START)      1 (STEP)
 LEVEL SHIFTS:                 -0.20 (ALPHA)  -0.20 (BETA) 



 Use fine grid record 1800.2 for energy threshold  1.0D-06
 Orbital guess generated from atomic densities. Full valence occupancy:   25

 Molecular orbital dump at record        2200.2

 Initial alpha occupation  25
 Initial beta  occupation  25

 ITERATION    DDIFF          GRAD             ENERGY        2-EL.EN.            DIPOLE MOMENTS         DIIS
    1      0.000D+00      0.000D+00      -268.99776924    824.988103   -0.90158    0.00000    0.83541    0
    2      0.587D-01      0.188D-01      -269.42395075    799.864128   -0.21098    0.00000    0.02383    1
    3      0.102D-01      0.417D-02      -269.44320879    803.763113   -0.31818    0.00000    0.19880    2
    4      0.994D-03      0.378D-03      -269.44344373    803.734884   -0.32919    0.00000    0.20519    3
    5      0.430D-03      0.128D-03      -269.44348068    803.724628   -0.32789    0.00000    0.20763    4
    6      0.169D-03      0.327D-04      -269.44348397    803.723594   -0.32599    0.00000    0.20781    5
    7      0.357D-04      0.105D-04      -269.44348407    803.724360   -0.32681    0.00000    0.20837    5
    8      0.164D-04      0.647D-05      -269.44348412    803.723500   -0.32634    0.00000    0.20814    6
    9      0.211D-05      0.491D-06      -269.44348412    803.723609   -0.32636    0.00000    0.20816    6
   10      0.736D-06      0.243D-06      -269.44348412    803.723590   -0.32635    0.00000    0.20815    7

 Final alpha occupancy:  25
 Final beta  occupancy:  25

 !UKS STATE 1.1 Energy               -269.443484124970
 Nuclear energy                       270.15500869
 One-electron energy                 -901.31757802
 Two-electron energy                  401.86179520
 Density functional                   -40.14271000     PW91X=-38.36680807 PW91C= -1.77590193
 Virial quotient                       -1.01611890
 !UKS STATE 1.1 Dipole moment          -0.32634916     0.00000000     0.20814838
 Dipole moment /Debye                  -0.82944249     0.00000000     0.52902576

 Orbital energies for positive spin:

         1.1          2.1          3.1          4.1          5.1          6.1          7.1          8.1          9.1         10.1
    -18.505555    -9.785484    -9.760777    -9.719910    -9.718518    -9.718436    -0.869385    -0.679876    -0.589297    -0.586422

        11.1         12.1         13.1         14.1         15.1         16.1         17.1         18.1         19.1         20.1
     -0.563224    -0.445258    -0.387708    -0.365244    -0.360846    -0.342600    -0.323895    -0.309006    -0.299194    -0.284694

        21.1         22.1         23.1         24.1         25.1         26.1         27.1
     -0.284208    -0.254119    -0.250032    -0.136705    -0.068422     0.230611     0.311830

 Orbital energies for negative spin:

         1.1          2.1          3.1          4.1          5.1          6.1          7.1          8.1          9.1         10.1
    -18.505555    -9.785484    -9.760777    -9.719910    -9.718518    -9.718436    -0.869385    -0.679876    -0.589297    -0.586422

        11.1         12.1         13.1         14.1         15.1         16.1         17.1         18.1         19.1         20.1
     -0.563224    -0.445258    -0.387708    -0.365244    -0.360846    -0.342600    -0.323895    -0.309006    -0.299194    -0.284694

        21.1         22.1         23.1         24.1         25.1         26.1         27.1
     -0.284208    -0.254119    -0.250032    -0.136705    -0.068422     0.230611     0.311830

 HOMO     25.1    -0.068422 =      -1.8619eV
 LUMO     26.1     0.230611 =       6.2752eV
 LUMO-HOMO         0.299033 =       8.1371eV

 EXPECTATION VALUE OF S**2:            -0.00000000

 Natural orbitals saved to record    2200.2 (Orbital set 3)

 Orbital spaces for UNO-CAS (Min. occupation: 0.020  Max. occupation: 1.980):

 Closed:       25
 Active:        0


 **********************************************************************************************************************************
 DATASETS  * FILE   NREC   LENGTH (MB)   RECORD NAMES
              1      20       34.09       500      610      700      900      950      970     1000      129      960     1100   
                                          VAR    BASINP    GEOM    SYMINP    ZMAT    AOBASIS   BASIS     P2S    ABASIS      S 
                                         1400     1410     1200     1210     1080     1600     1650     1300     1700     1800   
                                           T        V       H0       H01     AOSYM     SMH    MOLCAS    ERIS     OPER     GRID   

              2       5        3.13       700     1000      520     1800     2200   
                                         GEOM     BASIS   MCVARS    GRID      UKS  

 PROGRAMS   *        TOTAL       UKS       INT
 CPU TIMES  *        10.05      9.20      0.70
 REAL TIME  *        10.79 SEC
 DISK USED  *        42.19 MB      
 **********************************************************************************************************************************


 PROGRAM * Intrinsic Basis Bonding Analysis (IBBA)          Author: G. Knizia

 Molecular orbitals read from record     2200.2  Type=UKS/ALPHA (state 1.1)
 Fock matrix read from record            2200.2  Type=UKS/TOTAL (state 1.1)
 Orbital energies read from record       2200.2  Type=UKS/ALPHA (state 1.1)
 Density matrix read from record         2200.2  Type=UKS/CHARGE (state 1.1)

 Number of core orbitals:           6 (   6 )
 Number of closed-shell orbitals:  19 (  19 )

 Basis set MINAO-AUTO-PP generated.      Number of basis functions:   42 

 Polarized AO type:                A = (O Ot + (1-O)(1-Ot)) P12
 Orthogonalization method:         Symmetric (Loewdin)
 Localization functional:          L = sum[A,i] <i|n_A|i>^4 -> max

 Localization group 1:  25 orbitals, occupancy  2.000
 Iterative localization: IB/PM,    7 iter; Final gradient 0.67E-08

 Bond order analysis:       [THRPRINT= 0.020]

   CEN ATOM   CEN ATOM     WIBERG.BO      RENORM.BO
     1   C  -   2   C       0.990066       0.987162
     1   C  -   5   H       0.964819       0.989455
     1   C  -   6   H       0.961925       0.986573
     1   C  -   7   H       0.961925       0.986573

     2   C  -   1   C       0.990066       0.987162
     2   C  -  12   C       0.985331       0.959108
     2   C  -  11   C       0.985331       0.959108
     2   C  -   3   O       0.979684       0.958177

     3   O  -   4   C       1.025722       1.015765
     3   O  -   2   C       0.979684       0.958177
     3   O  -   9   H       0.033152       0.019744
     3   O  -  10   H       0.033152       0.019744
     3   O  -  12   C       0.028226       0.014970
     3   O  -  11   C       0.028226       0.014970

     4   C  -   3   O       1.025722       1.015765
     4   C  -   8   H       0.952374       0.972876
     4   C  -   9   H       0.949491       0.939626
     4   C  -  10   H       0.949491       0.939626

     5   H  -   1   C       0.964819       0.989455

     6   H  -   1   C       0.961925       0.986573

     7   H  -   1   C       0.961925       0.986573

     8   H  -   4   C       0.952374       0.972876

     9   H  -   4   C       0.949491       0.939626
     9   H  -   3   O       0.033152       0.019744

    10   H  -   4   C       0.949491       0.939626
    10   H  -   3   O       0.033152       0.019744

    11   C  -   2   C       0.985331       0.959108
    11   C  -  17   H       0.963865       0.985246
    11   C  -  13   H       0.962589       0.986362
    11   C  -  15   H       0.962403       0.988855
    11   C  -   3   O       0.028226       0.014970

    12   C  -   2   C       0.985331       0.959108
    12   C  -  18   H       0.963865       0.985246
    12   C  -  14   H       0.962589       0.986362
    12   C  -  16   H       0.962403       0.988855
    12   C  -   3   O       0.028226       0.014970

    13   H  -  11   C       0.962589       0.986362

    14   H  -  12   C       0.962589       0.986362

    15   H  -  11   C       0.962403       0.988855

    16   H  -  12   C       0.962403       0.988855

    17   H  -  11   C       0.963865       0.985246

    18   H  -  12   C       0.963865       0.985246


 Valency analysis:

   CEN ATOM   TOT.VALENCE
     1   C       3.931558
     2   C       3.971252
     3   O       2.188080
     4   C       3.900875
     5   H       0.982095
     6   H       0.980448
     7   H       0.980448
     8   H       0.979530
     9   H       0.987286
    10   H       0.987286
    11   C       3.933162
    12   C       3.933162
    13   H       0.981207
    14   H       0.981207
    15   H       0.981247
    16   H       0.981247
    17   H       0.983016
    18   H       0.983016

 Total charge composition:

   CEN ATOM         s          p       ELECTRONS ->P.CHARGE
     1   C       3.00179    3.39757      6.39936   -0.39936
     2   C       2.94988    2.93296      5.88284    0.11716
     3   O       3.66276    4.54774      8.21050   -0.21050
     4   C       3.00772    3.26557      6.27328   -0.27328
     5   H       0.86619                 0.86619    0.13381
     6   H       0.86017                 0.86017    0.13983
     7   H       0.86017                 0.86017    0.13983
     8   H       0.85693                 0.85693    0.14307
     9   H       0.88725                 0.88725    0.11275
    10   H       0.88725                 0.88725    0.11275
    11   C       3.00238    3.41001      6.41238   -0.41238
    12   C       3.00238    3.41001      6.41238   -0.41238
    13   H       0.86291                 0.86291    0.13709
    14   H       0.86291                 0.86291    0.13709
    15   H       0.86306                 0.86306    0.13694
    16   H       0.86306                 0.86306    0.13694
    17   H       0.86968                 0.86968    0.13032
    18   H       0.86968                 0.86968    0.13032

 Total charge composition, AO contributions:

   CEN ATOM SHL      SPHERICAL COMPONENTS
     1   C  1s       1.99208
     1   C  2s       1.00972
     1   C  2p       1.17024    1.17850    1.04883

     2   C  1s       1.99350
     2   C  2s       0.95639
     2   C  2p       0.86898    1.03322    1.03076

     3   O  1s       1.99749
     3   O  2s       1.66527
     3   O  2p       1.31254    1.90368    1.33152

     4   C  1s       1.99261
     4   C  2s       1.01511
     4   C  2p       1.16870    1.17984    0.91702

     5   H  1s       0.86619

     6   H  1s       0.86017

     7   H  1s       0.86017

     8   H  1s       0.85693

     9   H  1s       0.88725

    10   H  1s       0.88725

    11   C  1s       1.99214
    11   C  2s       1.01024
    11   C  2p       1.15214    1.10030    1.15757

    12   C  1s       1.99214
    12   C  2s       1.01024
    12   C  2p       1.15214    1.10030    1.15757

    13   H  1s       0.86291

    14   H  1s       0.86291

    15   H  1s       0.86306

    16   H  1s       0.86306

    17   H  1s       0.86968

    18   H  1s       0.86968

 Summary of localized orbital composition:   [THRPRINT= 0.020]

   ORB  GRP  ORB.ENERGY      CENTERS/CHARGES
     1   1   -18.348635      O  3   2.000
     2   1    -9.695012      C  2   2.000
     3   1    -9.655676      C  4   2.000
     4   1    -9.610221      C  1   2.000
     5   1    -9.609470      C 12   2.000
     6   1    -9.609470      C 11   2.000
     7   1    -0.595290      O  3   1.161   C  4   0.830
     8   1    -0.561158      O  3   1.169   C  2   0.805   (other: 0.026)
     9   1    -0.469204      C  2   0.995   C  1   0.981   (other: 0.024)
    10   1    -0.468376      C 11   0.994   C  2   0.991
    11   1    -0.468376      C 12   0.994   C  2   0.991
    12   1    -0.429252      C  4   1.143   H  8   0.847
    13   1    -0.427856      C  4   1.131   H 10   0.867
    14   1    -0.427856      C  4   1.131   H  9   0.867
    15   1    -0.424259      O  3   1.967   (other: 0.033)
    16   1    -0.414677      C  1   1.130   H  5   0.859
    17   1    -0.414279      C 12   1.128   H 18   0.862
    18   1    -0.414279      C 11   1.128   H 17   0.862
    19   1    -0.414105      C 11   1.133   H 15   0.855
    20   1    -0.414105      C 12   1.133   H 16   0.855
    21   1    -0.410594      C 12   1.135   H 14   0.856
    22   1    -0.410594      C 11   1.135   H 13   0.856
    23   1    -0.408062      C  1   1.137   H  7   0.853
    24   1    -0.408062      C  1   1.137   H  6   0.853
    25   1    -0.099934      O  3   1.904   C  2   0.023   (other: 0.074)

 Localized orbitals saved to record      2200.2  (orbital set 4)


 **********************************************************************************************************************************
 DATASETS  * FILE   NREC   LENGTH (MB)   RECORD NAMES
              1      20       34.09       500      610      700      900      950      970     1000      129      960     1100   
                                          VAR    BASINP    GEOM    SYMINP    ZMAT    AOBASIS   BASIS     P2S    ABASIS      S 
                                         1400     1410     1200     1210     1080     1600     1650     1300     1700     1800   
                                           T        V       H0       H01     AOSYM     SMH    MOLCAS    ERIS     OPER     GRID   

              2       5        3.15       700     1000      520     1800     2200   
                                         GEOM     BASIS   MCVARS    GRID      UKS  

 PROGRAMS   *        TOTAL      IBBA       UKS       INT
 CPU TIMES  *        10.09      0.04      9.20      0.70
 REAL TIME  *        10.99 SEC
 DISK USED  *        42.19 MB      
 **********************************************************************************************************************************
 Molecular orbitals read from record     2200.2  Type=UKS/LOCAL(IBO)  
 Occupation numbers read from record     2200.2  Type=UKS/LOCAL(IBO)  
 Orbital energies read from record       2200.2  Type=UKS/LOCAL(IBO)  
 Redundancy group numbers read from rec  2200.2  Type=UKS/BETA (state 1.1)

 IBBA/STO-3G energy=      0.000000000000

        UKS-SCF 
   -269.44348412
 **********************************************************************************************************************************
 Molpro calculation terminated
