
 Primary working directories    : /tmp/sb13343
 Secondary working directories  : /tmp/sb13343
 Wavefunction directory         : /panfs/panasas01/chem/sb13343/wfu/
 Main file repository           : /tmp/sb13343/

 SHA1      : b4a5b34a9e711420743f49e6833241d17c61fb3c
 NAME      : 2099.9.b4a5b34
 ARCHNAME  : linux/x86_64_openmp
 FC        : /cm/shared/languages/GCC-6.1/bin/gfortran
 BLASLIB   : -lblas
 id        : simonbennie

 Nodes     nprocs
 node33-038    1

 Using customized tuning parameters: mindgm=1; mindgv=20; mindgc=4; mindgr=1; noblas=0; minvec=7
 default implementation of scratch files=df  

 memory,500,m
 geomtyp=xyz
 nosym
 noorient
 geometry={
 C         -1.53233        0.02247        0.00000
 C         -0.00192        0.01421        0.00000
 O          0.37239        1.40356        0.00000
 H          1.34248        1.44036        0.00000
 H         -1.92991       -0.99819        0.00000
 H         -1.90797        0.54382       -0.88653
 H         -1.90797        0.54382        0.88653
 C          0.54303       -0.66466       -1.26580
 C          0.54303       -0.66466        1.26580
 H          0.17836       -0.14752       -2.15943
 H          0.17836       -0.14752        2.15943
 H          0.23752       -1.71600       -1.32280
 H          0.23752       -1.71600        1.32280
 H          1.64084       -0.63767       -1.28032
 H          1.64084       -0.63767        1.28032
 }
 basis={ default,svp }
 {uks,VS99,direct;wf,42,1,0}
 {ibba,bonds=1}

 Variables initialized (895), CPU time= 0.00 sec
 Commands  initialized (725), CPU time= 0.02 sec, 591 directives.
 Default parameters read. Elapsed time= 0.14 sec

 Checking input...
 Passed
1


                                         ***  PROGRAM SYSTEM MOLPRO  ***
                                       Copyright, TTI GmbH Stuttgart, 2015
                                    Version 2099.9 linked May 26 2017 16:03:21


 **********************************************************************************************************************************
 LABEL *                                                                                 
  64 bit serial version                                                                  DATE: 09-Jun-17          TIME: 03:39:47  
 **********************************************************************************************************************************

 SHA1:             b4a5b34a9e711420743f49e6833241d17c61fb3c
 **********************************************************************************************************************************
 SETTING GEOMTYP        =    XYZ

 Variable memory set to  500000000 words,  buffer space 

 ZSYMEL=NOSYM

 SETTING BASIS          =    SVP


 Recomputing integrals since basis changed


 Using spherical harmonics

 Library entry C      S def2-SVP             selected for orbital group  1
 Library entry C      P def2-SVP             selected for orbital group  1
 Library entry C      D def2-SVP             selected for orbital group  1
 Library entry O      S def2-SVP             selected for orbital group  2
 Library entry O      P def2-SVP             selected for orbital group  2
 Library entry O      D def2-SVP             selected for orbital group  2
 Library entry H      S def2-SVP             selected for orbital group  3
 Library entry H      P def2-SVP             selected for orbital group  3


 PROGRAM * SEWARD (Integral evaluation for generally contracted gaussian basis sets)     Author: Roland Lindh, 1990

 Geometry written to block  1 of record 700


 Point group  C1  



 ATOMIC COORDINATES

 NR  ATOM    CHARGE       X              Y              Z

   1  C       6.00   -2.895684032    0.042462146    0.000000000
   2  C       6.00   -0.003628274    0.026853008    0.000000000
   3  O       8.00    0.703715112    2.652343999    0.000000000
   4  H       1.00    2.536919528    2.721885921    0.000000000
   5  H       1.00   -3.647001345   -1.886305720    0.000000000
   6  H       1.00   -3.605540754    1.027670861   -1.675298901
   7  H       1.00   -3.605540754    1.027670861    1.675298901
   8  C       6.00    1.026177977   -1.256025366   -2.392015328
   9  C       6.00    1.026177977   -1.256025366    2.392015328
  10  H       1.00    0.337051552   -0.278772398   -4.080731285
  11  H       1.00    0.337051552   -0.278772398    4.080731285
  12  H       1.00    0.448847749   -3.242770030   -2.499729718
  13  H       1.00    0.448847749   -3.242770030    2.499729718
  14  H       1.00    3.100738214   -1.205021658   -2.419454152
  15  H       1.00    3.100738214   -1.205021658    2.419454152

 Bond lengths in Bohr (Angstrom)

 1-2  2.892097881  1-5  2.069933136  1-6  2.069096224  1-7  2.069096224  2-3  2.719106031
     ( 1.530432290)     ( 1.095361444)     ( 1.094918569)     ( 1.094918569)     ( 1.438888946)

  2- 8  2.903104402   2- 9  2.903104402   3- 4  1.834522965   8-10  2.069222119   8-12  2.071730422
       ( 1.536256691)       ( 1.536256691)       ( 0.970787746)       ( 1.094985190)       ( 1.096312526)

  8-14  2.075368508   9-11  2.069222119   9-13  2.071730422   9-15  2.075368508
       ( 1.098237719)       ( 1.094985190)       ( 1.096312526)       ( 1.098237719)

 Bond angles

  1-2-3  104.76902697   1-2-8  110.92255387   1-2-9  110.92255387   2-1-5  110.97328220

  2- 1- 6  110.22090701   2- 1- 7  110.22090701   2- 3- 4  107.25071562   2- 8-10  110.21836376

  2- 8-12  111.57747468   2- 8-14  110.77023896   2- 9-11  110.21836376   2- 9-13  111.57747468

  2- 9-15  110.77023896   3- 2- 8  109.53648747   3- 2- 9  109.53648747   5- 1- 6  108.61190457

  5- 1- 7  108.61190457   6- 1- 7  108.12870271   8- 2- 9  110.96453384  10- 8-12  108.52192632

 10- 8-14  108.08997829  11- 9-13  108.52192632  11- 9-15  108.08997829  12- 8-14  107.54424578

 13- 9-15  107.54424578

 NUCLEAR CHARGE:                   42
 NUMBER OF PRIMITIVE AOS:         195
 NUMBER OF SYMMETRY AOS:          190
 NUMBER OF CONTRACTIONS:          120   ( 120A   )
 NUMBER OF CORE ORBITALS:           5   (   5A   )
 NUMBER OF VALENCE ORBITALS:       30   (  30A   )


 NUCLEAR REPULSION ENERGY  198.77359127


 Eigenvalues of metric

         1 0.176E-02 0.546E-02 0.548E-02 0.123E-01 0.248E-01 0.256E-01 0.256E-01 0.275E-01


 Contracted 2-electron integrals neglected if value below      1.0D-11
 AO integral compression algorithm  1   Integral accuracy      1.0D-11

     101.974 MB (compressed) written to integral file ( 44.9%)


 NUMBER OF SORTED TWO-ELECTRON INTEGRALS:   26357430.     BUFFER LENGTH:  32768
 NUMBER OF SEGMENTS:   2  SEGMENT LENGTH:   15997996      RECORD LENGTH: 524288

 Memory used in sort:      16.56 MW

 SORT1 READ    28411733. AND WROTE    24096425. INTEGRALS IN     70 RECORDS. CPU TIME:     0.35 SEC, REAL TIME:     0.67 SEC
 SORT2 READ    24096425. AND WROTE    26357430. INTEGRALS IN    389 RECORDS. CPU TIME:     0.61 SEC, REAL TIME:     4.34 SEC

 FILE SIZES:   FILE 1:   132.7 MBYTE,  FILE 4:   293.6 MBYTE,   TOTAL:    426.4 MBYTE

 OPERATOR DM      FOR CENTER  0  COORDINATES:    0.000000    0.000000    0.000000


 **********************************************************************************************************************************
 DATASETS  * FILE   NREC   LENGTH (MB)   RECORD NAMES
              1      19      120.44       500      610      700      900      950      970     1000      129      960     1100   
                                          VAR    BASINP    GEOM    SYMINP    ZMAT    AOBASIS   BASIS     P2S    ABASIS      S 
                                         1400     1410     1200     1210     1080     1600     1650     1300     1700   
                                           T        V       H0       H01     AOSYM     SMH    MOLCAS    ERIS     OPER   

 PROGRAMS   *        TOTAL       INT
 CPU TIMES  *         4.15      4.00
 REAL TIME  *         8.94 SEC
 DISK USED  *       426.89 MB      
 **********************************************************************************************************************************

 Density functional group VS99=VSXC
 Functional: VSXC(Automatically generated (new) VSXC)                          Gradient terms: 2
 Use grid at  1800.2

 Functional: VSXC                      Factor:  1.0000

 Generated new metagrid on record  1800.2 with target accuracy 1.0D-06 and 53396 points in CPU time    1.6
 Computed new grid on record 1800.1 in CPU time    1.8
  190979 words reserved for DFT integration

 PROGRAM * UKS-SCF (Unrestricted Kohn-Sham)     Authors: W. Meyer, H.-J. Werner, P.J. Knowles, 1993

 NUMBER OF ELECTRONS:      21+   21-    SPACE SYMMETRY=1    SPIN SYMMETRY: Singlet 
 CONVERGENCE THRESHOLDS:    1.00E-05 (Density)    1.00E-06 (Energy)
 MAX. NUMBER OF ITERATIONS:       60
 INTERPOLATION TYPE:            DIIS
 INTERPOLATION STEPS:              2 (START)      1 (STEP)
 LEVEL SHIFTS:                 -0.20 (ALPHA)  -0.20 (BETA) 



 Use fine grid record 1800.2 for energy threshold  1.0D-06
 Orbital guess generated from atomic densities. Full valence occupancy:   21

 Molecular orbital dump at record        2200.2

 Initial alpha occupation  21
 Initial beta  occupation  21

 ITERATION    DDIFF          GRAD             ENERGY        2-EL.EN.            DIPOLE MOMENTS         DIIS
    1      0.000D+00      0.000D+00      -232.40819217    635.345509    0.67292   -0.79401    0.00000    0
    2      0.109D-01      0.487D-02      -232.56926364    616.837049    0.27463   -0.41133    0.00000    1
    3      0.323D-02      0.222D-02      -232.59679644    621.487436    0.38483   -0.52208    0.00000    2
    4      0.986D-03      0.349D-03      -232.59784044    621.239522    0.36833   -0.46540    0.00000    3
    5      0.724D-03      0.159D-03      -232.59817965    621.165908    0.36422   -0.46651    0.00000    4
    6      0.418D-03      0.450D-04      -232.59822888    621.153421    0.36227   -0.45907    0.00000    5
    7      0.771D-04      0.175D-04      -232.59823217    621.128044    0.36095   -0.45893    0.00000    6
    8      0.356D-04      0.619D-05      -232.59823268    621.134607    0.36072   -0.45968    0.00000    7
    9      0.714D-05      0.840D-06      -232.59823269    621.134148    0.36076   -0.45936    0.00000    6
   10      0.174D-05      0.256D-06      -232.59823270    621.133878    0.36069   -0.45947    0.00000    7

 Final alpha occupancy:  21
 Final beta  occupancy:  21

 !UKS STATE 1.1 Energy               -232.598232695365
 Nuclear energy                       198.77359127
 One-electron energy                 -708.84731112
 Two-electron energy                  310.56693922
 Density functional                   -33.09145207     VSXC=-33.09145207
 Virial quotient                       -1.00847215
 !UKS STATE 1.1 Dipole moment           0.36069366    -0.45946610     0.00000000
 Dipole moment /Debye                   0.91673180    -1.16776986     0.00000000

 Orbital energies for positive spin:

         1.1          2.1          3.1          4.1          5.1          6.1          7.1          8.1          9.1         10.1
    -18.817624   -10.019390    -9.950922    -9.950912    -9.945772    -0.940382    -0.727046    -0.633804    -0.632688    -0.510811

        11.1         12.1         13.1         14.1         15.1         16.1         17.1         18.1         19.1         20.1
     -0.435631    -0.398538    -0.396975    -0.358405    -0.346062    -0.329290    -0.316316    -0.301854    -0.297609    -0.265091

        21.1         22.1         23.1
     -0.207426     0.034996     0.087840

 Orbital energies for negative spin:

         1.1          2.1          3.1          4.1          5.1          6.1          7.1          8.1          9.1         10.1
    -18.817624   -10.019390    -9.950922    -9.950912    -9.945772    -0.940382    -0.727046    -0.633804    -0.632688    -0.510811

        11.1         12.1         13.1         14.1         15.1         16.1         17.1         18.1         19.1         20.1
     -0.435631    -0.398538    -0.396975    -0.358405    -0.346062    -0.329290    -0.316316    -0.301854    -0.297609    -0.265091

        21.1         22.1         23.1
     -0.207426     0.034996     0.087840

 HOMO     21.1    -0.207426 =      -5.6444eV
 LUMO     22.1     0.034996 =       0.9523eV
 LUMO-HOMO         0.242423 =       6.5967eV

 EXPECTATION VALUE OF S**2:             0.00000000

 Natural orbitals saved to record    2200.2 (Orbital set 3)

 Orbital spaces for UNO-CAS (Min. occupation: 0.020  Max. occupation: 1.980):

 Closed:       21
 Active:        0


 **********************************************************************************************************************************
 DATASETS  * FILE   NREC   LENGTH (MB)   RECORD NAMES
              1      20      122.15       500      610      700      900      950      970     1000      129      960     1100   
                                          VAR    BASINP    GEOM    SYMINP    ZMAT    AOBASIS   BASIS     P2S    ABASIS      S 
                                         1400     1410     1200     1210     1080     1600     1650     1300     1700     1800   
                                           T        V       H0       H01     AOSYM     SMH    MOLCAS    ERIS     OPER     GRID   

              2       5        3.59       700     1000      520     1800     2200   
                                         GEOM     BASIS   MCVARS    GRID      UKS  

 PROGRAMS   *        TOTAL       UKS       INT
 CPU TIMES  *        88.69     84.54      4.00
 REAL TIME  *        93.84 SEC
 DISK USED  *       426.89 MB      
 **********************************************************************************************************************************


 PROGRAM * Intrinsic Basis Bonding Analysis (IBBA)          Author: G. Knizia

 Molecular orbitals read from record     2200.2  Type=UKS/ALPHA (state 1.1)
 Fock matrix read from record            2200.2  Type=UKS/TOTAL (state 1.1)
 Orbital energies read from record       2200.2  Type=UKS/ALPHA (state 1.1)
 Density matrix read from record         2200.2  Type=UKS/CHARGE (state 1.1)

 Number of core orbitals:           5 (   5 )
 Number of closed-shell orbitals:  16 (  16 )

 Basis set MINAO-AUTO-PP generated.      Number of basis functions:   35 

 Polarized AO type:                A = (O Ot + (1-O)(1-Ot)) P12
 Orthogonalization method:         Symmetric (Loewdin)
 Localization functional:          L = sum[A,i] <i|n_A|i>^4 -> max

 Localization group 1:  21 orbitals, occupancy  2.000
 Iterative localization: IB/PM,    7 iter; Final gradient 0.26E-08

 Bond order analysis:       [THRPRINT= 0.020]

   CEN ATOM   CEN ATOM     WIBERG.BO      RENORM.BO
     1   C  -   2   C       0.995729       0.992542
     1   C  -   5   H       0.963745       0.986279
     1   C  -   6   H       0.958638       0.980148
     1   C  -   7   H       0.958638       0.980148

     2   C  -   1   C       0.995729       0.992542
     2   C  -   9   C       0.993896       0.973120
     2   C  -   8   C       0.993896       0.973120
     2   C  -   3   O       0.936134       0.948634

     3   O  -   2   C       0.936134       0.948634
     3   O  -   4   H       0.868188       0.975509
     3   O  -   9   C       0.030243       0.015409
     3   O  -   8   C       0.030243       0.015409

     4   H  -   3   O       0.868188       0.975509

     5   H  -   1   C       0.963745       0.986279

     6   H  -   1   C       0.958638       0.980148

     7   H  -   1   C       0.958638       0.980148

     8   C  -   2   C       0.993896       0.973120
     8   C  -  14   H       0.962760       0.980835
     8   C  -  10   H       0.959250       0.979938
     8   C  -  12   H       0.958887       0.979493
     8   C  -   3   O       0.030243       0.015409

     9   C  -   2   C       0.993896       0.973120
     9   C  -  15   H       0.962760       0.980835
     9   C  -  11   H       0.959250       0.979938
     9   C  -  13   H       0.958887       0.979493
     9   C  -   3   O       0.030243       0.015409

    10   H  -   8   C       0.959250       0.979938

    11   H  -   9   C       0.959250       0.979938

    12   H  -   8   C       0.958887       0.979493

    13   H  -   9   C       0.958887       0.979493

    14   H  -   8   C       0.962760       0.980835

    15   H  -   9   C       0.962760       0.980835


 Valency analysis:

   CEN ATOM   TOT.VALENCE
     1   C       3.941107
     2   C       3.930402
     3   O       1.937817
     4   H       0.888542
     5   H       0.983239
     6   H       0.980708
     7   H       0.980708
     8   C       3.943449
     9   C       3.943449
    10   H       0.980842
    11   H       0.980842
    12   H       0.982484
    13   H       0.982484
    14   H       0.984852
    15   H       0.984852

 Total charge composition:

   CEN ATOM         s          p       ELECTRONS ->P.CHARGE
     1   C       3.04018    3.36503      6.40520   -0.40520
     2   C       2.93056    2.79834      5.72890    0.27110
     3   O       3.64516    4.91127      8.55643   -0.55643
     4   H       0.66615                 0.66615    0.33385
     5   H       0.87054                 0.87054    0.12946
     6   H       0.86110                 0.86110    0.13890
     7   H       0.86110                 0.86110    0.13890
     8   C       3.04695    3.37217      6.41913   -0.41913
     9   C       3.04695    3.37217      6.41913   -0.41913
    10   H       0.86159                 0.86159    0.13841
    11   H       0.86159                 0.86159    0.13841
    12   H       0.86765                 0.86765    0.13235
    13   H       0.86765                 0.86765    0.13235
    14   H       0.87692                 0.87692    0.12308
    15   H       0.87692                 0.87692    0.12308

 Total charge composition, AO contributions:

   CEN ATOM SHL      SPHERICAL COMPONENTS
     1   C  1s       1.99092
     1   C  2s       1.04925
     1   C  2p       1.04386    1.15440    1.16677

     2   C  1s       1.99264
     2   C  2s       0.93792
     2   C  2p       1.00465    0.78758    1.00611

     3   O  1s       1.99718
     3   O  2s       1.64799
     3   O  2p       1.46669    1.49334    1.95123

     4   H  1s       0.66615

     5   H  1s       0.87054

     6   H  1s       0.86110

     7   H  1s       0.86110

     8   C  1s       1.99103
     8   C  2s       1.05593
     8   C  2p       1.13747    1.13900    1.09570

     9   C  1s       1.99103
     9   C  2s       1.05593
     9   C  2p       1.13747    1.13900    1.09570

    10   H  1s       0.86159

    11   H  1s       0.86159

    12   H  1s       0.86765

    13   H  1s       0.86765

    14   H  1s       0.87692

    15   H  1s       0.87692

 Summary of localized orbital composition:   [THRPRINT= 0.020]

   ORB  GRP  ORB.ENERGY      CENTERS/CHARGES
     1   1   -18.664533      O  3   2.000
     2   1    -9.928828      C  2   2.000
     3   1    -9.836865      C  9   2.000
     4   1    -9.836865      C  8   2.000
     5   1    -9.830928      C  1   2.000
     6   1    -0.693015      O  3   1.336   H  4   0.654
     7   1    -0.661052      O  3   1.286   C  2   0.695
     8   1    -0.523470      C  9   1.013   C  2   0.971
     9   1    -0.523470      C  8   1.013   C  2   0.971
    10   1    -0.522786      C  1   0.995   C  2   0.980   (other: 0.025)
    11   1    -0.491018      O  3   1.980   (other: 0.020)
    12   1    -0.452932      C  8   1.128   H 12   0.857
    13   1    -0.452932      C  9   1.128   H 13   0.857
    14   1    -0.451727      C  9   1.118   H 15   0.869
    15   1    -0.451727      C  8   1.118   H 14   0.869
    16   1    -0.448622      C  1   1.123   H  5   0.863
    17   1    -0.446968      C  9   1.136   H 11   0.853
    18   1    -0.446968      C  8   1.136   H 10   0.853
    19   1    -0.442205      C  1   1.135   H  7   0.853
    20   1    -0.442205      C  1   1.135   H  6   0.853
    21   1    -0.233539      O  3   1.951   (other: 0.049)

 Localized orbitals saved to record      2200.2  (orbital set 4)


 **********************************************************************************************************************************
 DATASETS  * FILE   NREC   LENGTH (MB)   RECORD NAMES
              1      20      122.15       500      610      700      900      950      970     1000      129      960     1100   
                                          VAR    BASINP    GEOM    SYMINP    ZMAT    AOBASIS   BASIS     P2S    ABASIS      S 
                                         1400     1410     1200     1210     1080     1600     1650     1300     1700     1800   
                                           T        V       H0       H01     AOSYM     SMH    MOLCAS    ERIS     OPER     GRID   

              2       5        3.71       700     1000      520     1800     2200   
                                         GEOM     BASIS   MCVARS    GRID      UKS  

 PROGRAMS   *        TOTAL      IBBA       UKS       INT
 CPU TIMES  *        88.73      0.04     84.54      4.00
 REAL TIME  *        93.97 SEC
 DISK USED  *       426.89 MB      
 **********************************************************************************************************************************
 Molecular orbitals read from record     2200.2  Type=UKS/LOCAL(IBO)  
 Occupation numbers read from record     2200.2  Type=UKS/LOCAL(IBO)  
 Orbital energies read from record       2200.2  Type=UKS/LOCAL(IBO)  
 Redundancy group numbers read from rec  2200.2  Type=UKS/BETA (state 1.1)

 IBBA/SVP energy=      0.000000000000

        UKS-SCF 
   -232.59823270
 **********************************************************************************************************************************
 Molpro calculation terminated
