
 Primary working directories    : /tmp/sb13343
 Secondary working directories  : /tmp/sb13343
 Wavefunction directory         : /panfs/panasas01/chem/sb13343/wfu/
 Main file repository           : /tmp/sb13343/

 SHA1      : b4a5b34a9e711420743f49e6833241d17c61fb3c
 NAME      : 2099.9.b4a5b34
 ARCHNAME  : linux/x86_64_openmp
 FC        : /cm/shared/languages/GCC-6.1/bin/gfortran
 BLASLIB   : -lblas
 id        : simonbennie

 Nodes     nprocs
 node34-024    1

 Using customized tuning parameters: mindgm=1; mindgv=20; mindgc=4; mindgr=1; noblas=0; minvec=7
 default implementation of scratch files=df  

 memory,500,m
 geomtyp=xyz
 nosym
 noorient
 geometry={
 H         -1.13405        1.76167        0.00000
 C         -1.32915        0.67205        0.00000
 C         -0.06360       -0.12883        0.00000
 C          0.67426       -0.31636        1.28970
 C          0.67426       -0.31636       -1.28970
 H         -1.94006        0.46750        0.88859
 H         -1.94006        0.46750       -0.88859
 H          1.28359        0.56876        1.55544
 H         -0.01165       -0.48291        2.13019
 H          1.36783       -1.16569        1.24157
 H          1.28359        0.56876       -1.55544
 H         -0.01165       -0.48291       -2.13019
 H          1.36783       -1.16569       -1.24157
 }
 basis={ default,svp }
 {uks,MM06-HF,direct;wf,33,1,1}
 {ibba,bonds=1}

 Variables initialized (895), CPU time= 0.00 sec
 Commands  initialized (725), CPU time= 0.02 sec, 591 directives.
 Default parameters read. Elapsed time= 0.74 sec

 Checking input...
 Passed
1


                                         ***  PROGRAM SYSTEM MOLPRO  ***
                                       Copyright, TTI GmbH Stuttgart, 2015
                                    Version 2099.9 linked May 26 2017 16:03:21


 **********************************************************************************************************************************
 LABEL *                                                                                 
  64 bit serial version                                                                  DATE: 08-Jun-17          TIME: 20:41:30  
 **********************************************************************************************************************************

 SHA1:             b4a5b34a9e711420743f49e6833241d17c61fb3c
 **********************************************************************************************************************************
 SETTING GEOMTYP        =    XYZ

 Variable memory set to  500000000 words,  buffer space 

 ZSYMEL=NOSYM

 SETTING BASIS          =    SVP


 Recomputing integrals since basis changed


 Using spherical harmonics

 Library entry H      S def2-SVP             selected for orbital group  1
 Library entry H      P def2-SVP             selected for orbital group  1
 Library entry C      S def2-SVP             selected for orbital group  2
 Library entry C      P def2-SVP             selected for orbital group  2
 Library entry C      D def2-SVP             selected for orbital group  2


 PROGRAM * SEWARD (Integral evaluation for generally contracted gaussian basis sets)     Author: Roland Lindh, 1990

 Geometry written to block  1 of record 700


 Point group  C1  



 ATOMIC COORDINATES

 NR  ATOM    CHARGE       X              Y              Z

   1  H       1.00   -2.143043912    3.329073822    0.000000000
   2  C       6.00   -2.511729478    1.269990442    0.000000000
   3  C       6.00   -0.120186582   -0.243453417    0.000000000
   4  C       6.00    1.274166737   -0.597833757    2.437179783
   5  C       6.00    1.274166737   -0.597833757   -2.437179783
   6  H       1.00   -3.666182065    0.883446963    1.679191737
   7  H       1.00   -3.666182065    0.883446963   -1.679191737
   8  H       1.00    2.425633556    1.074800631    2.939355603
   9  H       1.00   -0.022015309   -0.912567643    4.025475693
  10  H       1.00    2.584824085   -2.202834846    2.346227264
  11  H       1.00    2.425633556    1.074800631   -2.939355603
  12  H       1.00   -0.022015309   -0.912567643   -4.025475693
  13  H       1.00    2.584824085   -2.202834846   -2.346227264

 Bond lengths in Bohr (Angstrom)

 1-2  2.091830159  2-3  2.830192527  2-6  2.074092940  2-7  2.074092940  3-4  2.830132841
     ( 1.106948849)     ( 1.497673388)     ( 1.097562717)     ( 1.097562717)     ( 1.497641803)

  3- 5  2.830132841   4- 8  2.091832255   4- 9  2.074085151   4-10  2.074156104   5-11  2.091832255
       ( 1.497641803)       ( 1.106949959)       ( 1.097558596)       ( 1.097596142)       ( 1.106949959)

  5-12  2.074085151   5-13  2.074156104
       ( 1.097558596)       ( 1.097596142)

 Bond angles

  1-2-3  112.17549786   1-2-6  106.35284965   1-2-7  106.35284965   2-3-4  118.89987932

  2-3-5  118.89987932   3-2-6  111.75744418   3-2-7  111.75744418   3-4-8  112.19808176

  3- 4- 9  111.75014522   3- 4-10  111.74379558   3- 5-11  112.19808176   3- 5-12  111.75014522

  3- 5-13  111.74379558   4- 3- 5  118.89276928   6- 2- 7  108.11431090   8- 4- 9  106.34995457

  8- 4-10  106.34572146   9- 4-10  108.12296896  11- 5-12  106.34995457  11- 5-13  106.34572146

 12- 5-13  108.12296896

 NUCLEAR CHARGE:                   33
 NUMBER OF PRIMITIVE AOS:         163
 NUMBER OF SYMMETRY AOS:          159
 NUMBER OF CONTRACTIONS:          101   ( 101A   )
 NUMBER OF CORE ORBITALS:           4   (   4A   )
 NUMBER OF VALENCE ORBITALS:       25   (  25A   )


 NUCLEAR REPULSION ENERGY  124.92676597


 Eigenvalues of metric

         1 0.371E-02 0.424E-02 0.424E-02 0.242E-01 0.242E-01 0.268E-01 0.277E-01 0.371E-01


 Contracted 2-electron integrals neglected if value below      1.0D-11
 AO integral compression algorithm  1   Integral accuracy      1.0D-11

     53.477 MB (compressed) written to integral file ( 46.4%)


 NUMBER OF SORTED TWO-ELECTRON INTEGRALS:   13268976.     BUFFER LENGTH:  32768
 NUMBER OF SEGMENTS:   1  SEGMENT LENGTH:   13268976      RECORD LENGTH: 524288

 Memory used in sort:      13.83 MW

 SORT1 READ    14422061. AND WROTE    12225547. INTEGRALS IN     35 RECORDS. CPU TIME:     0.19 SEC, REAL TIME:     0.40 SEC
 SORT2 READ    12225547. AND WROTE    13268976. INTEGRALS IN    204 RECORDS. CPU TIME:     0.38 SEC, REAL TIME:     0.49 SEC

 FILE SIZES:   FILE 1:    84.0 MBYTE,  FILE 4:   146.8 MBYTE,   TOTAL:    230.9 MBYTE

 OPERATOR DM      FOR CENTER  0  COORDINATES:    0.000000    0.000000    0.000000


 **********************************************************************************************************************************
 DATASETS  * FILE   NREC   LENGTH (MB)   RECORD NAMES
              1      19       77.16       500      610      700      900      950      970     1000      129      960     1100   
                                          VAR    BASINP    GEOM    SYMINP    ZMAT    AOBASIS   BASIS     P2S    ABASIS      S 
                                         1400     1410     1200     1210     1080     1600     1650     1300     1700   
                                           T        V       H0       H01     AOSYM     SMH    MOLCAS    ERIS     OPER   

 PROGRAMS   *        TOTAL       INT
 CPU TIMES  *         2.44      2.29
 REAL TIME  *         3.96 SEC
 DISK USED  *       231.35 MB      
 **********************************************************************************************************************************

 Density functional group MM06-HF=M06HFX+M06HFC
 Functional: M06HFX(Automatically generated (new) M06HFX)                      Gradient terms: 2
 Functional: M06HFC(Automatically generated (new) M06HFC)                      Gradient terms: 2
 Use grid at  1800.2


 Exact exchange will be calculated, factor:  1.0000

 Functional: M06HFX                    Factor:  1.0000
 Functional: M06HFC                    Factor:  1.0000

 Generated new metagrid on record  1800.2 with target accuracy 1.0D-06 and 45406 points in CPU time    1.4
 Computed new grid on record 1800.1 in CPU time    1.6
  161317 words reserved for DFT integration

 PROGRAM * UKS-SCF (Unrestricted Kohn-Sham)     Authors: W. Meyer, H.-J. Werner, P.J. Knowles, 1993

 NUMBER OF ELECTRONS:      17+   16-    SPACE SYMMETRY=1    SPIN SYMMETRY: Doublet 
 CONVERGENCE THRESHOLDS:    1.00E-05 (Density)    1.00E-06 (Energy)
 MAX. NUMBER OF ITERATIONS:       60
 INTERPOLATION TYPE:            DIIS
 INTERPOLATION STEPS:              2 (START)      1 (STEP)
 LEVEL SHIFTS:                 -0.20 (ALPHA)  -0.20 (BETA) 



 Use fine grid record 1800.2 for energy threshold  1.0D-06
 Orbital guess generated from atomic densities. Full valence occupancy:   17

 Molecular orbital dump at record        2200.2

 Initial alpha occupation  17
 Initial beta  occupation  16

 ITERATION    DDIFF          GRAD             ENERGY        2-EL.EN.            DIPOLE MOMENTS         DIIS
    1      0.000D+00      0.000D+00      -157.52594919    355.799410    0.13628    0.27579    0.00000    0
    2      0.460D-02      0.290D-02      -157.58103699    351.563717    0.08230    0.15568    0.00000    1
    3      0.142D-02      0.101D-02      -157.59008363    351.936627    0.07079    0.12528   -0.00000    2
    4      0.167D-02      0.569D-03      -157.59454158    351.832001    0.06088    0.09477   -0.00000    3
    5      0.823D-03      0.211D-03      -157.59515282    351.789770    0.05790    0.08474   -0.00000    4
    6      0.291D-03      0.850D-04      -157.59526813    351.782515    0.05573    0.07952   -0.00000    5
    7      0.923D-04      0.239D-04      -157.59527784    351.780979    0.05494    0.07828   -0.00000    6
    8      0.243D-04      0.603D-05      -157.59527843    351.780063    0.05492    0.07849   -0.00000    7
    9      0.101D-04      0.236D-05      -157.59527854    351.780902    0.05495    0.07866   -0.00000    7
   10      0.430D-05      0.906D-06      -157.59527856    351.780757    0.05494    0.07868   -0.00000    7
   11      0.204D-05      0.267D-06      -157.59527856    351.780849    0.05495    0.07870   -0.00000    7

 Final alpha occupancy:  17
 Final beta  occupancy:  16

 !UKS STATE 1.1 Energy               -157.595278557800
 Nuclear energy                       124.92676597
 One-electron energy                 -457.36719997
 Two-electron energy                  175.89042467
 Density functional                    -1.04526924     M06HFX= 0.08831678 M06HFC=-1.13358601
 Virial quotient                       -1.01337805
 !UKS STATE 1.1 Dipole moment           0.05494852     0.07870023    -0.00000000
 Dipole moment /Debye                   0.13965605     0.20002292    -0.00000000

 Orbital energies for positive spin:

         1.1          2.1          3.1          4.1          5.1          6.1          7.1          8.1          9.1         10.1
    -10.977016   -10.970666   -10.970626   -10.969093    -1.000748    -0.880800    -0.880020    -0.696843    -0.602785    -0.598049

        11.1         12.1         13.1         14.1         15.1         16.1         17.1         18.1         19.1
     -0.597068    -0.533652    -0.533531    -0.513254    -0.481824    -0.480806    -0.288086     0.120207     0.174887

 Orbital energies for negative spin:

         1.1          2.1          3.1          4.1          5.1          6.1          7.1          8.1          9.1         10.1
    -10.976767   -10.971104   -10.971061   -10.969603    -0.981456    -0.874289    -0.873134    -0.676221    -0.588332    -0.587532

        11.1         12.1         13.1         14.1         15.1         16.1         17.1         18.1         19.1
     -0.572242    -0.523670    -0.523462    -0.511777    -0.471836    -0.471265     0.070887     0.114164     0.169776

 HOMO     17.1    -0.288086 =      -7.8392eV
 LUMO    -17.1     0.070887 =       1.9289eV
 LUMO-HOMO         0.358973 =       9.7682eV

 EXPECTATION VALUE OF S**2:             0.75505113

 Occupation number threshold for canonical orbitals:  1.999000 (occupied),  0.001000 (virtual)

 Number of pseudo-canonical orbitals per symmetry:   16
 Number of active natural orbitals per symmetry:      1

 Natural orbitals saved to record    2200.2 (Orbital set 3)

 Orbital spaces for UNO-CAS (Min. occupation: 0.020  Max. occupation: 1.980):

 Closed:       16
 Active:        1


 **********************************************************************************************************************************
 DATASETS  * FILE   NREC   LENGTH (MB)   RECORD NAMES
              1      20       78.61       500      610      700      900      950      970     1000      129      960     1100   
                                          VAR    BASINP    GEOM    SYMINP    ZMAT    AOBASIS   BASIS     P2S    ABASIS      S 
                                         1400     1410     1200     1210     1080     1600     1650     1300     1700     1800   
                                           T        V       H0       H01     AOSYM     SMH    MOLCAS    ERIS     OPER     GRID   

              2       5        3.39       700     1000      520     1800     2200   
                                         GEOM     BASIS   MCVARS    GRID      UKS  

 PROGRAMS   *        TOTAL       UKS       INT
 CPU TIMES  *        72.42     69.98      2.29
 REAL TIME  *        74.92 SEC
 DISK USED  *       231.35 MB      
 **********************************************************************************************************************************


 PROGRAM * Intrinsic Basis Bonding Analysis (IBBA)          Author: G. Knizia

 Molecular orbitals read from record     2200.2  Type=UKS/ALPHA (state 1.1)
 Fock matrix read from record            2200.2  Type=UKS/TOTAL (state 1.1)
 Orbital energies read from record       2200.2  Type=UKS/ALPHA (state 1.1)
 Density matrix read from record         2200.2  Type=UKS/CHARGE (state 1.1)

 Number of core orbitals:           4 (   4 )
 Number of closed-shell orbitals:  12 (  12 )
 Number of active  orbitals:        1 (   1 )

 Basis set MINAO-AUTO-PP generated.      Number of basis functions:   29 

 Polarized AO type:                A = (O Ot + (1-O)(1-Ot)) P12
 Orthogonalization method:         Symmetric (Loewdin)
 Localization functional:          L = sum[A,i] <i|n_A|i>^4 -> max

 Localization group 1:  16 orbitals, occupancy  2.000
 Iterative localization: IB/PM,    8 iter; Final gradient 0.28E-08

 Bond order analysis:       [THRPRINT= 0.020]

   CEN ATOM   CEN ATOM     WIBERG.BO      RENORM.BO
     1   H  -   2   C       0.879363       0.995942
     1   H  -   3   C       0.054623       0.173621

     2   C  -   3   C       1.129120       1.305068
     2   C  -   6   H       0.949887       0.988944
     2   C  -   7   H       0.949887       0.988944
     2   C  -   1   H       0.879363       0.995942

     3   C  -   4   C       1.129419       1.306304
     3   C  -   5   C       1.129419       1.306304
     3   C  -   2   C       1.129120       1.305068
     3   C  -   1   H       0.054623       0.173621
     3   C  -   8   H       0.054581       0.173430
     3   C  -  11   H       0.054581       0.173430

     4   C  -   3   C       1.129419       1.306304
     4   C  -   9   H       0.949935       0.989011
     4   C  -  10   H       0.949237       0.989078
     4   C  -   8   H       0.879407       0.995889

     5   C  -   3   C       1.129419       1.306304
     5   C  -  12   H       0.949935       0.989011
     5   C  -  13   H       0.949237       0.989078
     5   C  -  11   H       0.879407       0.995889

     6   H  -   2   C       0.949887       0.988944

     7   H  -   2   C       0.949887       0.988944

     8   H  -   4   C       0.879407       0.995889
     8   H  -   3   C       0.054581       0.173430

     9   H  -   4   C       0.949935       0.989011

    10   H  -   4   C       0.949237       0.989078

    11   H  -   5   C       0.879407       0.995889
    11   H  -   3   C       0.054581       0.173430

    12   H  -   5   C       0.949935       0.989011

    13   H  -   5   C       0.949237       0.989078


 Valency analysis:

   CEN ATOM   TOT.VALENCE
     1   H       0.965280
     2   C       3.947694
     3   C       3.613475
     4   C       3.947490
     5   C       3.947490
     6   H       0.980184
     7   H       0.980184
     8   H       0.965342
     9   H       0.980099
    10   H       0.979875
    11   H       0.965342
    12   H       0.980099
    13   H       0.979875
 Localization group 2:   1 orbitals, occupancy  1.000
 Iterative localization: IB/PM,    1 iter; Final gradient 0.00E+00

 Bond order analysis:       [THRPRINT= 0.020]

   CEN ATOM   CEN ATOM     WIBERG.BO      RENORM.BO
     1   H  -   3   C       0.085691       0.500000


     3   C  -   8   H       0.085956       0.500000
     3   C  -  11   H       0.085956       0.500000
     3   C  -   1   H       0.085691       0.500000





     8   H  -   3   C       0.085956       0.500000



    11   H  -   3   C       0.085956       0.500000




 Valency analysis:

   CEN ATOM   TOT.VALENCE
     1   H       0.109783
     2   C       0.020462
     3   C       0.389496
     4   C       0.020301
     5   C       0.020301
     6   H       0.019301
     7   H       0.019301
     8   H       0.110101
     9   H       0.019112
    10   H       0.019875
    11   H       0.110101
    12   H       0.019112
    13   H       0.019875

 Total charge composition:

   CEN ATOM         s          p       ELECTRONS ->P.CHARGE
     1   H       0.87196                 0.87196    0.12804
     2   C       2.97812    3.34468      6.32280   -0.32280
     3   C       2.98209    3.22301      6.20510   -0.20510
     4   C       2.97845    3.34359      6.32204   -0.32204
     5   C       2.97845    3.34359      6.32204   -0.32204
     6   H       0.86898                 0.86898    0.13102
     7   H       0.86898                 0.86898    0.13102
     8   H       0.87230                 0.87230    0.12770
     9   H       0.86858                 0.86858    0.13142
    10   H       0.86818                 0.86818    0.13182
    11   H       0.87230                 0.87230    0.12770
    12   H       0.86858                 0.86858    0.13142
    13   H       0.86818                 0.86818    0.13182

 Total charge composition, AO contributions:

   CEN ATOM SHL      SPHERICAL COMPONENTS
     1   H  1s       0.87196

     2   C  1s       1.99027
     2   C  2s       0.98785
     2   C  2p       1.07807    1.09914    1.16747

     3   C  1s       1.99194
     3   C  2s       0.99015
     3   C  2p       1.06751    1.09806    1.05745

     4   C  1s       1.99026
     4   C  2s       0.98819
     4   C  2p       1.12888    1.13962    1.07509

     5   C  1s       1.99026
     5   C  2s       0.98819
     5   C  2p       1.12888    1.13962    1.07509

     6   H  1s       0.86898

     7   H  1s       0.86898

     8   H  1s       0.87230

     9   H  1s       0.86858

    10   H  1s       0.86818

    11   H  1s       0.87230

    12   H  1s       0.86858

    13   H  1s       0.86818

 Active orbital charges:

   CEN ATOM         s          p       ELECTRONS ->SPIN.DEN
     1   H       0.05829                 0.05829    0.05829
     2   C       0.00029    0.01005      0.01034    0.01034
     3   C       0.01032    0.72473      0.73506    0.73506
     4   C       0.00029    0.00996      0.01026    0.01026
     5   C       0.00029    0.00996      0.01026    0.01026
     6   H       0.00975                 0.00975    0.00975
     7   H       0.00975                 0.00975    0.00975
     8   H       0.05847                 0.05847    0.05847
     9   H       0.00965                 0.00965    0.00965
    10   H       0.01004                 0.01004    0.01004
    11   H       0.05847                 0.05847    0.05847
    12   H       0.00965                 0.00965    0.00965
    13   H       0.01004                 0.01004    0.01004

 Active orbital charges, AO contributions:

   CEN ATOM SHL      SPHERICAL COMPONENTS
     1   H  1s       0.05829

     2   C  1s       0.00000
     2   C  2s       0.00029
     2   C  2p       0.00024    0.00981    0.00000

     3   C  1s       0.00003
     3   C  2s       0.01029
     3   C  2p       0.14029    0.58444    0.00000

     4   C  1s       0.00000
     4   C  2s       0.00029
     4   C  2p       0.00304    0.00629    0.00063

     5   C  1s       0.00000
     5   C  2s       0.00029
     5   C  2p       0.00304    0.00629    0.00063

     6   H  1s       0.00975

     7   H  1s       0.00975

     8   H  1s       0.05847

     9   H  1s       0.00965

    10   H  1s       0.01004

    11   H  1s       0.05847

    12   H  1s       0.00965

    13   H  1s       0.01004

 Summary of localized orbital composition:   [THRPRINT= 0.020]

   ORB  GRP  ORB.ENERGY      CENTERS/CHARGES
     1   1   -10.873793      C  3   2.000
     2   1   -10.850727      C  5   2.000
     3   1   -10.850727      C  4   2.000
     4   1   -10.849273      C  2   2.000
     5   1    -0.755094      C  3   1.022   C  5   0.966
     6   1    -0.755094      C  3   1.022   C  4   0.966
     7   1    -0.753938      C  3   1.020   C  2   0.967
     8   1    -0.658738      C  4   1.090   H  8   0.806   C  3   0.096
     9   1    -0.658738      C  5   1.090   H 11   0.806   C  3   0.096
    10   1    -0.658390      C  2   1.091   H  1   0.805   C  3   0.096
    11   1    -0.657006      C  4   1.123   H 10   0.851   C  3   0.020
    12   1    -0.657006      C  5   1.123   H 13   0.851   C  3   0.020
    13   1    -0.656760      C  4   1.123   H  9   0.852   (other: 0.025)
    14   1    -0.656760      C  5   1.123   H 12   0.852   (other: 0.025)
    15   1    -0.654859      C  2   1.123   H  7   0.852   (other: 0.025)
    16   1    -0.654859      C  2   1.123   H  6   0.852   (other: 0.025)
    17   2    -0.108161      C  3   0.735   H  8   0.058   H 11   0.058   H  1   0.058   (other: 0.090)

 Localized orbitals saved to record      2200.2  (orbital set 4)


 **********************************************************************************************************************************
 DATASETS  * FILE   NREC   LENGTH (MB)   RECORD NAMES
              1      20       78.61       500      610      700      900      950      970     1000      129      960     1100   
                                          VAR    BASINP    GEOM    SYMINP    ZMAT    AOBASIS   BASIS     P2S    ABASIS      S 
                                         1400     1410     1200     1210     1080     1600     1650     1300     1700     1800   
                                           T        V       H0       H01     AOSYM     SMH    MOLCAS    ERIS     OPER     GRID   

              2       5        3.47       700     1000      520     1800     2200   
                                         GEOM     BASIS   MCVARS    GRID      UKS  

 PROGRAMS   *        TOTAL      IBBA       UKS       INT
 CPU TIMES  *        72.46      0.04     69.98      2.29
 REAL TIME  *        75.08 SEC
 DISK USED  *       231.35 MB      
 **********************************************************************************************************************************
 Molecular orbitals read from record     2200.2  Type=UKS/LOCAL(IBO)  
 Occupation numbers read from record     2200.2  Type=UKS/LOCAL(IBO)  
 Orbital energies read from record       2200.2  Type=UKS/LOCAL(IBO)  
 Redundancy group numbers read from rec  2200.2  Type=UKS/BETA (state 1.1)

 IBBA/SVP energy=      0.000000000000

        UKS-SCF 
   -157.59527856
 **********************************************************************************************************************************
 Molpro calculation terminated
