
 Primary working directories    : /local
 Secondary working directories  : /local
 Wavefunction directory         : /local/
 Main file repository           : /local/

 SHA1      : b4a5b34a9e711420743f49e6833241d17c61fb3c
 NAME      : 2099.9.b4a5b34
 ARCHNAME  : linux/x86_64_openmp
 FC        : /cm/shared/languages/GCC-6.1/bin/gfortran
 BLASLIB   : -lblas
 id        : simonbennie

 Nodes     nprocs
 node36-006    1

 Using customized tuning parameters: mindgm=1; mindgv=20; mindgc=4; mindgr=1; noblas=0; minvec=7
 default implementation of scratch files=df  

 memory,500,m
 geomtyp=xyz
 nosym
 noorient
 geometry={
 C         -1.53233        0.02247        0.00000
 C         -0.00192        0.01421        0.00000
 O          0.37239        1.40356        0.00000
 H          1.34248        1.44036        0.00000
 H         -1.92991       -0.99819        0.00000
 H         -1.90797        0.54382       -0.88653
 H         -1.90797        0.54382        0.88653
 C          0.54303       -0.66466       -1.26580
 C          0.54303       -0.66466        1.26580
 H          0.17836       -0.14752       -2.15943
 H          0.17836       -0.14752        2.15943
 H          0.23752       -1.71600       -1.32280
 H          0.23752       -1.71600        1.32280
 H          1.64084       -0.63767       -1.28032
 H          1.64084       -0.63767        1.28032
 }
 basis={ default,avtz }
 {uks,HFB,direct;wf,42,1,0}
 {ibba,bonds=1}

 Variables initialized (895), CPU time= 0.00 sec
 Commands  initialized (725), CPU time= 0.02 sec, 591 directives.
 Default parameters read. Elapsed time= 0.12 sec

 Checking input...
 Passed
1


                                         ***  PROGRAM SYSTEM MOLPRO  ***
                                       Copyright, TTI GmbH Stuttgart, 2015
                                    Version 2099.9 linked May 26 2017 16:03:21


 **********************************************************************************************************************************
 LABEL *                                                                                 
  64 bit serial version                                                                  DATE: 12-Jun-17          TIME: 15:02:53  
 **********************************************************************************************************************************

 SHA1:             b4a5b34a9e711420743f49e6833241d17c61fb3c
 **********************************************************************************************************************************
 SETTING GEOMTYP        =    XYZ

 Variable memory set to  500000000 words,  buffer space 

 ZSYMEL=NOSYM

 SETTING BASIS          =    AVTZ


 Recomputing integrals since basis changed


 Using spherical harmonics

 Library entry C      S aug-cc-pVTZ          selected for orbital group  1
 Library entry C      P aug-cc-pVTZ          selected for orbital group  1
 Library entry C      D aug-cc-pVTZ          selected for orbital group  1
 Library entry C      F aug-cc-pVTZ          selected for orbital group  1
 Library entry O      S aug-cc-pVTZ          selected for orbital group  2
 Library entry O      P aug-cc-pVTZ          selected for orbital group  2
 Library entry O      D aug-cc-pVTZ          selected for orbital group  2
 Library entry O      F aug-cc-pVTZ          selected for orbital group  2
 Library entry H      S aug-cc-pVTZ          selected for orbital group  3
 Library entry H      P aug-cc-pVTZ          selected for orbital group  3
 Library entry H      D aug-cc-pVTZ          selected for orbital group  3


 PROGRAM * SEWARD (Integral evaluation for generally contracted gaussian basis sets)     Author: Roland Lindh, 1990

 Geometry written to block  1 of record 700


 Point group  C1  



 ATOMIC COORDINATES

 NR  ATOM    CHARGE       X              Y              Z

   1  C       6.00   -2.895684032    0.042462146    0.000000000
   2  C       6.00   -0.003628274    0.026853008    0.000000000
   3  O       8.00    0.703715112    2.652343999    0.000000000
   4  H       1.00    2.536919528    2.721885921    0.000000000
   5  H       1.00   -3.647001345   -1.886305720    0.000000000
   6  H       1.00   -3.605540754    1.027670861   -1.675298901
   7  H       1.00   -3.605540754    1.027670861    1.675298901
   8  C       6.00    1.026177977   -1.256025366   -2.392015328
   9  C       6.00    1.026177977   -1.256025366    2.392015328
  10  H       1.00    0.337051552   -0.278772398   -4.080731285
  11  H       1.00    0.337051552   -0.278772398    4.080731285
  12  H       1.00    0.448847749   -3.242770030   -2.499729718
  13  H       1.00    0.448847749   -3.242770030    2.499729718
  14  H       1.00    3.100738214   -1.205021658   -2.419454152
  15  H       1.00    3.100738214   -1.205021658    2.419454152

 Bond lengths in Bohr (Angstrom)

 1-2  2.892097881  1-5  2.069933136  1-6  2.069096224  1-7  2.069096224  2-3  2.719106031
     ( 1.530432290)     ( 1.095361444)     ( 1.094918569)     ( 1.094918569)     ( 1.438888946)

  2- 8  2.903104402   2- 9  2.903104402   3- 4  1.834522965   8-10  2.069222119   8-12  2.071730422
       ( 1.536256691)       ( 1.536256691)       ( 0.970787746)       ( 1.094985190)       ( 1.096312526)

  8-14  2.075368508   9-11  2.069222119   9-13  2.071730422   9-15  2.075368508
       ( 1.098237719)       ( 1.094985190)       ( 1.096312526)       ( 1.098237719)

 Bond angles

  1-2-3  104.76902697   1-2-8  110.92255387   1-2-9  110.92255387   2-1-5  110.97328220

  2- 1- 6  110.22090701   2- 1- 7  110.22090701   2- 3- 4  107.25071562   2- 8-10  110.21836376

  2- 8-12  111.57747468   2- 8-14  110.77023896   2- 9-11  110.21836376   2- 9-13  111.57747468

  2- 9-15  110.77023896   3- 2- 8  109.53648747   3- 2- 9  109.53648747   5- 1- 6  108.61190457

  5- 1- 7  108.61190457   6- 1- 7  108.12870271   8- 2- 9  110.96453384  10- 8-12  108.52192632

 10- 8-14  108.08997829  11- 9-13  108.52192632  11- 9-15  108.08997829  12- 8-14  107.54424578

 13- 9-15  107.54424578

 NUCLEAR CHARGE:                   42
 NUMBER OF PRIMITIVE AOS:         605
 NUMBER OF SYMMETRY AOS:          540
 NUMBER OF CONTRACTIONS:          460   ( 460A   )
 NUMBER OF CORE ORBITALS:           5   (   5A   )
 NUMBER OF VALENCE ORBITALS:       30   (  30A   )


 NUCLEAR REPULSION ENERGY  198.77359127


 Eigenvalues of metric

         1 0.351E-05 0.596E-05 0.770E-05 0.977E-05 0.161E-04 0.173E-04 0.207E-04 0.297E-04


 Contracted 2-electron integrals neglected if value below      1.0D-12
 AO integral compression algorithm  1   Integral accuracy      1.0D-12

     24892.932 MB (compressed) written to integral file ( 51.7%)


 NUMBER OF SORTED TWO-ELECTRON INTEGRALS: 5621233465.     BUFFER LENGTH:  32768
 NUMBER OF SEGMENTS: 176  SEGMENT LENGTH:   31999951      RECORD LENGTH: 131072

 Memory used in sort:      32.16 MW

 SORT1 READ  6020115514. AND WROTE  5366777799. INTEGRALS IN  61513 RECORDS. CPU TIME:    87.94 SEC, REAL TIME:  1479.34 SEC
 SORT2 READ  5366777799. AND WROTE  5621233465. INTEGRALS IN  94959 RECORDS. CPU TIME:   144.32 SEC, REAL TIME:  2804.98 SEC

 FILE SIZES:   FILE 1: 24930.9 MBYTE,  FILE 4: 64501.1 MBYTE,   TOTAL:  89432.0 MBYTE

 OPERATOR DM      FOR CENTER  0  COORDINATES:    0.000000    0.000000    0.000000


 **********************************************************************************************************************************
 DATASETS  * FILE   NREC   LENGTH (MB)   RECORD NAMES
              1      19    23757.53       500      610      700      900      950      970     1000      129      960     1100   
                                          VAR    BASINP    GEOM    SYMINP    ZMAT    AOBASIS   BASIS     P2S    ABASIS      S 
                                         1400     1410     1200     1210     1080     1600     1650     1300     1700   
                                           T        V       H0       H01     AOSYM     SMH    MOLCAS    ERIS     OPER   

 PROGRAMS   *        TOTAL       INT
 CPU TIMES  *       440.85    440.72
 REAL TIME  *      4650.24 SEC
 DISK USED  *        89.43 GB      
 **********************************************************************************************************************************

 Density functional group HFB=B88
 Functional: B88(Automatically generated (new) B88)                            Gradient terms: 1
 Use grid at  1800.2

 Functional: B88                       Factor:  1.0000

 Generated new metagrid on record  1800.2 with target accuracy 1.0D-06 and 55396 points in CPU time    1.6
 Computed new grid on record 1800.1 in CPU time    1.8
  370324 words reserved for DFT integration

 PROGRAM * UKS-SCF (Unrestricted Kohn-Sham)     Authors: W. Meyer, H.-J. Werner, P.J. Knowles, 1993

 NUMBER OF ELECTRONS:      21+   21-    SPACE SYMMETRY=1    SPIN SYMMETRY: Singlet 
 CONVERGENCE THRESHOLDS:    1.00E-05 (Density)    1.00E-06 (Energy)
 MAX. NUMBER OF ITERATIONS:       60
 INTERPOLATION TYPE:            DIIS
 INTERPOLATION STEPS:              2 (START)      1 (STEP)
 LEVEL SHIFTS:                 -0.20 (ALPHA)  -0.20 (BETA) 



 Use fine grid record 1800.2 for energy threshold  1.0D-06
 Orbital guess generated from atomic densities. Full valence occupancy:   35

 Molecular orbital dump at record        2200.2

 Initial alpha occupation  21
 Initial beta  occupation  21

 ITERATION    DDIFF          GRAD             ENERGY        2-EL.EN.            DIPOLE MOMENTS         DIIS
    1      0.000D+00      0.000D+00      -231.97316887    639.243274    0.68965   -0.75583    0.00000    0
    2      0.906D-02      0.170D-02      -232.19664840    613.023019    0.15689   -0.44215    0.00000    1
    3      0.307D-02      0.103D-02      -232.27434117    621.311833    0.34278   -0.56933    0.00000    2
    4      0.541D-03      0.146D-03      -232.27605360    621.044052    0.32300   -0.50744    0.00000    3
    5      0.321D-03      0.618D-04      -232.27660247    620.943086    0.31981   -0.51570    0.00000    4
    6      0.306D-03      0.184D-04      -232.27673789    620.884033    0.31669   -0.50801    0.00000    5
    7      0.108D-03      0.655D-05      -232.27674813    620.836352    0.31413   -0.50784    0.00000    6
    8      0.490D-04      0.432D-05      -232.27675107    620.852791    0.31409   -0.50842    0.00000    7
    9      0.178D-04      0.634D-06      -232.27675130    620.849730    0.31405   -0.50785    0.00000    7
   10      0.528D-05      0.216D-06      -232.27675132    620.850430    0.31387   -0.50811    0.00000    7
   11      0.266D-05      0.687D-07      -232.27675132    620.850179    0.31392   -0.50802    0.00000    7

 Final alpha occupancy:  21
 Final beta  occupancy:  21

 !UKS STATE 1.1 Energy               -232.276751320967
 Nuclear energy                       198.77359127
 One-electron energy                 -708.93460094
 Two-electron energy                  310.42508945
 Density functional                   -32.54083111     B88=-32.54083111
 Virial quotient                       -0.99999449
 !UKS STATE 1.1 Dipole moment           0.31391648    -0.50801673     0.00000000
 Dipole moment /Debye                   0.79784384    -1.29116515     0.00000000

 Orbital energies for positive spin:

         1.1          2.1          3.1          4.1          5.1          6.1          7.1          8.1          9.1         10.1
    -18.739392    -9.932612    -9.868343    -9.868315    -9.863633    -0.894127    -0.678914    -0.589863    -0.589110    -0.478517

        11.1         12.1         13.1         14.1         15.1         16.1         17.1         18.1         19.1         20.1
     -0.405244    -0.369971    -0.367424    -0.333896    -0.320933    -0.305445    -0.292535    -0.280149    -0.274305    -0.246687

        21.1         22.1         23.1
     -0.194109    -0.014442     0.006277

 Orbital energies for negative spin:

         1.1          2.1          3.1          4.1          5.1          6.1          7.1          8.1          9.1         10.1
    -18.739391    -9.932612    -9.868343    -9.868315    -9.863633    -0.894126    -0.678914    -0.589863    -0.589110    -0.478517

        11.1         12.1         13.1         14.1         15.1         16.1         17.1         18.1         19.1         20.1
     -0.405244    -0.369971    -0.367424    -0.333896    -0.320933    -0.305445    -0.292535    -0.280148    -0.274305    -0.246687

        21.1         22.1         23.1
     -0.194108    -0.014442     0.006277

 HOMO    -21.1    -0.194108 =      -5.2819eV
 LUMO    -22.1    -0.014442 =      -0.3930eV
 LUMO-HOMO         0.179666 =       4.8890eV

 EXPECTATION VALUE OF S**2:             0.00000000

 Occupation number threshold for canonical orbitals:  1.999000 (occupied),  0.001000 (virtual)

 Number of pseudo-canonical orbitals per symmetry:   21
 Number of active natural orbitals per symmetry:      0

 Natural orbitals saved to record    2200.2 (Orbital set 3)

 Orbital spaces for UNO-CAS (Min. occupation: 0.020  Max. occupation: 1.980):

 Closed:       21
 Active:        0


 **********************************************************************************************************************************
 DATASETS  * FILE   NREC   LENGTH (MB)   RECORD NAMES
              1      20    23759.30       500      610      700      900      950      970     1000      129      960     1100   
                                          VAR    BASINP    GEOM    SYMINP    ZMAT    AOBASIS   BASIS     P2S    ABASIS      S 
                                         1400     1410     1200     1210     1080     1600     1650     1300     1700     1800   
                                           T        V       H0       H01     AOSYM     SMH    MOLCAS    ERIS     OPER     GRID   

              2       5       11.56       700     1000      520     1800     2200   
                                         GEOM     BASIS   MCVARS    GRID      UKS  

 PROGRAMS   *        TOTAL       UKS       INT
 CPU TIMES  *      1112.00    671.15    440.72
 REAL TIME  *      5554.79 SEC
 DISK USED  *        89.43 GB      
 **********************************************************************************************************************************


 PROGRAM * Intrinsic Basis Bonding Analysis (IBBA)          Author: G. Knizia

 Molecular orbitals read from record     2200.2  Type=UKS/ALPHA (state 1.1)
 Fock matrix read from record            2200.2  Type=UKS/TOTAL (state 1.1)
 Orbital energies read from record       2200.2  Type=UKS/ALPHA (state 1.1)
 Density matrix read from record         2200.2  Type=UKS/CHARGE (state 1.1)

 Number of core orbitals:           5 (   5 )
 Number of closed-shell orbitals:  16 (  16 )

 Basis set MINAO-AUTO-PP generated.      Number of basis functions:   35 

 Polarized AO type:                A = (O Ot + (1-O)(1-Ot)) P12
 Orthogonalization method:         Symmetric (Loewdin)
 Localization functional:          L = sum[A,i] <i|n_A|i>^4 -> max

 Localization group 1:  21 orbitals, occupancy  2.000
 Iterative localization: IB/PM,    7 iter; Final gradient 0.17E-08

 Bond order analysis:       [THRPRINT= 0.020]

   CEN ATOM   CEN ATOM     WIBERG.BO      RENORM.BO
     1   C  -   2   C       0.995987       0.994765
     1   C  -   5   H       0.964726       0.986058
     1   C  -   6   H       0.960205       0.979718
     1   C  -   7   H       0.960205       0.979718

     2   C  -   1   C       0.995987       0.994765
     2   C  -   9   C       0.994800       0.975560
     2   C  -   8   C       0.994800       0.975560
     2   C  -   3   O       0.934374       0.948541

     3   O  -   2   C       0.934374       0.948541
     3   O  -   4   H       0.866555       0.973051
     3   O  -   8   C       0.030002       0.015329
     3   O  -   9   C       0.030002       0.015329

     4   H  -   3   O       0.866555       0.973051

     5   H  -   1   C       0.964726       0.986058

     6   H  -   1   C       0.960205       0.979718

     7   H  -   1   C       0.960205       0.979718

     8   C  -   2   C       0.994800       0.975560
     8   C  -  14   H       0.963907       0.980649
     8   C  -  10   H       0.960741       0.979503
     8   C  -  12   H       0.959947       0.978702
     8   C  -   3   O       0.030002       0.015329

     9   C  -   2   C       0.994800       0.975560
     9   C  -  15   H       0.963907       0.980649
     9   C  -  11   H       0.960741       0.979503
     9   C  -  13   H       0.959947       0.978702
     9   C  -   3   O       0.030002       0.015329

    10   H  -   8   C       0.960741       0.979503

    11   H  -   9   C       0.960741       0.979503

    12   H  -   8   C       0.959947       0.978702

    13   H  -   9   C       0.959947       0.978702

    14   H  -   8   C       0.963907       0.980649

    15   H  -   9   C       0.963907       0.980649


 Valency analysis:

   CEN ATOM   TOT.VALENCE
     1   C       3.945227
     2   C       3.930278
     3   O       1.934512
     4   H       0.888556
     5   H       0.984426
     6   H       0.982200
     7   H       0.982200
     8   C       3.947542
     9   C       3.947542
    10   H       0.982245
    11   H       0.982245
    12   H       0.983924
    13   H       0.983924
    14   H       0.985874
    15   H       0.985874

 Total charge composition:

   CEN ATOM         s          p       ELECTRONS ->P.CHARGE
     1   C       3.03965    3.34557      6.38522   -0.38522
     2   C       2.94063    2.80034      5.74096    0.25904
     3   O       3.65209    4.90687      8.55896   -0.55896
     4   H       0.66617                 0.66617    0.33383
     5   H       0.87520                 0.87520    0.12480
     6   H       0.86658                 0.86658    0.13342
     7   H       0.86658                 0.86658    0.13342
     8   C       3.04702    3.35202      6.39905   -0.39905
     9   C       3.04702    3.35202      6.39905   -0.39905
    10   H       0.86675                 0.86675    0.13325
    11   H       0.86675                 0.86675    0.13325
    12   H       0.87321                 0.87321    0.12679
    13   H       0.87321                 0.87321    0.12679
    14   H       0.88115                 0.88115    0.11885
    15   H       0.88115                 0.88115    0.11885

 Total charge composition, AO contributions:

   CEN ATOM SHL      SPHERICAL COMPONENTS
     1   C  1s       1.99142
     1   C  2s       1.04823
     1   C  2p       1.03324    1.14998    1.16235

     2   C  1s       1.99301
     2   C  2s       0.94762
     2   C  2p       1.00554    0.78547    1.00933

     3   O  1s       1.99721
     3   O  2s       1.65488
     3   O  2p       1.46404    1.49116    1.95167

     4   H  1s       0.66617

     5   H  1s       0.87520

     6   H  1s       0.86658

     7   H  1s       0.86658

     8   C  1s       1.99152
     8   C  2s       1.05550
     8   C  2p       1.13305    1.13277    1.08620

     9   C  1s       1.99152
     9   C  2s       1.05550
     9   C  2p       1.13305    1.13277    1.08620

    10   H  1s       0.86675

    11   H  1s       0.86675

    12   H  1s       0.87321

    13   H  1s       0.87321

    14   H  1s       0.88115

    15   H  1s       0.88115

 Summary of localized orbital composition:   [THRPRINT= 0.020]

   ORB  GRP  ORB.ENERGY      CENTERS/CHARGES
     1   1   -18.585462      O  3   2.000
     2   1    -9.843117      C  2   2.000
     3   1    -9.756823      C  9   2.000
     4   1    -9.756823      C  8   2.000
     5   1    -9.751370      C  1   2.000
     6   1    -0.660600      O  3   1.337   H  4   0.653
     7   1    -0.622272      O  3   1.286   C  2   0.695
     8   1    -0.485027      C  9   1.007   C  2   0.977
     9   1    -0.485027      C  8   1.007   C  2   0.977
    10   1    -0.484704      C  1   0.990   C  2   0.984   (other: 0.025)
    11   1    -0.478159      O  3   1.980
    12   1    -0.422542      C  8   1.123   H 12   0.863
    13   1    -0.422542      C  9   1.123   H 13   0.863
    14   1    -0.420729      C  9   1.114   H 15   0.874
    15   1    -0.420729      C  8   1.114   H 14   0.874
    16   1    -0.418654      C  1   1.118   H  5   0.868
    17   1    -0.416744      C  8   1.131   H 10   0.858
    18   1    -0.416744      C  9   1.131   H 11   0.858
    19   1    -0.412498      C  1   1.130   H  7   0.858
    20   1    -0.412498      C  1   1.130   H  6   0.858
    21   1    -0.220495      O  3   1.952   (other: 0.048)

 Localized orbitals saved to record      2200.2  (orbital set 4)


 **********************************************************************************************************************************
 DATASETS  * FILE   NREC   LENGTH (MB)   RECORD NAMES
              1      20    23759.30       500      610      700      900      950      970     1000      129      960     1100   
                                          VAR    BASINP    GEOM    SYMINP    ZMAT    AOBASIS   BASIS     P2S    ABASIS      S 
                                         1400     1410     1200     1210     1080     1600     1650     1300     1700     1800   
                                           T        V       H0       H01     AOSYM     SMH    MOLCAS    ERIS     OPER     GRID   

              2       5       13.27       700     1000      520     1800     2200   
                                         GEOM     BASIS   MCVARS    GRID      UKS  

 PROGRAMS   *        TOTAL      IBBA       UKS       INT
 CPU TIMES  *      1112.25      0.25    671.15    440.72
 REAL TIME  *      5555.27 SEC
 DISK USED  *        89.43 GB      
 **********************************************************************************************************************************
 Molecular orbitals read from record     2200.2  Type=UKS/LOCAL(IBO)  
 Occupation numbers read from record     2200.2  Type=UKS/LOCAL(IBO)  
 Orbital energies read from record       2200.2  Type=UKS/LOCAL(IBO)  
 Redundancy group numbers read from rec  2200.2  Type=UKS/BETA (state 1.1)

 IBBA/aug-cc-pVTZ energy=      0.000000000000

        UKS-SCF 
   -232.27675132
 **********************************************************************************************************************************
 Molpro calculation terminated
