
 Primary working directories    : /local
 Secondary working directories  : /local
 Wavefunction directory         : /local/
 Main file repository           : /local/

 SHA1      : b4a5b34a9e711420743f49e6833241d17c61fb3c
 NAME      : 2099.9.b4a5b34
 ARCHNAME  : linux/x86_64_openmp
 FC        : /cm/shared/languages/GCC-6.1/bin/gfortran
 BLASLIB   : -lblas
 id        : simonbennie

 Nodes     nprocs
 node46-021    1

 Using customized tuning parameters: mindgm=1; mindgv=20; mindgc=4; mindgr=1; noblas=0; minvec=7
 default implementation of scratch files=df  

 memory,500,m
 geomtyp=xyz
 nosym
 noorient
 geometry={
 C         -1.53233        0.02247        0.00000
 C         -0.00192        0.01421        0.00000
 O          0.37239        1.40356        0.00000
 H          1.34248        1.44036        0.00000
 H         -1.92991       -0.99819        0.00000
 H         -1.90797        0.54382       -0.88653
 H         -1.90797        0.54382        0.88653
 C          0.54303       -0.66466       -1.26580
 C          0.54303       -0.66466        1.26580
 H          0.17836       -0.14752       -2.15943
 H          0.17836       -0.14752        2.15943
 H          0.23752       -1.71600       -1.32280
 H          0.23752       -1.71600        1.32280
 H          1.64084       -0.63767       -1.28032
 H          1.64084       -0.63767        1.28032
 }
 basis={ default,avtz }
 {ks,LSDAC,direct;wf,42,1,0}
 {ibba,bonds=1}

 Variables initialized (895), CPU time= 0.01 sec
 Commands  initialized (725), CPU time= 0.01 sec, 591 directives.
 Default parameters read. Elapsed time= 4.15 sec

 Checking input...
 Passed
1


                                         ***  PROGRAM SYSTEM MOLPRO  ***
                                       Copyright, TTI GmbH Stuttgart, 2015
                                    Version 2099.9 linked May 26 2017 16:03:21


 **********************************************************************************************************************************
 LABEL *                                                                                 
  64 bit serial version                                                                  DATE: 12-Jun-17          TIME: 15:12:02  
 **********************************************************************************************************************************

 SHA1:             b4a5b34a9e711420743f49e6833241d17c61fb3c
 **********************************************************************************************************************************
 SETTING GEOMTYP        =    XYZ

 Variable memory set to  500000000 words,  buffer space 

 ZSYMEL=NOSYM

 SETTING BASIS          =    AVTZ


 Recomputing integrals since basis changed


 Using spherical harmonics

 Library entry C      S aug-cc-pVTZ          selected for orbital group  1
 Library entry C      P aug-cc-pVTZ          selected for orbital group  1
 Library entry C      D aug-cc-pVTZ          selected for orbital group  1
 Library entry C      F aug-cc-pVTZ          selected for orbital group  1
 Library entry O      S aug-cc-pVTZ          selected for orbital group  2
 Library entry O      P aug-cc-pVTZ          selected for orbital group  2
 Library entry O      D aug-cc-pVTZ          selected for orbital group  2
 Library entry O      F aug-cc-pVTZ          selected for orbital group  2
 Library entry H      S aug-cc-pVTZ          selected for orbital group  3
 Library entry H      P aug-cc-pVTZ          selected for orbital group  3
 Library entry H      D aug-cc-pVTZ          selected for orbital group  3


 PROGRAM * SEWARD (Integral evaluation for generally contracted gaussian basis sets)     Author: Roland Lindh, 1990

 Geometry written to block  1 of record 700


 Point group  C1  



 ATOMIC COORDINATES

 NR  ATOM    CHARGE       X              Y              Z

   1  C       6.00   -2.895684032    0.042462146    0.000000000
   2  C       6.00   -0.003628274    0.026853008    0.000000000
   3  O       8.00    0.703715112    2.652343999    0.000000000
   4  H       1.00    2.536919528    2.721885921    0.000000000
   5  H       1.00   -3.647001345   -1.886305720    0.000000000
   6  H       1.00   -3.605540754    1.027670861   -1.675298901
   7  H       1.00   -3.605540754    1.027670861    1.675298901
   8  C       6.00    1.026177977   -1.256025366   -2.392015328
   9  C       6.00    1.026177977   -1.256025366    2.392015328
  10  H       1.00    0.337051552   -0.278772398   -4.080731285
  11  H       1.00    0.337051552   -0.278772398    4.080731285
  12  H       1.00    0.448847749   -3.242770030   -2.499729718
  13  H       1.00    0.448847749   -3.242770030    2.499729718
  14  H       1.00    3.100738214   -1.205021658   -2.419454152
  15  H       1.00    3.100738214   -1.205021658    2.419454152

 Bond lengths in Bohr (Angstrom)

 1-2  2.892097881  1-5  2.069933136  1-6  2.069096224  1-7  2.069096224  2-3  2.719106031
     ( 1.530432290)     ( 1.095361444)     ( 1.094918569)     ( 1.094918569)     ( 1.438888946)

  2- 8  2.903104402   2- 9  2.903104402   3- 4  1.834522965   8-10  2.069222119   8-12  2.071730422
       ( 1.536256691)       ( 1.536256691)       ( 0.970787746)       ( 1.094985190)       ( 1.096312526)

  8-14  2.075368508   9-11  2.069222119   9-13  2.071730422   9-15  2.075368508
       ( 1.098237719)       ( 1.094985190)       ( 1.096312526)       ( 1.098237719)

 Bond angles

  1-2-3  104.76902697   1-2-8  110.92255387   1-2-9  110.92255387   2-1-5  110.97328220

  2- 1- 6  110.22090701   2- 1- 7  110.22090701   2- 3- 4  107.25071562   2- 8-10  110.21836376

  2- 8-12  111.57747468   2- 8-14  110.77023896   2- 9-11  110.21836376   2- 9-13  111.57747468

  2- 9-15  110.77023896   3- 2- 8  109.53648747   3- 2- 9  109.53648747   5- 1- 6  108.61190457

  5- 1- 7  108.61190457   6- 1- 7  108.12870271   8- 2- 9  110.96453384  10- 8-12  108.52192632

 10- 8-14  108.08997829  11- 9-13  108.52192632  11- 9-15  108.08997829  12- 8-14  107.54424578

 13- 9-15  107.54424578

 NUCLEAR CHARGE:                   42
 NUMBER OF PRIMITIVE AOS:         605
 NUMBER OF SYMMETRY AOS:          540
 NUMBER OF CONTRACTIONS:          460   ( 460A   )
 NUMBER OF CORE ORBITALS:           5   (   5A   )
 NUMBER OF VALENCE ORBITALS:       30   (  30A   )


 NUCLEAR REPULSION ENERGY  198.77359127


 Eigenvalues of metric

         1 0.351E-05 0.596E-05 0.770E-05 0.977E-05 0.161E-04 0.173E-04 0.207E-04 0.297E-04


 Contracted 2-electron integrals neglected if value below      1.0D-12
 AO integral compression algorithm  1   Integral accuracy      1.0D-12

     24892.932 MB (compressed) written to integral file ( 51.7%)


 NUMBER OF SORTED TWO-ELECTRON INTEGRALS: 5621233465.     BUFFER LENGTH:  32768
 NUMBER OF SEGMENTS: 176  SEGMENT LENGTH:   31999951      RECORD LENGTH: 131072

 Memory used in sort:      32.16 MW

 SORT1 READ  6020115514. AND WROTE  5366777799. INTEGRALS IN  61513 RECORDS. CPU TIME:    83.12 SEC, REAL TIME:   857.63 SEC
 SORT2 READ  5366777799. AND WROTE  5621233465. INTEGRALS IN  94959 RECORDS. CPU TIME:   131.40 SEC, REAL TIME:  1318.86 SEC

 FILE SIZES:   FILE 1: 24930.9 MBYTE,  FILE 4: 64501.1 MBYTE,   TOTAL:  89432.0 MBYTE

 OPERATOR DM      FOR CENTER  0  COORDINATES:    0.000000    0.000000    0.000000


 **********************************************************************************************************************************
 DATASETS  * FILE   NREC   LENGTH (MB)   RECORD NAMES
              1      19    23757.53       500      610      700      900      950      970     1000      129      960     1100   
                                          VAR    BASINP    GEOM    SYMINP    ZMAT    AOBASIS   BASIS     P2S    ABASIS      S 
                                         1400     1410     1200     1210     1080     1600     1650     1300     1700   
                                           T        V       H0       H01     AOSYM     SMH    MOLCAS    ERIS     OPER   

 PROGRAMS   *        TOTAL       INT
 CPU TIMES  *       428.23    428.08
 REAL TIME  *      2523.83 SEC
 DISK USED  *        89.43 GB      
 **********************************************************************************************************************************

 Density functional group LSDAC=PW92C
 Functional: PW92C(Automatically generated (new) PW92C)                        Gradient terms: 0
 Use grid at  1800.2

 Functional: PW92C                     Factor:  1.0000

 Generated new metagrid on record  1800.2 with target accuracy 1.0D-06 and 55396 points in CPU time    1.6
 Computed new grid on record 1800.1 in CPU time    1.8
  195064 words reserved for DFT integration

 PROGRAM * RKS-SCF (Restricted closed shell Kohn-Sham)     Authors: W. Meyer, H.-J. Werner, P.J. Knowles, 1993

 NUMBER OF ELECTRONS:      21+   21-    SPACE SYMMETRY=1    SPIN SYMMETRY: Singlet 
 CONVERGENCE THRESHOLDS:    1.00E-05 (Density)    1.00E-06 (Energy)
 MAX. NUMBER OF ITERATIONS:       60
 INTERPOLATION TYPE:            DIIS
 INTERPOLATION STEPS:              2 (START)      1 (STEP)
 LEVEL SHIFTS:                  0.00 (CLOSED)  0.00 (OPEN) 



 Use fine grid record 1800.2 for energy threshold  1.0D-06
 Orbital guess generated from atomic densities. Full valence occupancy:   35

 Molecular orbital dump at record        2100.2

 Initial occupancy:  21

 ITERATION    DDIFF          GRAD             ENERGY        2-EL.EN.            DIPOLE MOMENTS         DIIS   ORB.
    1      0.000D+00      0.000D+00      -197.35140102    493.027336    3.44066   11.17247   -0.00000    0    start
    2      0.000D+00      0.204D-01      -166.04590527    758.044350  -10.28844  -35.77986    0.00000    1    diag
    3      0.184D+01      0.731D-01      -194.40836083    691.681173   -1.06208   -9.77442    0.00000    2    diag
    4      0.525D-01      0.347D-01      -198.31780347    638.395211   -8.31554  -12.37754   -0.00000    3    diag
    5      0.236D-01      0.227D-01      -202.05739743    633.137965    1.47437   -3.18429    0.00000    4    diag
    6      0.169D-01      0.123D-01      -203.16298597    589.391101   -2.19694   -2.05124   -0.00000    5    diag
    7      0.130D-01      0.606D-02      -203.40416391    597.787883    0.27453   -0.90908    0.00000    6    diag
    8      0.782D-02      0.300D-02      -203.48513671    589.271177    0.89811   -0.24805   -0.00000    7    diag
    9      0.534D-02      0.120D-02      -203.49664897    588.575208   -0.01745   -0.31112    0.00000    8    diag
   10      0.276D-02      0.339D-03      -203.49770775    589.292882    0.23128   -0.36448    0.00000    9    orth
   11      0.118D-02      0.133D-03      -203.49782765    589.151386    0.22403   -0.36070    0.00000    9    diag
   12      0.207D-03      0.399D-04      -203.49783981    589.021863    0.22092   -0.35050    0.00000    9    diag
   13      0.135D-03      0.209D-04      -203.49784294    589.058289    0.21426   -0.34636   -0.00000    9    diag
   14      0.335D-04      0.833D-05      -203.49784355    589.042915    0.21682   -0.34791   -0.00000    9    diag
   15      0.114D-04      0.183D-05      -203.49784358    589.047959    0.21581   -0.34868   -0.00000    9    diag
   16      0.637D-05      0.418D-06      -203.49784356    589.041041    0.21617   -0.34773   -0.00000    0    orth

 Final occupancy:  21

 !RKS STATE 1.1 Energy               -203.497843563023
 Nuclear energy                       198.77359127
 One-electron energy                 -694.24451516
 Two-electron energy                  294.52052061
 Density functional                    -2.54744028     PW92C=-2.54744028
 Virial quotient                       -0.97671508
 !RKS STATE 1.1 Dipole moment           0.21616760    -0.34773137    -0.00000000
 Dipole moment /Debye                   0.54940724    -0.88378709    -0.00000000

 Orbital energies:

         1.1          2.1          3.1          4.1          5.1          6.1          7.1          8.1          9.1         10.1
    -16.841510    -8.449839    -8.398629    -8.398612    -8.393327    -0.675319    -0.474618    -0.383003    -0.381206    -0.279434

        11.1         12.1         13.1         14.1         15.1         16.1         17.1         18.1         19.1         20.1
     -0.220331    -0.194058    -0.193623    -0.149731    -0.136960    -0.116413    -0.089515    -0.089439    -0.084835    -0.063999

        21.1         22.1         23.1
     -0.019730     0.013273     0.026358

 HOMO     21.1    -0.019730 =      -0.5369eV
 LUMO     22.1     0.013273 =       0.3612eV
 LUMO-HOMO         0.033004 =       0.8981eV


 **********************************************************************************************************************************
 DATASETS  * FILE   NREC   LENGTH (MB)   RECORD NAMES
              1      20    23759.30       500      610      700      900      950      970     1000      129      960     1100   
                                          VAR    BASINP    GEOM    SYMINP    ZMAT    AOBASIS   BASIS     P2S    ABASIS      S 
                                         1400     1410     1200     1210     1080     1600     1650     1300     1700     1800   
                                           T        V       H0       H01     AOSYM     SMH    MOLCAS    ERIS     OPER     GRID   

              2       5        7.31       700     1000      520     1800     2100   
                                         GEOM     BASIS   MCVARS    GRID      RKS  

 PROGRAMS   *        TOTAL        KS       INT
 CPU TIMES  *      1088.96    660.73    428.08
 REAL TIME  *      3319.84 SEC
 DISK USED  *        89.43 GB      
 **********************************************************************************************************************************


 PROGRAM * Intrinsic Basis Bonding Analysis (IBBA)          Author: G. Knizia

 Molecular orbitals read from record     2100.2  Type=RKS/CANONICAL (state 1.1)
 Fock matrix read from record            2100.2  Type=RKS/TOTAL (state 1.1)
 Orbital energies read from record       2100.2  Type=RKS/CANONICAL (state 1.1)
 Density matrix read from record         2100.2  Type=RKS/CHARGE (state 1.1)

 Number of core orbitals:           5 (   5 )
 Number of closed-shell orbitals:  16 (  16 )

 Basis set MINAO-AUTO-PP generated.      Number of basis functions:   35 

 Polarized AO type:                A = (O Ot + (1-O)(1-Ot)) P12
 Orthogonalization method:         Symmetric (Loewdin)
 Localization functional:          L = sum[A,i] <i|n_A|i>^4 -> max

 Localization group 1:  21 orbitals, occupancy  2.000
 Iterative localization: IB/PM,    7 iter; Final gradient 0.79E-08

 Bond order analysis:       [THRPRINT= 0.020]

   CEN ATOM   CEN ATOM     WIBERG.BO      RENORM.BO
     1   C  -   2   C       0.986248       0.998276
     1   C  -   5   H       0.955442       0.970673
     1   C  -   6   H       0.947425       0.953493
     1   C  -   7   H       0.947425       0.953493
     1   C  -   3   O       0.030754       0.016933
     1   C  -   4   H       0.024887       0.031955
     1   C  -  15   H       0.021312       0.022633
     1   C  -  14   H       0.021312       0.022633

     2   C  -   8   C       0.990862       0.975595
     2   C  -   9   C       0.990862       0.975595
     2   C  -   1   C       0.986248       0.998276
     2   C  -   3   O       0.963166       0.934782

     3   O  -   2   C       0.963166       0.934782
     3   O  -   4   H       0.899131       0.932977
     3   O  -   9   C       0.052675       0.028367
     3   O  -   8   C       0.052675       0.028367
     3   O  -  13   H       0.036096       0.025559
     3   O  -  12   H       0.036096       0.025559
     3   O  -   1   C       0.030754       0.016933
     3   O  -   5   H       0.021424       0.016448

     4   H  -   3   O       0.899131       0.932977
     4   H  -   1   C       0.024887       0.031955

     5   H  -   1   C       0.955442       0.970673
     5   H  -   3   O       0.021424       0.016448

     6   H  -   1   C       0.947425       0.953493
     6   H  -   9   C       0.024092       0.025069

     7   H  -   1   C       0.947425       0.953493
     7   H  -   8   C       0.024092       0.025069

     8   C  -   2   C       0.990862       0.975595
     8   C  -  14   H       0.947463       0.958099
     8   C  -  10   H       0.946617       0.949987
     8   C  -  12   H       0.945716       0.951823
     8   C  -   3   O       0.052675       0.028367
     8   C  -  11   H       0.024578       0.025594
     8   C  -   7   H       0.024092       0.025069

     9   C  -   2   C       0.990862       0.975595
     9   C  -  15   H       0.947463       0.958099
     9   C  -  11   H       0.946617       0.949987
     9   C  -  13   H       0.945716       0.951823
     9   C  -   3   O       0.052675       0.028367
     9   C  -  10   H       0.024578       0.025594
     9   C  -   6   H       0.024092       0.025069

    10   H  -   8   C       0.946617       0.949987
    10   H  -   9   C       0.024578       0.025594

    11   H  -   9   C       0.946617       0.949987
    11   H  -   8   C       0.024578       0.025594

    12   H  -   8   C       0.945716       0.951823
    12   H  -   3   O       0.036096       0.025559

    13   H  -   9   C       0.945716       0.951823
    13   H  -   3   O       0.036096       0.025559

    14   H  -   8   C       0.947463       0.958099
    14   H  -   1   C       0.021312       0.022633

    15   H  -   9   C       0.947463       0.958099
    15   H  -   1   C       0.021312       0.022633


 Valency analysis:

   CEN ATOM   TOT.VALENCE
     1   C       3.965990
     2   C       3.949007
     3   O       2.117819
     4   H       0.949050
     5   H       0.995151
     6   H       0.995121
     7   H       0.995121
     8   C       3.966548
     9   C       3.966548
    10   H       0.994909
    11   H       0.994909
    12   H       0.995455
    13   H       0.995455
    14   H       0.996331
    15   H       0.996331

 Total charge composition:

   CEN ATOM         s          p       ELECTRONS ->P.CHARGE
     1   C       2.95262    3.27039      6.22301   -0.22301
     2   C       2.87765    2.86770      5.74535    0.25465
     3   O       3.58308    4.78261      8.36569   -0.36569
     4   H       0.77428                 0.77428    0.22572
     5   H       0.93037                 0.93037    0.06963
     6   H       0.93015                 0.93015    0.06985
     7   H       0.93015                 0.93015    0.06985
     8   C       2.97362    3.27623      6.24985   -0.24985
     9   C       2.97362    3.27623      6.24985   -0.24985
    10   H       0.92865                 0.92865    0.07135
    11   H       0.92865                 0.92865    0.07135
    12   H       0.93258                 0.93258    0.06742
    13   H       0.93258                 0.93258    0.06742
    14   H       0.93943                 0.93943    0.06057
    15   H       0.93943                 0.93943    0.06057

 Total charge composition, AO contributions:

   CEN ATOM SHL      SPHERICAL COMPONENTS
     1   C  1s       1.99691
     1   C  2s       0.95571
     1   C  2p       1.02011    1.12045    1.12983

     2   C  1s       1.99765
     2   C  2s       0.88000
     2   C  2p       1.01454    0.83753    1.01564

     3   O  1s       1.99869
     3   O  2s       1.58439
     3   O  2p       1.39623    1.47638    1.91000

     4   H  1s       0.77428

     5   H  1s       0.93037

     6   H  1s       0.93015

     7   H  1s       0.93015

     8   C  1s       1.99695
     8   C  2s       0.97666
     8   C  2p       1.10208    1.10974    1.06441

     9   C  1s       1.99695
     9   C  2s       0.97666
     9   C  2p       1.10208    1.10974    1.06441

    10   H  1s       0.92865

    11   H  1s       0.92865

    12   H  1s       0.93258

    13   H  1s       0.93258

    14   H  1s       0.93943

    15   H  1s       0.93943

 Summary of localized orbital composition:   [THRPRINT= 0.020]

   ORB  GRP  ORB.ENERGY      CENTERS/CHARGES
     1   1   -16.738393      O  3   2.000
     2   1    -8.377866      C  2   2.000
     3   1    -8.313194      C  9   2.000
     4   1    -8.313194      C  8   2.000
     5   1    -8.307729      C  1   2.000
     6   1    -0.451483      O  3   1.238   C  2   0.736   (other: 0.026)
     7   1    -0.428731      O  3   1.241   H  4   0.742
     8   1    -0.300641      C  9   1.019   C  2   0.951   (other: 0.030)
     9   1    -0.300641      C  8   1.019   C  2   0.951   (other: 0.030)
    10   1    -0.299562      C  1   0.994   C  2   0.959   (other: 0.047)
    11   1    -0.232442      O  3   1.965   (other: 0.035)
    12   1    -0.216716      C  8   1.049   H 14   0.925   (other: 0.025)
    13   1    -0.216716      C  9   1.049   H 15   0.925   (other: 0.025)
    14   1    -0.216019      C  8   1.064   H 12   0.912   (other: 0.024)
    15   1    -0.216019      C  9   1.064   H 13   0.912   (other: 0.024)
    16   1    -0.212342      C  1   1.060   H  5   0.917   (other: 0.023)
    17   1    -0.210881      C  9   1.070   H 11   0.911
    18   1    -0.210881      C  8   1.070   H 10   0.911
    19   1    -0.208259      C  1   1.067   H  7   0.913   (other: 0.021)
    20   1    -0.208259      C  1   1.067   H  6   0.913   (other: 0.021)
    21   1    -0.054162      O  3   1.910   C  2   0.026   (other: 0.064)

 Localized orbitals saved to record      2100.2  (orbital set 2)


 **********************************************************************************************************************************
 DATASETS  * FILE   NREC   LENGTH (MB)   RECORD NAMES
              1      20    23759.30       500      610      700      900      950      970     1000      129      960     1100   
                                          VAR    BASINP    GEOM    SYMINP    ZMAT    AOBASIS   BASIS     P2S    ABASIS      S 
                                         1400     1410     1200     1210     1080     1600     1650     1300     1700     1800   
                                           T        V       H0       H01     AOSYM     SMH    MOLCAS    ERIS     OPER     GRID   

              2       5        9.01       700     1000      520     1800     2100   
                                         GEOM     BASIS   MCVARS    GRID      RKS  

 PROGRAMS   *        TOTAL      IBBA        KS       INT
 CPU TIMES  *      1089.20      0.24    660.73    428.08
 REAL TIME  *      3320.24 SEC
 DISK USED  *        89.43 GB      
 **********************************************************************************************************************************
 Molecular orbitals read from record     2100.2  Type=RKS/LOCAL(IBO)  
 Occupation numbers read from record     2100.2  Type=RKS/LOCAL(IBO)  
 Orbital energies read from record       2100.2  Type=RKS/LOCAL(IBO)  
 Redundancy group numbers read from rec  2100.2  Type=RKS/LOCAL(IBO)  

 IBBA/aug-cc-pVTZ energy=      0.000000000000

        KS-SCF  
   -203.49784356
 **********************************************************************************************************************************
 Molpro calculation terminated
