
 Primary working directories    : /tmp/sb13343
 Secondary working directories  : /tmp/sb13343
 Wavefunction directory         : /panfs/panasas01/chem/sb13343/wfu/
 Main file repository           : /tmp/sb13343/

 SHA1      : b4a5b34a9e711420743f49e6833241d17c61fb3c
 NAME      : 2099.9.b4a5b34
 ARCHNAME  : linux/x86_64_openmp
 FC        : /cm/shared/languages/GCC-6.1/bin/gfortran
 BLASLIB   : -lblas
 id        : simonbennie

 Nodes     nprocs
 node32-036    1

 Using customized tuning parameters: mindgm=1; mindgv=20; mindgc=4; mindgr=1; noblas=0; minvec=7
 default implementation of scratch files=df  

 memory,500,m
 geomtyp=xyz
 nosym
 noorient
 geometry={
 H         -1.13405        1.76167        0.00000
 C         -1.32915        0.67205        0.00000
 C         -0.06360       -0.12883        0.00000
 C          0.67426       -0.31636        1.28970
 C          0.67426       -0.31636       -1.28970
 H         -1.94006        0.46750        0.88859
 H         -1.94006        0.46750       -0.88859
 H          1.28359        0.56876        1.55544
 H         -0.01165       -0.48291        2.13019
 H          1.36783       -1.16569        1.24157
 H          1.28359        0.56876       -1.55544
 H         -0.01165       -0.48291       -2.13019
 H          1.36783       -1.16569       -1.24157
 }
 basis={ default,sto-3g }
 {uks,CS,direct;wf,33,1,1}
 {ibba,bonds=1}

 Variables initialized (895), CPU time= 0.01 sec
 Commands  initialized (725), CPU time= 0.01 sec, 591 directives.
 Default parameters read. Elapsed time= 0.09 sec

 Checking input...
 Passed
1


                                         ***  PROGRAM SYSTEM MOLPRO  ***
                                       Copyright, TTI GmbH Stuttgart, 2015
                                    Version 2099.9 linked May 26 2017 16:03:21


 **********************************************************************************************************************************
 LABEL *                                                                                 
  64 bit serial version                                                                  DATE: 08-Jun-17          TIME: 20:19:37  
 **********************************************************************************************************************************

 SHA1:             b4a5b34a9e711420743f49e6833241d17c61fb3c
 **********************************************************************************************************************************
 SETTING GEOMTYP        =    XYZ

 Variable memory set to  500000000 words,  buffer space 

 ZSYMEL=NOSYM

 SETTING BASIS          =    STO-3G


 Recomputing integrals since basis changed


 Using spherical harmonics

 Library entry H      S STO-3G               selected for orbital group  1
 Library entry C      S STO-3G               selected for orbital group  2
 Library entry C      P STO-3G               selected for orbital group  2


 PROGRAM * SEWARD (Integral evaluation for generally contracted gaussian basis sets)     Author: Roland Lindh, 1990

 Geometry written to block  1 of record 700


 Point group  C1  



 ATOMIC COORDINATES

 NR  ATOM    CHARGE       X              Y              Z

   1  H       1.00   -2.143043912    3.329073822    0.000000000
   2  C       6.00   -2.511729478    1.269990442    0.000000000
   3  C       6.00   -0.120186582   -0.243453417    0.000000000
   4  C       6.00    1.274166737   -0.597833757    2.437179783
   5  C       6.00    1.274166737   -0.597833757   -2.437179783
   6  H       1.00   -3.666182065    0.883446963    1.679191737
   7  H       1.00   -3.666182065    0.883446963   -1.679191737
   8  H       1.00    2.425633556    1.074800631    2.939355603
   9  H       1.00   -0.022015309   -0.912567643    4.025475693
  10  H       1.00    2.584824085   -2.202834846    2.346227264
  11  H       1.00    2.425633556    1.074800631   -2.939355603
  12  H       1.00   -0.022015309   -0.912567643   -4.025475693
  13  H       1.00    2.584824085   -2.202834846   -2.346227264

 Bond lengths in Bohr (Angstrom)

 1-2  2.091830159  2-3  2.830192527  2-6  2.074092940  2-7  2.074092940  3-4  2.830132841
     ( 1.106948849)     ( 1.497673388)     ( 1.097562717)     ( 1.097562717)     ( 1.497641803)

  3- 5  2.830132841   4- 8  2.091832255   4- 9  2.074085151   4-10  2.074156104   5-11  2.091832255
       ( 1.497641803)       ( 1.106949959)       ( 1.097558596)       ( 1.097596142)       ( 1.106949959)

  5-12  2.074085151   5-13  2.074156104
       ( 1.097558596)       ( 1.097596142)

 Bond angles

  1-2-3  112.17549786   1-2-6  106.35284965   1-2-7  106.35284965   2-3-4  118.89987932

  2-3-5  118.89987932   3-2-6  111.75744418   3-2-7  111.75744418   3-4-8  112.19808176

  3- 4- 9  111.75014522   3- 4-10  111.74379558   3- 5-11  112.19808176   3- 5-12  111.75014522

  3- 5-13  111.74379558   4- 3- 5  118.89276928   6- 2- 7  108.11431090   8- 4- 9  106.34995457

  8- 4-10  106.34572146   9- 4-10  108.12296896  11- 5-12  106.34995457  11- 5-13  106.34572146

 12- 5-13  108.12296896

 NUCLEAR CHARGE:                   33
 NUMBER OF PRIMITIVE AOS:          87
 NUMBER OF SYMMETRY AOS:           87
 NUMBER OF CONTRACTIONS:           29   (  29A   )
 NUMBER OF CORE ORBITALS:           4   (   4A   )
 NUMBER OF VALENCE ORBITALS:       25   (  25A   )


 NUCLEAR REPULSION ENERGY  124.92676597


 Eigenvalues of metric

         1 0.210E+00 0.225E+00 0.225E+00 0.315E+00 0.353E+00 0.353E+00 0.362E+00 0.372E+00


 Contracted 2-electron integrals neglected if value below      1.0D-11
 AO integral compression algorithm  1   Integral accuracy      1.0D-11

     0.786 MB (compressed) written to integral file (100.0%)


 NUMBER OF SORTED TWO-ELECTRON INTEGRALS:      94830.     BUFFER LENGTH:  32768
 NUMBER OF SEGMENTS:   1  SEGMENT LENGTH:      94830      RECORD LENGTH: 524288

 Memory used in sort:       0.65 MW

 SORT1 READ      108770. AND WROTE       91348. INTEGRALS IN      1 RECORDS. CPU TIME:     0.00 SEC, REAL TIME:     0.01 SEC
 SORT2 READ       91348. AND WROTE       94830. INTEGRALS IN      3 RECORDS. CPU TIME:     0.01 SEC, REAL TIME:     0.01 SEC

 FILE SIZES:   FILE 1:    31.0 MBYTE,  FILE 4:     4.2 MBYTE,   TOTAL:     35.2 MBYTE

 OPERATOR DM      FOR CENTER  0  COORDINATES:    0.000000    0.000000    0.000000


 **********************************************************************************************************************************
 DATASETS  * FILE   NREC   LENGTH (MB)   RECORD NAMES
              1      19       30.62       500      610      700      900      950      970     1000      129      960     1100   
                                          VAR    BASINP    GEOM    SYMINP    ZMAT    AOBASIS   BASIS     P2S    ABASIS      S 
                                         1400     1410     1200     1210     1080     1600     1650     1300     1700   
                                           T        V       H0       H01     AOSYM     SMH    MOLCAS    ERIS     OPER   

 PROGRAMS   *        TOTAL       INT
 CPU TIMES  *         0.45      0.31
 REAL TIME  *         0.77 SEC
 DISK USED  *        35.68 MB      
 **********************************************************************************************************************************

 Density functional group CS=CS1
 Functional: CS1(Colle-Salvetti (Gradient form))                               Gradient terms: 1
 Use grid at  1800.2

 Functional: CS1                       Factor:  1.0000

 Generated new metagrid on record  1800.2 with target accuracy 1.0D-06 and 45406 points in CPU time    1.3
 Computed new grid on record 1800.1 in CPU time    1.4
   27459 words reserved for DFT integration

 PROGRAM * UKS-SCF (Unrestricted Kohn-Sham)     Authors: W. Meyer, H.-J. Werner, P.J. Knowles, 1993

 NUMBER OF ELECTRONS:      17+   16-    SPACE SYMMETRY=1    SPIN SYMMETRY: Doublet 
 CONVERGENCE THRESHOLDS:    1.00E-05 (Density)    1.00E-06 (Energy)
 MAX. NUMBER OF ITERATIONS:       60
 INTERPOLATION TYPE:            DIIS
 INTERPOLATION STEPS:              2 (START)      1 (STEP)
 LEVEL SHIFTS:                 -0.20 (ALPHA)  -0.20 (BETA) 



 Use fine grid record 1800.2 for energy threshold  1.0D-06
 Orbital guess generated from atomic densities. Full valence occupancy:   17

 Molecular orbital dump at record        2200.2

 Initial alpha occupation  17
 Initial beta  occupation  16

 ITERATION    DDIFF          GRAD             ENERGY        2-EL.EN.            DIPOLE MOMENTS         DIIS
    1      0.000D+00      0.000D+00      -131.87925677    402.428503    0.14648    0.29631   -0.00000    0
    2      0.377D-01      0.133D-01      -131.95921551    394.536085    0.00012    0.00038   -0.00000    1
    3      0.104D-01      0.507D-02      -131.97145592    396.626305    0.03207    0.06500   -0.00000    2
    4      0.917D-03      0.428D-03      -131.97158477    396.582240    0.03221    0.06528   -0.00000    3
    5      0.340D-03      0.184D-03      -131.97161031    396.596341    0.03110    0.06303   -0.00000    4
    6      0.217D-03      0.786D-04      -131.97161627    396.590255    0.03094    0.06272   -0.00000    5
    7      0.195D-04      0.808D-05      -131.97161634    396.590586    0.03097    0.06277   -0.00000    6
    8      0.457D-05      0.135D-05      -131.97161634    396.590586    0.03096    0.06274   -0.00000    5
    9      0.749D-06      0.222D-06      -131.97161634    396.590605    0.03097    0.06276   -0.00000    6

 Final alpha occupancy:  17
 Final beta  occupancy:  16

 !UKS STATE 1.1 Energy               -131.971616342425
 Nuclear energy                       124.92676597
 One-electron energy                 -454.17782119
 Two-electron energy                  198.29530274
 Density functional                    -1.01586387     CS1=-1.01586387
 Virial quotient                       -0.87882889
 !UKS STATE 1.1 Dipole moment           0.03096542     0.06276331    -0.00000000
 Dipole moment /Debye                   0.07870108     0.15951797    -0.00000000

 Orbital energies for positive spin:

         1.1          2.1          3.1          4.1          5.1          6.1          7.1          8.1          9.1         10.1
     -7.679853    -7.679591    -7.679587    -7.596579    -0.171862    -0.086162    -0.086149     0.067114     0.104103     0.112159

        11.1         12.1         13.1         14.1         15.1         16.1         17.1         18.1         19.1
      0.112165     0.166550     0.166596     0.193437     0.238670     0.238678     0.464513     0.828144     0.828160

 Orbital energies for negative spin:

         1.1          2.1          3.1          4.1          5.1          6.1          7.1          8.1          9.1         10.1
     -7.679939    -7.679649    -7.679644    -7.600124    -0.176612    -0.087540    -0.087526     0.062089     0.098807     0.110776

        11.1         12.1         13.1         14.1         15.1         16.1         17.1         18.1         19.1
      0.110783     0.165216     0.165262     0.192986     0.236002     0.236009     0.440864     0.826992     0.827007

 HOMO     17.1     0.464513 =      12.6400eV
 LUMO    -17.1     0.440864 =      11.9965eV
 LUMO-HOMO        -0.023648 =      -0.6435eV

 EXPECTATION VALUE OF S**2:             0.75013718

 Occupation number threshold for canonical orbitals:  1.999000 (occupied),  0.001000 (virtual)

 Number of pseudo-canonical orbitals per symmetry:   16
 Number of active natural orbitals per symmetry:      1

 Natural orbitals saved to record    2200.2 (Orbital set 3)

 Orbital spaces for UNO-CAS (Min. occupation: 0.020  Max. occupation: 1.980):

 Closed:       16
 Active:        1


 **********************************************************************************************************************************
 DATASETS  * FILE   NREC   LENGTH (MB)   RECORD NAMES
              1      20       32.07       500      610      700      900      950      970     1000      129      960     1100   
                                          VAR    BASINP    GEOM    SYMINP    ZMAT    AOBASIS   BASIS     P2S    ABASIS      S 
                                         1400     1410     1200     1210     1080     1600     1650     1300     1700     1800   
                                           T        V       H0       H01     AOSYM     SMH    MOLCAS    ERIS     OPER     GRID   

              2       5        3.00       700     1000      520     1800     2200   
                                         GEOM     BASIS   MCVARS    GRID      UKS  

 PROGRAMS   *        TOTAL       UKS       INT
 CPU TIMES  *         5.95      5.50      0.31
 REAL TIME  *         6.73 SEC
 DISK USED  *        35.68 MB      
 **********************************************************************************************************************************


 PROGRAM * Intrinsic Basis Bonding Analysis (IBBA)          Author: G. Knizia

 Molecular orbitals read from record     2200.2  Type=UKS/ALPHA (state 1.1)
 Fock matrix read from record            2200.2  Type=UKS/TOTAL (state 1.1)
 Orbital energies read from record       2200.2  Type=UKS/ALPHA (state 1.1)
 Density matrix read from record         2200.2  Type=UKS/CHARGE (state 1.1)

 Number of core orbitals:           4 (   4 )
 Number of closed-shell orbitals:  12 (  12 )
 Number of active  orbitals:        1 (   1 )

 Basis set MINAO-AUTO-PP generated.      Number of basis functions:   29 

 Polarized AO type:                A = (O Ot + (1-O)(1-Ot)) P12
 Orthogonalization method:         Symmetric (Loewdin)
 Localization functional:          L = sum[A,i] <i|n_A|i>^4 -> max

 Localization group 1:  16 orbitals, occupancy  2.000
 Iterative localization: IB/PM,    7 iter; Final gradient 0.92E-08

 Bond order analysis:       [THRPRINT= 0.020]

   CEN ATOM   CEN ATOM     WIBERG.BO      RENORM.BO
     1   H  -   2   C       0.912512       0.997487
     1   H  -   3   C       0.045649       0.178541

     2   C  -   3   C       1.084877       1.319559
     2   C  -   7   H       0.956463       0.986162
     2   C  -   6   H       0.956463       0.986162
     2   C  -   1   H       0.912512       0.997487

     3   C  -   2   C       1.084877       1.319559
     3   C  -   5   C       1.084853       1.319501
     3   C  -   4   C       1.084853       1.319501
     3   C  -   1   H       0.045649       0.178541
     3   C  -   8   H       0.045613       0.178398
     3   C  -  11   H       0.045613       0.178398

     4   C  -   3   C       1.084853       1.319501
     4   C  -   9   H       0.956504       0.986152
     4   C  -  10   H       0.956400       0.986180
     4   C  -   8   H       0.912551       0.997483

     5   C  -   3   C       1.084853       1.319501
     5   C  -  12   H       0.956504       0.986152
     5   C  -  13   H       0.956400       0.986180
     5   C  -  11   H       0.912551       0.997483

     6   H  -   2   C       0.956463       0.986162

     7   H  -   2   C       0.956463       0.986162

     8   H  -   4   C       0.912551       0.997483
     8   H  -   3   C       0.045613       0.178398

     9   H  -   4   C       0.956504       0.986152

    10   H  -   4   C       0.956400       0.986180

    11   H  -   5   C       0.912551       0.997483
    11   H  -   3   C       0.045613       0.178398

    12   H  -   5   C       0.956504       0.986152

    13   H  -   5   C       0.956400       0.986180


 Valency analysis:

   CEN ATOM   TOT.VALENCE
     1   H       0.985515
     2   C       3.947483
     3   C       3.464049
     4   C       3.947478
     5   C       3.947478
     6   H       0.993786
     7   H       0.993786
     8   H       0.985519
     9   H       0.993793
    10   H       0.993777
    11   H       0.985519
    12   H       0.993793
    13   H       0.993777
 Localization group 2:   1 orbitals, occupancy  1.000
 Iterative localization: IB/PM,    1 iter; Final gradient 0.00E+00

 Bond order analysis:       [THRPRINT= 0.020]

   CEN ATOM   CEN ATOM     WIBERG.BO      RENORM.BO
     1   H  -   3   C       0.083950       0.500000


     3   C  -   1   H       0.083950       0.500000
     3   C  -  11   H       0.083943       0.500000
     3   C  -   8   H       0.083943       0.500000





     8   H  -   3   C       0.083943       0.500000



    11   H  -   3   C       0.083943       0.500000




 Valency analysis:

   CEN ATOM   TOT.VALENCE
     1   H       0.105456
     2   C       0.004592
     3   C       0.373381
     4   C       0.004576
     5   C       0.004576
     6   H       0.024342
     7   H       0.024342
     8   H       0.105447
     9   H       0.024258
    10   H       0.024456
    11   H       0.105447
    12   H       0.024258
    13   H       0.024456

 Total charge composition:

   CEN ATOM         s          p       ELECTRONS ->P.CHARGE
     1   H       0.93549                 0.93549    0.06451
     2   C       2.88165    3.34155      6.22320   -0.22320
     3   C       2.89146    3.03146      5.92292    0.07708
     4   C       2.88164    3.34156      6.22320   -0.22320
     5   C       2.88164    3.34156      6.22320   -0.22320
     6   H       0.93349                 0.93349    0.06651
     7   H       0.93349                 0.93349    0.06651
     8   H       0.93550                 0.93550    0.06450
     9   H       0.93350                 0.93350    0.06650
    10   H       0.93350                 0.93350    0.06650
    11   H       0.93550                 0.93550    0.06450
    12   H       0.93350                 0.93350    0.06650
    13   H       0.93350                 0.93350    0.06650

 Total charge composition, AO contributions:

   CEN ATOM SHL      SPHERICAL COMPONENTS
     1   H  1s       0.93549

     2   C  1s       1.99804
     2   C  2s       0.88361
     2   C  2p       1.10707    1.10845    1.12603

     3   C  1s       1.99836
     3   C  2s       0.89310
     3   C  2p       1.00844    1.01750    1.00552

     4   C  1s       1.99804
     4   C  2s       0.88360
     4   C  2p       1.11700    1.11735    1.10721

     5   C  1s       1.99804
     5   C  2s       0.88360
     5   C  2p       1.11700    1.11735    1.10721

     6   H  1s       0.93349

     7   H  1s       0.93349

     8   H  1s       0.93550

     9   H  1s       0.93350

    10   H  1s       0.93350

    11   H  1s       0.93550

    12   H  1s       0.93350

    13   H  1s       0.93350

 Active orbital charges:

   CEN ATOM         s          p       ELECTRONS ->SPIN.DEN
     1   H       0.05585                 0.05585    0.05585
     2   C       0.00006    0.00224      0.00230    0.00230
     3   C       0.01184    0.73977      0.75161    0.75161
     4   C       0.00006    0.00223      0.00229    0.00229
     5   C       0.00006    0.00223      0.00229    0.00229
     6   H       0.01232                 0.01232    0.01232
     7   H       0.01232                 0.01232    0.01232
     8   H       0.05584                 0.05584    0.05584
     9   H       0.01228                 0.01228    0.01228
    10   H       0.01238                 0.01238    0.01238
    11   H       0.05584                 0.05584    0.05584
    12   H       0.01228                 0.01228    0.01228
    13   H       0.01238                 0.01238    0.01238

 Active orbital charges, AO contributions:

   CEN ATOM SHL      SPHERICAL COMPONENTS
     1   H  1s       0.05585

     2   C  1s       0.00000
     2   C  2s       0.00006
     2   C  2p       0.00003    0.00221    0.00000

     3   C  1s       0.00000
     3   C  2s       0.01184
     3   C  2p       0.14477    0.59500    0.00000

     4   C  1s       0.00000
     4   C  2s       0.00006
     4   C  2p       0.00072    0.00132    0.00019

     5   C  1s       0.00000
     5   C  2s       0.00006
     5   C  2p       0.00072    0.00132    0.00019

     6   H  1s       0.01232

     7   H  1s       0.01232

     8   H  1s       0.05584

     9   H  1s       0.01228

    10   H  1s       0.01238

    11   H  1s       0.05584

    12   H  1s       0.01228

    13   H  1s       0.01238

 Summary of localized orbital composition:   [THRPRINT= 0.020]

   ORB  GRP  ORB.ENERGY      CENTERS/CHARGES
     1   1    -7.595457      C  2   2.000
     2   1    -7.595451      C  4   2.000
     3   1    -7.595451      C  5   2.000
     4   1    -7.521115      C  3   2.000
     5   1     0.035237      C  5   1.027   C  3   0.955
     6   1     0.035237      C  4   1.027   C  3   0.955
     7   1     0.035254      C  2   1.027   C  3   0.955
     8   1     0.061331      C  2   1.056   H  1   0.871   C  3   0.067
     9   1     0.061344      C  4   1.056   H  8   0.871   C  3   0.067
    10   1     0.061344      C  5   1.056   H 11   0.871   C  3   0.067
    11   1     0.070194      C  2   1.064   H  7   0.912   (other: 0.024)
    12   1     0.070194      C  2   1.064   H  6   0.912   (other: 0.024)
    13   1     0.070203      C  5   1.064   H 13   0.912   (other: 0.024)
    14   1     0.070203      C  4   1.064   H 10   0.912   (other: 0.024)
    15   1     0.070206      C  4   1.064   H  9   0.912   (other: 0.024)
    16   1     0.070206      C  5   1.064   H 12   0.912   (other: 0.024)
    17   2     0.452642      C  3   0.752   H  1   0.056   H 11   0.056   H  8   0.056   (other: 0.081)

 Localized orbitals saved to record      2200.2  (orbital set 4)


 **********************************************************************************************************************************
 DATASETS  * FILE   NREC   LENGTH (MB)   RECORD NAMES
              1      20       32.07       500      610      700      900      950      970     1000      129      960     1100   
                                          VAR    BASINP    GEOM    SYMINP    ZMAT    AOBASIS   BASIS     P2S    ABASIS      S 
                                         1400     1410     1200     1210     1080     1600     1650     1300     1700     1800   
                                           T        V       H0       H01     AOSYM     SMH    MOLCAS    ERIS     OPER     GRID   

              2       5        3.01       700     1000      520     1800     2200   
                                         GEOM     BASIS   MCVARS    GRID      UKS  

 PROGRAMS   *        TOTAL      IBBA       UKS       INT
 CPU TIMES  *         5.98      0.03      5.50      0.31
 REAL TIME  *         6.85 SEC
 DISK USED  *        35.68 MB      
 **********************************************************************************************************************************
 Molecular orbitals read from record     2200.2  Type=UKS/LOCAL(IBO)  
 Occupation numbers read from record     2200.2  Type=UKS/LOCAL(IBO)  
 Orbital energies read from record       2200.2  Type=UKS/LOCAL(IBO)  
 Redundancy group numbers read from rec  2200.2  Type=UKS/BETA (state 1.1)

 IBBA/STO-3G energy=      0.000000000000

        UKS-SCF 
   -131.97161634
 **********************************************************************************************************************************
 Molpro calculation terminated
