
 Primary working directories    : /tmp/sb13343
 Secondary working directories  : /tmp/sb13343
 Wavefunction directory         : /panfs/panasas01/chem/sb13343/wfu/
 Main file repository           : /tmp/sb13343/

 SHA1      : b4a5b34a9e711420743f49e6833241d17c61fb3c
 NAME      : 2099.9.b4a5b34
 ARCHNAME  : linux/x86_64_openmp
 FC        : /cm/shared/languages/GCC-6.1/bin/gfortran
 BLASLIB   : -lblas
 id        : simonbennie

 Nodes     nprocs
 node32-002    1

 Using customized tuning parameters: mindgm=1; mindgv=20; mindgc=4; mindgr=1; noblas=0; minvec=7
 default implementation of scratch files=df  

 memory,500,m
 geomtyp=xyz
 nosym
 noorient
 geometry={
 C         -1.53233        0.02247        0.00000
 C         -0.00192        0.01421        0.00000
 O          0.37239        1.40356        0.00000
 H          1.34248        1.44036        0.00000
 H         -1.92991       -0.99819        0.00000
 H         -1.90797        0.54382       -0.88653
 H         -1.90797        0.54382        0.88653
 C          0.54303       -0.66466       -1.26580
 C          0.54303       -0.66466        1.26580
 H          0.17836       -0.14752       -2.15943
 H          0.17836       -0.14752        2.15943
 H          0.23752       -1.71600       -1.32280
 H          0.23752       -1.71600        1.32280
 H          1.64084       -0.63767       -1.28032
 H          1.64084       -0.63767        1.28032
 }
 basis={ default,sto-3g }
 {ks,MM06-2X,direct;wf,42,1,0}
 {ibba,bonds=1}

 Variables initialized (895), CPU time= 0.01 sec
 Commands  initialized (725), CPU time= 0.01 sec, 591 directives.
 Default parameters read. Elapsed time= 0.12 sec

 Checking input...
 Passed
1


                                         ***  PROGRAM SYSTEM MOLPRO  ***
                                       Copyright, TTI GmbH Stuttgart, 2015
                                    Version 2099.9 linked May 26 2017 16:03:21


 **********************************************************************************************************************************
 LABEL *                                                                                 
  64 bit serial version                                                                  DATE: 09-Jun-17          TIME: 03:28:09  
 **********************************************************************************************************************************

 SHA1:             b4a5b34a9e711420743f49e6833241d17c61fb3c
 **********************************************************************************************************************************
 SETTING GEOMTYP        =    XYZ

 Variable memory set to  500000000 words,  buffer space 

 ZSYMEL=NOSYM

 SETTING BASIS          =    STO-3G


 Recomputing integrals since basis changed


 Using spherical harmonics

 Library entry C      S STO-3G               selected for orbital group  1
 Library entry C      P STO-3G               selected for orbital group  1
 Library entry O      S STO-3G               selected for orbital group  2
 Library entry O      P STO-3G               selected for orbital group  2
 Library entry H      S STO-3G               selected for orbital group  3


 PROGRAM * SEWARD (Integral evaluation for generally contracted gaussian basis sets)     Author: Roland Lindh, 1990

 Geometry written to block  1 of record 700


 Point group  C1  



 ATOMIC COORDINATES

 NR  ATOM    CHARGE       X              Y              Z

   1  C       6.00   -2.895684032    0.042462146    0.000000000
   2  C       6.00   -0.003628274    0.026853008    0.000000000
   3  O       8.00    0.703715112    2.652343999    0.000000000
   4  H       1.00    2.536919528    2.721885921    0.000000000
   5  H       1.00   -3.647001345   -1.886305720    0.000000000
   6  H       1.00   -3.605540754    1.027670861   -1.675298901
   7  H       1.00   -3.605540754    1.027670861    1.675298901
   8  C       6.00    1.026177977   -1.256025366   -2.392015328
   9  C       6.00    1.026177977   -1.256025366    2.392015328
  10  H       1.00    0.337051552   -0.278772398   -4.080731285
  11  H       1.00    0.337051552   -0.278772398    4.080731285
  12  H       1.00    0.448847749   -3.242770030   -2.499729718
  13  H       1.00    0.448847749   -3.242770030    2.499729718
  14  H       1.00    3.100738214   -1.205021658   -2.419454152
  15  H       1.00    3.100738214   -1.205021658    2.419454152

 Bond lengths in Bohr (Angstrom)

 1-2  2.892097881  1-5  2.069933136  1-6  2.069096224  1-7  2.069096224  2-3  2.719106031
     ( 1.530432290)     ( 1.095361444)     ( 1.094918569)     ( 1.094918569)     ( 1.438888946)

  2- 8  2.903104402   2- 9  2.903104402   3- 4  1.834522965   8-10  2.069222119   8-12  2.071730422
       ( 1.536256691)       ( 1.536256691)       ( 0.970787746)       ( 1.094985190)       ( 1.096312526)

  8-14  2.075368508   9-11  2.069222119   9-13  2.071730422   9-15  2.075368508
       ( 1.098237719)       ( 1.094985190)       ( 1.096312526)       ( 1.098237719)

 Bond angles

  1-2-3  104.76902697   1-2-8  110.92255387   1-2-9  110.92255387   2-1-5  110.97328220

  2- 1- 6  110.22090701   2- 1- 7  110.22090701   2- 3- 4  107.25071562   2- 8-10  110.21836376

  2- 8-12  111.57747468   2- 8-14  110.77023896   2- 9-11  110.21836376   2- 9-13  111.57747468

  2- 9-15  110.77023896   3- 2- 8  109.53648747   3- 2- 9  109.53648747   5- 1- 6  108.61190457

  5- 1- 7  108.61190457   6- 1- 7  108.12870271   8- 2- 9  110.96453384  10- 8-12  108.52192632

 10- 8-14  108.08997829  11- 9-13  108.52192632  11- 9-15  108.08997829  12- 8-14  107.54424578

 13- 9-15  107.54424578

 NUCLEAR CHARGE:                   42
 NUMBER OF PRIMITIVE AOS:         105
 NUMBER OF SYMMETRY AOS:          105
 NUMBER OF CONTRACTIONS:           35   (  35A   )
 NUMBER OF CORE ORBITALS:           5   (   5A   )
 NUMBER OF VALENCE ORBITALS:       30   (  30A   )


 NUCLEAR REPULSION ENERGY  198.77359127


 Eigenvalues of metric

         1 0.207E+00 0.227E+00 0.228E+00 0.304E+00 0.354E+00 0.360E+00 0.361E+00 0.363E+00


 Contracted 2-electron integrals neglected if value below      1.0D-11
 AO integral compression algorithm  1   Integral accuracy      1.0D-11

     1.573 MB (compressed) written to integral file ( 87.8%)


 NUMBER OF SORTED TWO-ELECTRON INTEGRALS:     198765.     BUFFER LENGTH:  32768
 NUMBER OF SEGMENTS:   1  SEGMENT LENGTH:     198765      RECORD LENGTH: 524288

 Memory used in sort:       0.76 MW

 SORT1 READ      224962. AND WROTE      188577. INTEGRALS IN      1 RECORDS. CPU TIME:     0.00 SEC, REAL TIME:     0.01 SEC
 SORT2 READ      188577. AND WROTE      198765. INTEGRALS IN      6 RECORDS. CPU TIME:     0.02 SEC, REAL TIME:     0.04 SEC

 FILE SIZES:   FILE 1:    31.8 MBYTE,  FILE 4:     4.2 MBYTE,   TOTAL:     36.0 MBYTE

 OPERATOR DM      FOR CENTER  0  COORDINATES:    0.000000    0.000000    0.000000


 **********************************************************************************************************************************
 DATASETS  * FILE   NREC   LENGTH (MB)   RECORD NAMES
              1      19       31.10       500      610      700      900      950      970     1000      129      960     1100   
                                          VAR    BASINP    GEOM    SYMINP    ZMAT    AOBASIS   BASIS     P2S    ABASIS      S 
                                         1400     1410     1200     1210     1080     1600     1650     1300     1700   
                                           T        V       H0       H01     AOSYM     SMH    MOLCAS    ERIS     OPER   

 PROGRAMS   *        TOTAL       INT
 CPU TIMES  *         0.61      0.46
 REAL TIME  *         2.09 SEC
 DISK USED  *        36.55 MB      
 **********************************************************************************************************************************

 Density functional group MM06-2X=M062XX+M062XC
 Functional: M062XX(Automatically generated (new) M062XX)                      Gradient terms: 2
 Functional: M062XC(Automatically generated (new) M062XC)                      Gradient terms: 2
 Use grid at  1800.2


 Exact exchange will be calculated, factor:  0.5400

 Functional: M062XX                    Factor:  0.4600
 Functional: M062XC                    Factor:  1.0000

 Generated new metagrid on record  1800.2 with target accuracy 1.0D-06 and 53396 points in CPU time    1.7
 Computed new grid on record 1800.1 in CPU time    1.9
   59039 words reserved for DFT integration

 PROGRAM * RKS-SCF (Restricted closed shell Kohn-Sham)     Authors: W. Meyer, H.-J. Werner, P.J. Knowles, 1993

 NUMBER OF ELECTRONS:      21+   21-    SPACE SYMMETRY=1    SPIN SYMMETRY: Singlet 
 CONVERGENCE THRESHOLDS:    1.00E-05 (Density)    1.00E-06 (Energy)
 MAX. NUMBER OF ITERATIONS:       60
 INTERPOLATION TYPE:            DIIS
 INTERPOLATION STEPS:              2 (START)      1 (STEP)
 LEVEL SHIFTS:                  0.00 (CLOSED)  0.00 (OPEN) 



 Use fine grid record 1800.2 for energy threshold  1.0D-06
 Orbital guess generated from atomic densities. Full valence occupancy:   21

 Molecular orbital dump at record        2100.2

 Initial occupancy:  21

 ITERATION    DDIFF          GRAD             ENERGY        2-EL.EN.            DIPOLE MOMENTS         DIIS   ORB.
    1      0.000D+00      0.000D+00      -222.41966947    598.756822    0.69898   -0.91307    0.00000    0    start
    2      0.000D+00      0.236D-01      -222.59110971    580.720547    0.04962   -0.05153    0.00000    1    diag
    3      0.610D-01      0.119D-01      -222.64373413    586.446625    0.27924   -0.29816    0.00000    2    diag
    4      0.205D-01      0.714D-03      -222.64390569    586.458304    0.28274   -0.31877    0.00000    3    diag
    5      0.141D-02      0.185D-03      -222.64391828    586.450352    0.28137   -0.31389    0.00000    4    diag
    6      0.310D-03      0.187D-04      -222.64391840    586.452914    0.28148   -0.31346    0.00000    5    diag
    7      0.440D-04      0.842D-05      -222.64391843    586.452392    0.28157   -0.31374    0.00000    6    diag
    8      0.123D-04      0.644D-06      -222.64391843    586.452402    0.28156   -0.31370    0.00000    7    diag
    9      0.213D-05      0.223D-06      -222.64391843    586.452396    0.28157   -0.31371    0.00000    0    orth

 Final occupancy:  21

 !RKS STATE 1.1 Energy               -222.643918426050
 Nuclear energy                       198.77359127
 One-electron energy                 -706.27599973
 Two-electron energy                  293.22619813
 SCF exchange energy                  -32.62153157     Factor= 0.5400
 Density functional                    -8.36770810     M062XX=-14.93335642 M062XC= -1.49836414
 Virial quotient                       -0.98342724
 !RKS STATE 1.1 Dipole moment           0.28156934    -0.31370795     0.00000000
 Dipole moment /Debye                   0.71563101    -0.79731384     0.00000000

 Orbital energies:

         1.1          2.1          3.1          4.1          5.1          6.1          7.1          8.1          9.1         10.1
    -18.728529    -9.944243    -9.898881    -9.898855    -9.898670    -0.942255    -0.731978    -0.638023    -0.637391    -0.481876

        11.1         12.1         13.1         14.1         15.1         16.1         17.1         18.1         19.1         20.1
     -0.401243    -0.374670    -0.373386    -0.325146    -0.319007    -0.289611    -0.286891    -0.253642    -0.244808    -0.153679

        21.1         22.1         23.1
     -0.080913     0.502582     0.560570

 HOMO     21.1    -0.080913 =      -2.2018eV
 LUMO     22.1     0.502582 =      13.6759eV
 LUMO-HOMO         0.583495 =      15.8777eV


 **********************************************************************************************************************************
 DATASETS  * FILE   NREC   LENGTH (MB)   RECORD NAMES
              1      20       32.81       500      610      700      900      950      970     1000      129      960     1100   
                                          VAR    BASINP    GEOM    SYMINP    ZMAT    AOBASIS   BASIS     P2S    ABASIS      S 
                                         1400     1410     1200     1210     1080     1600     1650     1300     1700     1800   
                                           T        V       H0       H01     AOSYM     SMH    MOLCAS    ERIS     OPER     GRID   

              2       5        3.02       700     1000      520     1800     2100   
                                         GEOM     BASIS   MCVARS    GRID      RKS  

 PROGRAMS   *        TOTAL        KS       INT
 CPU TIMES  *        10.52      9.91      0.46
 REAL TIME  *        16.83 SEC
 DISK USED  *        36.55 MB      
 **********************************************************************************************************************************


 PROGRAM * Intrinsic Basis Bonding Analysis (IBBA)          Author: G. Knizia

 Molecular orbitals read from record     2100.2  Type=RKS/CANONICAL (state 1.1)
 Fock matrix read from record            2100.2  Type=RKS/TOTAL (state 1.1)
 Orbital energies read from record       2100.2  Type=RKS/CANONICAL (state 1.1)
 Density matrix read from record         2100.2  Type=RKS/CHARGE (state 1.1)

 Number of core orbitals:           5 (   5 )
 Number of closed-shell orbitals:  16 (  16 )

 Basis set MINAO-AUTO-PP generated.      Number of basis functions:   35 

 Polarized AO type:                A = (O Ot + (1-O)(1-Ot)) P12
 Orthogonalization method:         Symmetric (Loewdin)
 Localization functional:          L = sum[A,i] <i|n_A|i>^4 -> max

 Localization group 1:  21 orbitals, occupancy  2.000
 Iterative localization: IB/PM,    7 iter; Final gradient 0.24E-08

 Bond order analysis:       [THRPRINT= 0.020]

   CEN ATOM   CEN ATOM     WIBERG.BO      RENORM.BO
     1   C  -   2   C       0.988438       0.986841
     1   C  -   5   H       0.971468       0.990173
     1   C  -   6   H       0.968264       0.987725
     1   C  -   7   H       0.968264       0.987725

     2   C  -   3   O       1.006727       0.985826
     2   C  -   1   C       0.988438       0.986841
     2   C  -   8   C       0.986722       0.967299
     2   C  -   9   C       0.986722       0.967299

     3   O  -   2   C       1.006727       0.985826
     3   O  -   4   H       0.951548       0.982910
     3   O  -   9   C       0.023839       0.012383
     3   O  -   8   C       0.023839       0.012383

     4   H  -   3   O       0.951548       0.982910

     5   H  -   1   C       0.971468       0.990173

     6   H  -   1   C       0.968264       0.987725

     7   H  -   1   C       0.968264       0.987725

     8   C  -   2   C       0.986722       0.967299
     8   C  -  14   H       0.970308       0.987078
     8   C  -  12   H       0.969959       0.988878
     8   C  -  10   H       0.968982       0.987575
     8   C  -   3   O       0.023839       0.012383

     9   C  -   2   C       0.986722       0.967299
     9   C  -  15   H       0.970308       0.987078
     9   C  -  13   H       0.969959       0.988878
     9   C  -  11   H       0.968982       0.987575
     9   C  -   3   O       0.023839       0.012383

    10   H  -   8   C       0.968982       0.987575

    11   H  -   9   C       0.968982       0.987575

    12   H  -   8   C       0.969959       0.988878

    13   H  -   9   C       0.969959       0.988878

    14   H  -   8   C       0.970308       0.987078

    15   H  -   9   C       0.970308       0.987078


 Valency analysis:

   CEN ATOM   TOT.VALENCE
     1   C       3.943832
     2   C       3.980236
     3   O       2.051492
     4   H       0.968131
     5   H       0.988042
     6   H       0.986844
     7   H       0.986844
     8   C       3.945883
     9   C       3.945883
    10   H       0.987289
    11   H       0.987289
    12   H       0.987656
    13   H       0.987656
    14   H       0.989008
    15   H       0.989008

 Total charge composition:

   CEN ATOM         s          p       ELECTRONS ->P.CHARGE
     1   C       2.96520    3.36729      6.33249   -0.33249
     2   C       2.92653    2.96781      5.89434    0.10566
     3   O       3.65442    4.60315      8.25756   -0.25756
     4   H       0.82148                 0.82148    0.17852
     5   H       0.89065                 0.89065    0.10935
     6   H       0.88530                 0.88530    0.11470
     7   H       0.88530                 0.88530    0.11470
     8   C       2.96993    3.37520      6.34513   -0.34513
     9   C       2.96993    3.37520      6.34513   -0.34513
    10   H       0.88726                 0.88726    0.11274
    11   H       0.88726                 0.88726    0.11274
    12   H       0.88890                 0.88890    0.11110
    13   H       0.88890                 0.88890    0.11110
    14   H       0.89516                 0.89516    0.10484
    15   H       0.89516                 0.89516    0.10484

 Total charge composition, AO contributions:

   CEN ATOM SHL      SPHERICAL COMPONENTS
     1   C  1s       1.99299
     1   C  2s       0.97221
     1   C  2p       1.05392    1.15362    1.15975

     2   C  1s       1.99424
     2   C  2s       0.93229
     2   C  2p       1.03427    0.90532    1.02823

     3   O  1s       1.99762
     3   O  2s       1.65680
     3   O  2p       1.31285    1.32877    1.96153

     4   H  1s       0.82148

     5   H  1s       0.89065

     6   H  1s       0.88530

     7   H  1s       0.88530

     8   C  1s       1.99308
     8   C  2s       0.97685
     8   C  2p       1.13799    1.13953    1.09769

     9   C  1s       1.99308
     9   C  2s       0.97685
     9   C  2p       1.13799    1.13953    1.09769

    10   H  1s       0.88726

    11   H  1s       0.88726

    12   H  1s       0.88890

    13   H  1s       0.88890

    14   H  1s       0.89516

    15   H  1s       0.89516

 Summary of localized orbital composition:   [THRPRINT= 0.020]

   ORB  GRP  ORB.ENERGY      CENTERS/CHARGES
     1   1   -18.555621      O  3   2.000
     2   1    -9.851997      C  2   2.000
     3   1    -9.790162      C  8   2.000
     4   1    -9.790162      C  9   2.000
     5   1    -9.789359      C  1   2.000
     6   1    -0.617956      O  3   1.177   H  4   0.814
     7   1    -0.582351      O  3   1.125   C  2   0.860
     8   1    -0.488860      C  2   0.992   C  1   0.986   (other: 0.022)
     9   1    -0.487839      C  8   1.002   C  2   0.984
    10   1    -0.487839      C  9   1.002   C  2   0.984
    11   1    -0.467812      O  3   1.987
    12   1    -0.435158      C  9   1.102   H 15   0.889
    13   1    -0.435158      C  8   1.102   H 14   0.889
    14   1    -0.433441      C  8   1.109   H 12   0.882
    15   1    -0.433441      C  9   1.109   H 13   0.882
    16   1    -0.432006      C  1   1.107   H  5   0.884
    17   1    -0.431302      C  9   1.111   H 11   0.880
    18   1    -0.431302      C  8   1.111   H 10   0.880
    19   1    -0.427279      C  1   1.113   H  6   0.878
    20   1    -0.427279      C  1   1.113   H  7   0.878
    21   1    -0.107373      O  3   1.962   (other: 0.038)

 Localized orbitals saved to record      2100.2  (orbital set 2)


 **********************************************************************************************************************************
 DATASETS  * FILE   NREC   LENGTH (MB)   RECORD NAMES
              1      20       32.81       500      610      700      900      950      970     1000      129      960     1100   
                                          VAR    BASINP    GEOM    SYMINP    ZMAT    AOBASIS   BASIS     P2S    ABASIS      S 
                                         1400     1410     1200     1210     1080     1600     1650     1300     1700     1800   
                                           T        V       H0       H01     AOSYM     SMH    MOLCAS    ERIS     OPER     GRID   

              2       5        3.03       700     1000      520     1800     2100   
                                         GEOM     BASIS   MCVARS    GRID      RKS  

 PROGRAMS   *        TOTAL      IBBA        KS       INT
 CPU TIMES  *        10.56      0.03      9.91      0.46
 REAL TIME  *        16.98 SEC
 DISK USED  *        36.55 MB      
 **********************************************************************************************************************************
 Molecular orbitals read from record     2100.2  Type=RKS/LOCAL(IBO)  
 Occupation numbers read from record     2100.2  Type=RKS/LOCAL(IBO)  
 Orbital energies read from record       2100.2  Type=RKS/LOCAL(IBO)  
 Redundancy group numbers read from rec  2100.2  Type=RKS/LOCAL(IBO)  

 IBBA/STO-3G energy=      0.000000000000

        KS-SCF  
   -222.64391843
 **********************************************************************************************************************************
 Molpro calculation terminated
