
 Primary working directories    : /local
 Secondary working directories  : /local
 Wavefunction directory         : /local/
 Main file repository           : /local/

 SHA1      : b4a5b34a9e711420743f49e6833241d17c61fb3c
 NAME      : 2099.9.b4a5b34
 ARCHNAME  : linux/x86_64_openmp
 FC        : /cm/shared/languages/GCC-6.1/bin/gfortran
 BLASLIB   : -lblas
 id        : simonbennie

 Nodes     nprocs
 node32-031    1

 Using customized tuning parameters: mindgm=1; mindgv=20; mindgc=4; mindgr=1; noblas=0; minvec=7
 default implementation of scratch files=df  

 memory,500,m
 geomtyp=xyz
 nosym
 noorient
 geometry={
 C         -1.53233        0.02247        0.00000
 C         -0.00192        0.01421        0.00000
 O          0.37239        1.40356        0.00000
 H          1.34248        1.44036        0.00000
 H         -1.92991       -0.99819        0.00000
 H         -1.90797        0.54382       -0.88653
 H         -1.90797        0.54382        0.88653
 C          0.54303       -0.66466       -1.26580
 C          0.54303       -0.66466        1.26580
 H          0.17836       -0.14752       -2.15943
 H          0.17836       -0.14752        2.15943
 H          0.23752       -1.71600       -1.32280
 H          0.23752       -1.71600        1.32280
 H          1.64084       -0.63767       -1.28032
 H          1.64084       -0.63767        1.28032
 }
 basis={ default,qzvp }
 {ks,B97,direct;wf,42,1,0}
 {ibba,bonds=1}

 Variables initialized (895), CPU time= 0.00 sec
 Commands  initialized (725), CPU time= 0.01 sec, 591 directives.
 Default parameters read. Elapsed time= 1.07 sec

 Checking input...
 Passed
1


                                         ***  PROGRAM SYSTEM MOLPRO  ***
                                       Copyright, TTI GmbH Stuttgart, 2015
                                    Version 2099.9 linked May 26 2017 16:03:21


 **********************************************************************************************************************************
 LABEL *                                                                                 
  64 bit serial version                                                                  DATE: 12-Jun-17          TIME: 16:54:50  
 **********************************************************************************************************************************

 SHA1:             b4a5b34a9e711420743f49e6833241d17c61fb3c
 **********************************************************************************************************************************
 SETTING GEOMTYP        =    XYZ

 Variable memory set to  500000000 words,  buffer space 

 ZSYMEL=NOSYM

 SETTING BASIS          =    QZVP


 Recomputing integrals since basis changed


 Using spherical harmonics

 Library entry C      S def2-QZVP            selected for orbital group  1
 Library entry C      P def2-QZVP            selected for orbital group  1
 Library entry C      D def2-QZVP            selected for orbital group  1
 Library entry C      F def2-QZVP            selected for orbital group  1
 Library entry C      G def2-QZVP            selected for orbital group  1
 Library entry O      S def2-QZVP            selected for orbital group  2
 Library entry O      P def2-QZVP            selected for orbital group  2
 Library entry O      D def2-QZVP            selected for orbital group  2
 Library entry O      F def2-QZVP            selected for orbital group  2
 Library entry O      G def2-QZVP            selected for orbital group  2
 Library entry H      S def2-QZVP            selected for orbital group  3
 Library entry H      P def2-QZVP            selected for orbital group  3
 Library entry H      D def2-QZVP            selected for orbital group  3
 Library entry H      F def2-QZVP            selected for orbital group  3


 PROGRAM * SEWARD (Integral evaluation for generally contracted gaussian basis sets)     Author: Roland Lindh, 1990

 Geometry written to block  1 of record 700


 Point group  C1  



 ATOMIC COORDINATES

 NR  ATOM    CHARGE       X              Y              Z

   1  C       6.00   -2.895684032    0.042462146    0.000000000
   2  C       6.00   -0.003628274    0.026853008    0.000000000
   3  O       8.00    0.703715112    2.652343999    0.000000000
   4  H       1.00    2.536919528    2.721885921    0.000000000
   5  H       1.00   -3.647001345   -1.886305720    0.000000000
   6  H       1.00   -3.605540754    1.027670861   -1.675298901
   7  H       1.00   -3.605540754    1.027670861    1.675298901
   8  C       6.00    1.026177977   -1.256025366   -2.392015328
   9  C       6.00    1.026177977   -1.256025366    2.392015328
  10  H       1.00    0.337051552   -0.278772398   -4.080731285
  11  H       1.00    0.337051552   -0.278772398    4.080731285
  12  H       1.00    0.448847749   -3.242770030   -2.499729718
  13  H       1.00    0.448847749   -3.242770030    2.499729718
  14  H       1.00    3.100738214   -1.205021658   -2.419454152
  15  H       1.00    3.100738214   -1.205021658    2.419454152

 Bond lengths in Bohr (Angstrom)

 1-2  2.892097881  1-5  2.069933136  1-6  2.069096224  1-7  2.069096224  2-3  2.719106031
     ( 1.530432290)     ( 1.095361444)     ( 1.094918569)     ( 1.094918569)     ( 1.438888946)

  2- 8  2.903104402   2- 9  2.903104402   3- 4  1.834522965   8-10  2.069222119   8-12  2.071730422
       ( 1.536256691)       ( 1.536256691)       ( 0.970787746)       ( 1.094985190)       ( 1.096312526)

  8-14  2.075368508   9-11  2.069222119   9-13  2.071730422   9-15  2.075368508
       ( 1.098237719)       ( 1.094985190)       ( 1.096312526)       ( 1.098237719)

 Bond angles

  1-2-3  104.76902697   1-2-8  110.92255387   1-2-9  110.92255387   2-1-5  110.97328220

  2- 1- 6  110.22090701   2- 1- 7  110.22090701   2- 3- 4  107.25071562   2- 8-10  110.21836376

  2- 8-12  111.57747468   2- 8-14  110.77023896   2- 9-11  110.21836376   2- 9-13  111.57747468

  2- 9-15  110.77023896   3- 2- 8  109.53648747   3- 2- 9  109.53648747   5- 1- 6  108.61190457

  5- 1- 7  108.61190457   6- 1- 7  108.12870271   8- 2- 9  110.96453384  10- 8-12  108.52192632

 10- 8-14  108.08997829  11- 9-13  108.52192632  11- 9-15  108.08997829  12- 8-14  107.54424578

 13- 9-15  107.54424578

 NUCLEAR CHARGE:                   42
 NUMBER OF PRIMITIVE AOS:         840
 NUMBER OF SYMMETRY AOS:          715
 NUMBER OF CONTRACTIONS:          585   ( 585A   )
 NUMBER OF CORE ORBITALS:           5   (   5A   )
 NUMBER OF VALENCE ORBITALS:       30   (  30A   )


 NUCLEAR REPULSION ENERGY  198.77359127


 Eigenvalues of metric

         1 0.447E-04 0.459E-04 0.470E-04 0.743E-04 0.823E-04 0.917E-04 0.943E-04 0.107E-03


 Contracted 2-electron integrals neglected if value below      1.0D-12
 AO integral compression algorithm  1   Integral accuracy      1.0D-12

     40752.906 MB (compressed) written to integral file ( 33.4%)


 NUMBER OF SORTED TWO-ELECTRON INTEGRALS:14689922715.     BUFFER LENGTH:  32768
 NUMBER OF SEGMENTS: 184  SEGMENT LENGTH:   79999773      RECORD LENGTH: 262144

 Memory used in sort:      80.29 MW

 SORT1 READ 15248138275. AND WROTE 10587813328. INTEGRALS IN  60679 RECORDS. CPU TIME:   190.58 SEC, REAL TIME:  9586.69 SEC
 SORT2 READ 10587813328. AND WROTE 14689922715. INTEGRALS IN 155460 RECORDS. CPU TIME:   336.76 SEC, REAL TIME: 12679.89 SEC

 FILE SIZES:   FILE 1: 40795.6 MBYTE,  FILE 4:127253.1 MBYTE,   TOTAL: 168048.8 MBYTE

 OPERATOR DM      FOR CENTER  0  COORDINATES:    0.000000    0.000000    0.000000


 **********************************************************************************************************************************
 DATASETS  * FILE   NREC   LENGTH (MB)   RECORD NAMES
              1      19    37754.71       500      610      700      900      950      970     1000      129      960     1100   
                                          VAR    BASINP    GEOM    SYMINP    ZMAT    AOBASIS   BASIS     P2S    ABASIS      S 
                                         1400     1410     1200     1210     1080     1600     1650     1300     1700   
                                           T        V       H0       H01     AOSYM     SMH    MOLCAS    ERIS     OPER   

 PROGRAMS   *        TOTAL       INT
 CPU TIMES  *      1188.72   1188.58
 REAL TIME  *     23644.69 SEC
 DISK USED  *       168.05 GB      
 **********************************************************************************************************************************

 Density functional group B97=B97DF
 Functional: B97DF(Automatically generated (new) B97DF)                        Gradient terms: 1
 Use grid at  1800.2


 Exact exchange will be calculated, factor:  0.1943

 Functional: B97DF                     Factor:  1.0000

 Generated new metagrid on record  1800.2 with target accuracy 1.0D-06 and 58228 points in CPU time    1.7
 Computed new grid on record 1800.1 in CPU time    1.8
  469144 words reserved for DFT integration

 PROGRAM * RKS-SCF (Restricted closed shell Kohn-Sham)     Authors: W. Meyer, H.-J. Werner, P.J. Knowles, 1993

 NUMBER OF ELECTRONS:      21+   21-    SPACE SYMMETRY=1    SPIN SYMMETRY: Singlet 
 CONVERGENCE THRESHOLDS:    1.00E-05 (Density)    1.00E-06 (Energy)
 MAX. NUMBER OF ITERATIONS:       60
 INTERPOLATION TYPE:            DIIS
 INTERPOLATION STEPS:              2 (START)      1 (STEP)
 LEVEL SHIFTS:                  0.00 (CLOSED)  0.00 (OPEN) 



 Use fine grid record 1800.2 for energy threshold  1.0D-06
 Orbital guess generated from atomic densities. Full valence occupancy:   21

 Molecular orbital dump at record        2100.2

 Initial occupancy:  21

 ITERATION    DDIFF          GRAD             ENERGY        2-EL.EN.            DIPOLE MOMENTS         DIIS   ORB.
    1      0.000D+00      0.000D+00      -233.49716470    623.973648    0.68815   -0.80846    0.00000    0    start
    2      0.000D+00      0.419D-02      -233.35740438    589.483436   -0.23949   -0.04644    0.00000    1    diag
    3      0.465D-02      0.554D-02      -233.69846301    610.172328    0.37469   -0.62565    0.00000    2    diag
    4      0.371D-02      0.689D-03      -233.70239854    609.365453    0.33496   -0.47222    0.00000    3    diag
    5      0.240D-03      0.202D-03      -233.70273088    609.273881    0.33293   -0.52927    0.00000    4    diag
    6      0.611D-04      0.597D-04      -233.70276444    609.383111    0.33542   -0.51822    0.00000    5    diag
    7      0.162D-04      0.185D-04      -233.70276761    609.367780    0.33604   -0.51691    0.00000    6    diag
    8      0.398D-05      0.210D-05      -233.70276766    609.372871    0.33574   -0.51849    0.00000    7    diag
    9      0.110D-05      0.621D-06      -233.70276766    609.371434    0.33593   -0.51771    0.00000    0    orth

 Final occupancy:  21

 !RKS STATE 1.1 Energy               -233.702767659953
 Nuclear energy                       198.77359127
 One-electron energy                 -709.49428911
 Two-electron energy                  304.68571696
 SCF exchange energy                  -32.51311712     Factor= 0.1943
 Density functional                   -27.66778678     B97DF=-27.66778678
 Virial quotient                       -1.00516169
 !RKS STATE 1.1 Dipole moment           0.33592580    -0.51771433     0.00000000
 Dipole moment /Debye                   0.85378230    -1.31581238     0.00000000

 Orbital energies:

         1.1          2.1          3.1          4.1          5.1          6.1          7.1          8.1          9.1         10.1
    -19.105862   -10.221544   -10.151451   -10.151448   -10.146316    -1.018471    -0.787643    -0.691321    -0.690296    -0.568005

        11.1         12.1         13.1         14.1         15.1         16.1         17.1         18.1         19.1         20.1
     -0.488570    -0.450977    -0.448038    -0.411525    -0.396790    -0.378917    -0.365711    -0.354769    -0.347553    -0.319396

        21.1         22.1         23.1
     -0.271918     0.011292     0.047711

 HOMO     21.1    -0.271918 =      -7.3993eV
 LUMO     22.1     0.011292 =       0.3073eV
 LUMO-HOMO         0.283211 =       7.7066eV


 **********************************************************************************************************************************
 DATASETS  * FILE   NREC   LENGTH (MB)   RECORD NAMES
              1      20    37756.57       500      610      700      900      950      970     1000      129      960     1100   
                                          VAR    BASINP    GEOM    SYMINP    ZMAT    AOBASIS   BASIS     P2S    ABASIS      S 
                                         1400     1410     1200     1210     1080     1600     1650     1300     1700     1800   
                                           T        V       H0       H01     AOSYM     SMH    MOLCAS    ERIS     OPER     GRID   

              2       5        9.95       700     1000      520     1800     2100   
                                         GEOM     BASIS   MCVARS    GRID      RKS  

 PROGRAMS   *        TOTAL        KS       INT
 CPU TIMES  *      4068.11   2879.39   1188.58
 REAL TIME  *     34151.38 SEC
 DISK USED  *       168.05 GB      
 **********************************************************************************************************************************


 PROGRAM * Intrinsic Basis Bonding Analysis (IBBA)          Author: G. Knizia

 Molecular orbitals read from record     2100.2  Type=RKS/CANONICAL (state 1.1)
 Fock matrix read from record            2100.2  Type=RKS/TOTAL (state 1.1)
 Orbital energies read from record       2100.2  Type=RKS/CANONICAL (state 1.1)
 Density matrix read from record         2100.2  Type=RKS/CHARGE (state 1.1)

 Number of core orbitals:           5 (   5 )
 Number of closed-shell orbitals:  16 (  16 )

 Basis set MINAO-AUTO-PP generated.      Number of basis functions:   35 

 Polarized AO type:                A = (O Ot + (1-O)(1-Ot)) P12
 Orthogonalization method:         Symmetric (Loewdin)
 Localization functional:          L = sum[A,i] <i|n_A|i>^4 -> max

 Localization group 1:  21 orbitals, occupancy  2.000
 Iterative localization: IB/PM,    7 iter; Final gradient 0.27E-08

 Bond order analysis:       [THRPRINT= 0.020]

   CEN ATOM   CEN ATOM     WIBERG.BO      RENORM.BO
     1   C  -   2   C       0.996565       0.993750
     1   C  -   5   H       0.963225       0.987190
     1   C  -   6   H       0.958361       0.981453
     1   C  -   7   H       0.958361       0.981453

     2   C  -   1   C       0.996565       0.993750
     2   C  -   9   C       0.995254       0.976034
     2   C  -   8   C       0.995254       0.976034
     2   C  -   3   O       0.932728       0.949737

     3   O  -   2   C       0.932728       0.949737
     3   O  -   4   H       0.860509       0.976411
     3   O  -   9   C       0.027560       0.014084
     3   O  -   8   C       0.027560       0.014084

     4   H  -   3   O       0.860509       0.976411

     5   H  -   1   C       0.963225       0.987190

     6   H  -   1   C       0.958361       0.981453

     7   H  -   1   C       0.958361       0.981453

     8   C  -   2   C       0.995254       0.976034
     8   C  -  14   H       0.962601       0.982161
     8   C  -  12   H       0.958988       0.981459
     8   C  -  10   H       0.958878       0.981314
     8   C  -   3   O       0.027560       0.014084

     9   C  -   2   C       0.995254       0.976034
     9   C  -  15   H       0.962601       0.982161
     9   C  -  13   H       0.958988       0.981459
     9   C  -  11   H       0.958878       0.981314
     9   C  -   3   O       0.027560       0.014084

    10   H  -   8   C       0.958878       0.981314

    11   H  -   9   C       0.958878       0.981314

    12   H  -   8   C       0.958988       0.981459

    13   H  -   9   C       0.958988       0.981459

    14   H  -   8   C       0.962601       0.982161

    15   H  -   9   C       0.962601       0.982161


 Valency analysis:

   CEN ATOM   TOT.VALENCE
     1   C       3.936376
     2   C       3.929767
     3   O       1.915231
     4   H       0.880054
     5   H       0.981689
     6   H       0.979043
     7   H       0.979043
     8   C       3.939005
     9   C       3.939005
    10   H       0.979078
    11   H       0.979078
    12   H       0.980914
    13   H       0.980914
    14   H       0.983206
    15   H       0.983206

 Total charge composition:

   CEN ATOM         s          p       ELECTRONS ->P.CHARGE
     1   C       3.04549    3.37187      6.41736   -0.41736
     2   C       2.94134    2.79998      5.74132    0.25868
     3   O       3.65094    4.92541      8.57635   -0.57635
     4   H       0.65367                 0.65367    0.34633
     5   H       0.86468                 0.86468    0.13532
     6   H       0.85524                 0.85524    0.14476
     7   H       0.85524                 0.85524    0.14476
     8   C       3.05182    3.37865      6.43046   -0.43046
     9   C       3.05182    3.37865      6.43046   -0.43046
    10   H       0.85535                 0.85535    0.14465
    11   H       0.85535                 0.85535    0.14465
    12   H       0.86185                 0.86185    0.13815
    13   H       0.86185                 0.86185    0.13815
    14   H       0.87041                 0.87041    0.12959
    15   H       0.87041                 0.87041    0.12959

 Total charge composition, AO contributions:

   CEN ATOM SHL      SPHERICAL COMPONENTS
     1   C  1s       1.99107
     1   C  2s       1.05442
     1   C  2p       1.03792    1.16084    1.17310

     2   C  1s       1.99271
     2   C  2s       0.94864
     2   C  2p       1.00618    0.78499    1.00881

     3   O  1s       1.99713
     3   O  2s       1.65381
     3   O  2p       1.47602    1.49302    1.95637

     4   H  1s       0.65367

     5   H  1s       0.86468

     6   H  1s       0.85524

     7   H  1s       0.85524

     8   C  1s       1.99117
     8   C  2s       1.06064
     8   C  2p       1.14286    1.14265    1.09313

     9   C  1s       1.99117
     9   C  2s       1.06064
     9   C  2p       1.14286    1.14265    1.09313

    10   H  1s       0.85535

    11   H  1s       0.85535

    12   H  1s       0.86185

    13   H  1s       0.86185

    14   H  1s       0.87041

    15   H  1s       0.87041

 Summary of localized orbital composition:   [THRPRINT= 0.020]

   ORB  GRP  ORB.ENERGY      CENTERS/CHARGES
     1   1   -18.944329      O  3   2.000
     2   1   -10.129369      C  2   2.000
     3   1   -10.035908      C  9   2.000
     4   1   -10.035908      C  8   2.000
     5   1   -10.029974      C  1   2.000
     6   1    -0.761372      O  3   1.348   H  4   0.642
     7   1    -0.717922      O  3   1.286   C  2   0.696
     8   1    -0.580541      O  3   1.982
     9   1    -0.573169      C  8   1.008   C  2   0.977
    10   1    -0.573169      C  9   1.008   C  2   0.977
    11   1    -0.572540      C  1   0.990   C  2   0.986   (other: 0.024)
    12   1    -0.505339      C  8   1.134   H 12   0.852
    13   1    -0.505339      C  9   1.134   H 13   0.852
    14   1    -0.503485      C  8   1.125   H 14   0.863
    15   1    -0.503485      C  9   1.125   H 15   0.863
    16   1    -0.501117      C  1   1.129   H  5   0.858
    17   1    -0.499493      C  9   1.142   H 11   0.847
    18   1    -0.499493      C  8   1.142   H 10   0.847
    19   1    -0.494913      C  1   1.142   H  6   0.847
    20   1    -0.494913      C  1   1.142   H  7   0.847
    21   1    -0.304744      O  3   1.956   (other: 0.044)

 Localized orbitals saved to record      2100.2  (orbital set 2)


 **********************************************************************************************************************************
 DATASETS  * FILE   NREC   LENGTH (MB)   RECORD NAMES
              1      20    37756.57       500      610      700      900      950      970     1000      129      960     1100   
                                          VAR    BASINP    GEOM    SYMINP    ZMAT    AOBASIS   BASIS     P2S    ABASIS      S 
                                         1400     1410     1200     1210     1080     1600     1650     1300     1700     1800   
                                           T        V       H0       H01     AOSYM     SMH    MOLCAS    ERIS     OPER     GRID   

              2       5       12.70       700     1000      520     1800     2100   
                                         GEOM     BASIS   MCVARS    GRID      RKS  

 PROGRAMS   *        TOTAL      IBBA        KS       INT
 CPU TIMES  *      4068.56      0.44   2879.39   1188.58
 REAL TIME  *     34152.33 SEC
 DISK USED  *       168.05 GB      
 **********************************************************************************************************************************
 Molecular orbitals read from record     2100.2  Type=RKS/LOCAL(IBO)  
 Occupation numbers read from record     2100.2  Type=RKS/LOCAL(IBO)  
 Orbital energies read from record       2100.2  Type=RKS/LOCAL(IBO)  
 Redundancy group numbers read from rec  2100.2  Type=RKS/LOCAL(IBO)  

 IBBA/QZVP energy=      0.000000000000

        KS-SCF  
   -233.70276766
 **********************************************************************************************************************************
 Molpro calculation terminated
