
 Primary working directories    : /tmp/sb13343
 Secondary working directories  : /tmp/sb13343
 Wavefunction directory         : /panfs/panasas01/chem/sb13343/wfu/
 Main file repository           : /tmp/sb13343/

 SHA1      : b4a5b34a9e711420743f49e6833241d17c61fb3c
 NAME      : 2099.9.b4a5b34
 ARCHNAME  : linux/x86_64_openmp
 FC        : /cm/shared/languages/GCC-6.1/bin/gfortran
 BLASLIB   : -lblas
 id        : simonbennie

 Nodes     nprocs
 node32-002    1

 Using customized tuning parameters: mindgm=1; mindgv=20; mindgc=4; mindgr=1; noblas=0; minvec=7
 default implementation of scratch files=df  

 memory,500,m
 geomtyp=xyz
 nosym
 noorient
 geometry={
 C          0.00000        0.00000        0.00000
 C          0.00000        0.00000        1.53307
 O          1.40344        0.00000        1.86307
 C          1.76314        0.00000        3.22887
 H         -1.02289        0.00000       -0.39176
 H          0.51995       -0.88625       -0.37815
 H          0.51995        0.88625       -0.37815
 H          2.85677        0.00000        3.25413
 H          1.40708       -0.89217        3.76475
 H          1.40708        0.89217        3.76475
 C         -0.69252       -1.26694        2.06222
 C         -0.69252        1.26694        2.06222
 H         -0.15366       -2.16088        1.72982
 H         -0.15366        2.16088        1.72982
 H         -1.72011       -1.32515        1.68649
 H         -1.72011        1.32515        1.68649
 H         -0.74365       -1.28188        3.15638
 H         -0.74365        1.28188        3.15638
 }
 basis={ default,sto-3g }
 {ks,M06-HF,direct;wf,50,1,0}
 {ibba,bonds=1}

 Variables initialized (895), CPU time= 0.00 sec
 Commands  initialized (725), CPU time= 0.02 sec, 591 directives.
 Default parameters read. Elapsed time= 0.12 sec

 Checking input...
 Passed
1


                                         ***  PROGRAM SYSTEM MOLPRO  ***
                                       Copyright, TTI GmbH Stuttgart, 2015
                                    Version 2099.9 linked May 26 2017 16:03:21


 **********************************************************************************************************************************
 LABEL *                                                                                 
  64 bit serial version                                                                  DATE: 09-Jun-17          TIME: 01:46:37  
 **********************************************************************************************************************************

 SHA1:             b4a5b34a9e711420743f49e6833241d17c61fb3c
 **********************************************************************************************************************************
 SETTING GEOMTYP        =    XYZ

 Variable memory set to  500000000 words,  buffer space 

 ZSYMEL=NOSYM

 SETTING BASIS          =    STO-3G


 Recomputing integrals since basis changed


 Using spherical harmonics

 Library entry C      S STO-3G               selected for orbital group  1
 Library entry C      P STO-3G               selected for orbital group  1
 Library entry O      S STO-3G               selected for orbital group  2
 Library entry O      P STO-3G               selected for orbital group  2
 Library entry H      S STO-3G               selected for orbital group  4


 PROGRAM * SEWARD (Integral evaluation for generally contracted gaussian basis sets)     Author: Roland Lindh, 1990

 Geometry written to block  1 of record 700


 Point group  C1  



 ATOMIC COORDINATES

 NR  ATOM    CHARGE       X              Y              Z

   1  C       6.00    0.000000000    0.000000000    0.000000000
   2  C       6.00    0.000000000    0.000000000    2.897082430
   3  O       8.00    2.652117232    0.000000000    3.520692051
   4  C       6.00    3.331851719    0.000000000    6.101679992
   5  H       1.00   -1.932981956    0.000000000   -0.740319107
   6  H       1.00    0.982563098   -1.674769778   -0.714599934
   7  H       1.00    0.982563098    1.674769778   -0.714599934
   8  H       1.00    5.398512901    0.000000000    6.149414474
   9  H       1.00    2.658995835   -1.685956957    7.114346427
  10  H       1.00    2.658995835    1.685956957    7.114346427
  11  C       6.00   -1.308673136   -2.394169616    3.897031009
  12  C       6.00   -1.308673136    2.394169616    3.897031009
  13  H       1.00   -0.290375316   -4.083471388    3.268886045
  14  H       1.00   -0.290375316    4.083471388    3.268886045
  15  H       1.00   -3.250536804   -2.504170574    3.187004212
  16  H       1.00   -3.250536804    2.504170574    3.187004212
  17  H       1.00   -1.405294833   -2.422402125    5.964693745
  18  H       1.00   -1.405294833    2.422402125    5.964693745

 Bond lengths in Bohr (Angstrom)

 1-2  2.897082430  1-5  2.069901355  1-6  2.069042560  1-7  2.069042560  2-3  2.724447609
     ( 1.533070000)     ( 1.095344626)     ( 1.094890171)     ( 1.094890171)     ( 1.441715587)

  2-11  2.905954351   2-12  2.905954351   3- 4  2.668995640   4- 8  2.067212379   4- 9  2.078624355
       ( 1.537764818)       ( 1.537764818)       ( 1.412371669)       ( 1.093921681)       ( 1.099960639)

  4-10  2.078624355  11-13  2.070081404  11-15  2.070524757  11-17  2.070111596  12-14  2.070081404
       ( 1.099960639)       ( 1.095439904)       ( 1.095674516)       ( 1.095455880)       ( 1.095439904)

 12-16  2.070524757  12-18  2.070111596
       ( 1.095674516)       ( 1.095455880)

 Bond angles

  1- 2- 3  103.23196371   1- 2-11  110.12706952   1- 2-12  110.12706952   2- 1- 5  110.95650426

  2- 1- 6  110.20481748   2- 1- 7  110.20481748   2- 3- 4  117.98647004   2-11-13  110.26679927

  2-11-15  110.37287188   2-11-17  112.08316935   2-12-14  110.26679927   2-12-16  110.37287188

  2-12-18  112.08316935   3- 2-11  111.07703285   3- 2-12  111.07703285   3- 4- 8  106.07765410

  3- 4- 9  112.87219182   3- 4-10  112.87219182   5- 1- 6  108.65976572   5- 1- 7  108.65976572

  6- 1- 7  108.08288210   8- 4- 9  108.20190897   8- 4-10  108.20190897   9- 4-10  108.40564999

 11- 2-12  110.95103964  13-11-15  108.29648994  13-11-17  108.35544687  14-12-16  108.29648994

 14-12-18  108.35544687  15-11-17  107.33851825  16-12-18  107.33851825

 NUCLEAR CHARGE:                   50
 NUMBER OF PRIMITIVE AOS:         126
 NUMBER OF SYMMETRY AOS:          126
 NUMBER OF CONTRACTIONS:           42   (  42A   )
 NUMBER OF CORE ORBITALS:           6   (   6A   )
 NUMBER OF VALENCE ORBITALS:       36   (  36A   )


 NUCLEAR REPULSION ENERGY  270.15500869


 Eigenvalues of metric

         1 0.207E+00 0.226E+00 0.228E+00 0.234E+00 0.307E+00 0.355E+00 0.359E+00 0.362E+00


 Contracted 2-electron integrals neglected if value below      1.0D-11
 AO integral compression algorithm  1   Integral accuracy      1.0D-11

     2.884 MB (compressed) written to integral file ( 84.3%)


 NUMBER OF SORTED TWO-ELECTRON INTEGRALS:     408156.     BUFFER LENGTH:  32768
 NUMBER OF SEGMENTS:   1  SEGMENT LENGTH:     408156      RECORD LENGTH: 524288

 Memory used in sort:       0.97 MW

 SORT1 READ      453477. AND WROTE      382834. INTEGRALS IN      2 RECORDS. CPU TIME:     0.01 SEC, REAL TIME:     0.03 SEC
 SORT2 READ      382834. AND WROTE      408156. INTEGRALS IN     11 RECORDS. CPU TIME:     0.03 SEC, REAL TIME:     0.05 SEC

 FILE SIZES:   FILE 1:    33.2 MBYTE,  FILE 4:     8.4 MBYTE,   TOTAL:     41.6 MBYTE

 OPERATOR DM      FOR CENTER  0  COORDINATES:    0.000000    0.000000    0.000000


 **********************************************************************************************************************************
 DATASETS  * FILE   NREC   LENGTH (MB)   RECORD NAMES
              1      19       31.98       500      610      700      900      950      970     1000      129      960     1100   
                                          VAR    BASINP    GEOM    SYMINP    ZMAT    AOBASIS   BASIS     P2S    ABASIS      S 
                                         1400     1410     1200     1210     1080     1600     1650     1300     1700   
                                           T        V       H0       H01     AOSYM     SMH    MOLCAS    ERIS     OPER   

 PROGRAMS   *        TOTAL       INT
 CPU TIMES  *         0.85      0.71
 REAL TIME  *         2.50 SEC
 DISK USED  *        42.19 MB      
 **********************************************************************************************************************************

 Density functional group M06-HF=XC-M06-HF
 Functional: XC-M06-HF(via MFM 1.6)                                            Gradient terms: 1
 Use grid at  1800.2


 Exact exchange will be calculated, factor:  1.0000

 Functional: XC-M06-HF                 Factor:  1.0000

 Generated new metagrid on record  1800.2 with target accuracy 1.0D-06 and 66012 points in CPU time    2.1
 Computed new grid on record 1800.1 in CPU time    2.3
   38106 words reserved for DFT integration

 PROGRAM * RKS-SCF (Restricted closed shell Kohn-Sham)     Authors: W. Meyer, H.-J. Werner, P.J. Knowles, 1993

 NUMBER OF ELECTRONS:      25+   25-    SPACE SYMMETRY=1    SPIN SYMMETRY: Singlet 
 CONVERGENCE THRESHOLDS:    1.00E-05 (Density)    1.00E-06 (Energy)
 MAX. NUMBER OF ITERATIONS:       60
 INTERPOLATION TYPE:            DIIS
 INTERPOLATION STEPS:              2 (START)      1 (STEP)
 LEVEL SHIFTS:                  0.00 (CLOSED)  0.00 (OPEN) 



 Use fine grid record 1800.2 for energy threshold  1.0D-06
 Orbital guess generated from atomic densities. Full valence occupancy:   25

 Molecular orbital dump at record        2100.2

 Initial occupancy:  25

 ITERATION    DDIFF          GRAD             ENERGY        2-EL.EN.            DIPOLE MOMENTS         DIIS   ORB.
    1      0.000D+00      0.000D+00      -269.41602974    740.990430   -0.95667   -0.00000    0.77331    0    start
    2      0.000D+00      0.208D-01      -269.66803855    722.906633   -0.16856   -0.00000    0.08276    1    diag
    3      0.454D-01      0.546D-02      -269.68443806    726.099963   -0.32995   -0.00000    0.26066    2    diag
    4      0.951D-02      0.706D-03      -269.68484591    726.124836   -0.33685   -0.00000    0.25798    3    diag
    5      0.178D-02      0.270D-03      -269.68490042    726.090206   -0.33905   -0.00000    0.26083    4    diag
    6      0.577D-03      0.505D-04      -269.68490351    726.093519   -0.33801   -0.00000    0.26004    5    diag
    7      0.166D-03      0.187D-04      -269.68490387    726.092125   -0.33843   -0.00000    0.26007    6    diag
    8      0.575D-04      0.330D-05      -269.68490389    726.092191   -0.33841   -0.00000    0.26004    7    diag
    9      0.129D-04      0.525D-06      -269.68490389    726.092175   -0.33841   -0.00000    0.26004    8    diag
   10      0.160D-05      0.101D-06      -269.68490389    726.092175   -0.33841   -0.00000    0.26004    0    orth

 Final occupancy:  25

 !RKS STATE 1.1 Energy               -269.684903889178
 Nuclear energy                       270.15500869
 One-electron energy                 -901.07214631
 Two-electron energy                  363.04608771
 SCF exchange energy                  -38.58846373     Factor= 1.0000
 Density functional                    -1.81385398     XC-M06-HF=-1.81385398
 Virial quotient                       -1.01658032
 !RKS STATE 1.1 Dipole moment          -0.33840661    -0.00000000     0.26004037
 Dipole moment /Debye                  -0.86008746    -0.00000000     0.66091339

 Orbital energies:

         1.1          2.1          3.1          4.1          5.1          6.1          7.1          8.1          9.1         10.1
    -19.935814   -10.843570   -10.831749   -10.789387   -10.789318   -10.788361    -1.209443    -0.958665    -0.851155    -0.846713

        11.1         12.1         13.1         14.1         15.1         16.1         17.1         18.1         19.1         20.1
     -0.817999    -0.673173    -0.599110    -0.583311    -0.575746    -0.552930    -0.528043    -0.506964    -0.497360    -0.481625

        21.1         22.1         23.1         24.1         25.1         26.1         27.1
     -0.474998    -0.441840    -0.425741    -0.359103    -0.327818     0.431123     0.496662

 HOMO     25.1    -0.327818 =      -8.9204eV
 LUMO     26.1     0.431123 =      11.7315eV
 LUMO-HOMO         0.758942 =      20.6519eV


 **********************************************************************************************************************************
 DATASETS  * FILE   NREC   LENGTH (MB)   RECORD NAMES
              1      20       34.09       500      610      700      900      950      970     1000      129      960     1100   
                                          VAR    BASINP    GEOM    SYMINP    ZMAT    AOBASIS   BASIS     P2S    ABASIS      S 
                                         1400     1410     1200     1210     1080     1600     1650     1300     1700     1800   
                                           T        V       H0       H01     AOSYM     SMH    MOLCAS    ERIS     OPER     GRID   

              2       5        3.09       700     1000      520     1800     2100   
                                         GEOM     BASIS   MCVARS    GRID      RKS  

 PROGRAMS   *        TOTAL        KS       INT
 CPU TIMES  *        15.83     14.98      0.71
 REAL TIME  *        25.36 SEC
 DISK USED  *        42.19 MB      
 **********************************************************************************************************************************


 PROGRAM * Intrinsic Basis Bonding Analysis (IBBA)          Author: G. Knizia

 Molecular orbitals read from record     2100.2  Type=RKS/CANONICAL (state 1.1)
 Fock matrix read from record            2100.2  Type=RKS/TOTAL (state 1.1)
 Orbital energies read from record       2100.2  Type=RKS/CANONICAL (state 1.1)
 Density matrix read from record         2100.2  Type=RKS/CHARGE (state 1.1)

 Number of core orbitals:           6 (   6 )
 Number of closed-shell orbitals:  19 (  19 )

 Basis set MINAO-AUTO-PP generated.      Number of basis functions:   42 

 Polarized AO type:                A = (O Ot + (1-O)(1-Ot)) P12
 Orthogonalization method:         Symmetric (Loewdin)
 Localization functional:          L = sum[A,i] <i|n_A|i>^4 -> max

 Localization group 1:  25 orbitals, occupancy  2.000
 Iterative localization: IB/PM,    7 iter; Final gradient 0.24E-08

 Bond order analysis:       [THRPRINT= 0.020]

   CEN ATOM   CEN ATOM     WIBERG.BO      RENORM.BO
     1   C  -   2   C       0.989787       0.990256
     1   C  -   5   H       0.969437       0.991444
     1   C  -   7   H       0.965351       0.989607
     1   C  -   6   H       0.965351       0.989607

     2   C  -  11   C       0.989802       0.974035
     2   C  -  12   C       0.989802       0.974035
     2   C  -   1   C       0.989787       0.990256
     2   C  -   3   O       0.977932       0.968048

     3   O  -   4   C       1.007786       1.006979
     3   O  -   2   C       0.977932       0.968048

     4   C  -   3   O       1.007786       1.006979
     4   C  -   9   H       0.964339       0.965793
     4   C  -  10   H       0.964339       0.965793
     4   C  -   8   H       0.959448       0.981516

     5   H  -   1   C       0.969437       0.991444

     6   H  -   1   C       0.965351       0.989607

     7   H  -   1   C       0.965351       0.989607

     8   H  -   4   C       0.959448       0.981516

     9   H  -   4   C       0.964339       0.965793

    10   H  -   4   C       0.964339       0.965793

    11   C  -   2   C       0.989802       0.974035
    11   C  -  17   H       0.967946       0.988731
    11   C  -  15   H       0.967449       0.992129
    11   C  -  13   H       0.965949       0.989712

    12   C  -   2   C       0.989802       0.974035
    12   C  -  18   H       0.967946       0.988731
    12   C  -  16   H       0.967449       0.992129
    12   C  -  14   H       0.965949       0.989712

    13   H  -  11   C       0.965949       0.989712

    14   H  -  12   C       0.965949       0.989712

    15   H  -  11   C       0.967449       0.992129

    16   H  -  12   C       0.967449       0.992129

    17   H  -  11   C       0.967946       0.988731

    18   H  -  12   C       0.967946       0.988731


 Valency analysis:

   CEN ATOM   TOT.VALENCE
     1   C       3.931659
     2   C       3.975654
     3   O       2.101742
     4   C       3.915045
     5   H       0.984946
     6   H       0.982607
     7   H       0.982607
     8   H       0.981294
     9   H       0.987974
    10   H       0.987974
    11   C       3.933271
    12   C       3.933271
    13   H       0.983135
    14   H       0.983135
    15   H       0.983863
    16   H       0.983863
    17   H       0.985362
    18   H       0.985362

 Total charge composition:

   CEN ATOM         s          p       ELECTRONS ->P.CHARGE
     1   C       2.97333    3.39647      6.36980   -0.36980
     2   C       2.93652    2.95419      5.89071    0.10929
     3   O       3.63304    4.58532      8.21835   -0.21835
     4   C       2.98076    3.27273      6.25350   -0.25350
     5   H       0.87731                 0.87731    0.12269
     6   H       0.86812                 0.86812    0.13188
     7   H       0.86812                 0.86812    0.13188
     8   H       0.86323                 0.86323    0.13677
     9   H       0.89034                 0.89034    0.10966
    10   H       0.89034                 0.89034    0.10966
    11   C       2.97390    3.40908      6.38298   -0.38298
    12   C       2.97390    3.40908      6.38298   -0.38298
    13   H       0.87013                 0.87013    0.12987
    14   H       0.87013                 0.87013    0.12987
    15   H       0.87297                 0.87297    0.12703
    16   H       0.87297                 0.87297    0.12703
    17   H       0.87901                 0.87901    0.12099
    18   H       0.87901                 0.87901    0.12099

 Total charge composition, AO contributions:

   CEN ATOM SHL      SPHERICAL COMPONENTS
     1   C  1s       1.99115
     1   C  2s       0.98218
     1   C  2p       1.16932    1.17894    1.04821

     2   C  1s       1.99264
     2   C  2s       0.94388
     2   C  2p       0.88830    1.02969    1.03620

     3   O  1s       1.99727
     3   O  2s       1.63577
     3   O  2p       1.31053    1.94563    1.32916

     4   C  1s       1.99173
     4   C  2s       0.98904
     4   C  2p       1.16723    1.16804    0.93747

     5   H  1s       0.87731

     6   H  1s       0.86812

     7   H  1s       0.86812

     8   H  1s       0.86323

     9   H  1s       0.89034

    10   H  1s       0.89034

    11   C  1s       1.99120
    11   C  2s       0.98270
    11   C  2p       1.15234    1.10092    1.15583

    12   C  1s       1.99120
    12   C  2s       0.98270
    12   C  2p       1.15234    1.10092    1.15583

    13   H  1s       0.87013

    14   H  1s       0.87013

    15   H  1s       0.87297

    16   H  1s       0.87297

    17   H  1s       0.87901

    18   H  1s       0.87901

 Summary of localized orbital composition:   [THRPRINT= 0.020]

   ORB  GRP  ORB.ENERGY      CENTERS/CHARGES
     1   1   -19.749438      O  3   2.000
     2   1   -10.745207      C  2   2.000
     3   1   -10.718977      C  4   2.000
     4   1   -10.672064      C 12   2.000
     5   1   -10.672064      C 11   2.000
     6   1   -10.670444      C  1   2.000
     7   1    -0.846392      O  3   1.139   C  4   0.854
     8   1    -0.809666      O  3   1.147   C  2   0.834
     9   1    -0.748617      O  3   1.978   (other: 0.022)
    10   1    -0.684727      C 11   0.995   C  2   0.992
    11   1    -0.684727      C 12   0.995   C  2   0.992
    12   1    -0.683029      C  2   1.002   C  1   0.977   (other: 0.021)
    13   1    -0.648094      C  4   1.120   H  9   0.879
    14   1    -0.648094      C  4   1.120   H 10   0.879
    15   1    -0.646791      C  4   1.136   H  8   0.855
    16   1    -0.633291      C 12   1.119   H 18   0.873
    17   1    -0.633291      C 11   1.119   H 17   0.873
    18   1    -0.630976      C 12   1.124   H 16   0.867
    19   1    -0.630976      C 11   1.124   H 15   0.867
    20   1    -0.629979      C  1   1.121   H  5   0.871
    21   1    -0.629765      C 12   1.128   H 14   0.864
    22   1    -0.629765      C 11   1.128   H 13   0.864
    23   1    -0.625213      C  1   1.130   H  6   0.862
    24   1    -0.625213      C  1   1.130   H  7   0.862
    25   1    -0.393136      O  3   1.946   (other: 0.054)

 Localized orbitals saved to record      2100.2  (orbital set 2)


 **********************************************************************************************************************************
 DATASETS  * FILE   NREC   LENGTH (MB)   RECORD NAMES
              1      20       34.09       500      610      700      900      950      970     1000      129      960     1100   
                                          VAR    BASINP    GEOM    SYMINP    ZMAT    AOBASIS   BASIS     P2S    ABASIS      S 
                                         1400     1410     1200     1210     1080     1600     1650     1300     1700     1800   
                                           T        V       H0       H01     AOSYM     SMH    MOLCAS    ERIS     OPER     GRID   

              2       5        3.11       700     1000      520     1800     2100   
                                         GEOM     BASIS   MCVARS    GRID      RKS  

 PROGRAMS   *        TOTAL      IBBA        KS       INT
 CPU TIMES  *        15.87      0.04     14.98      0.71
 REAL TIME  *        25.53 SEC
 DISK USED  *        42.19 MB      
 **********************************************************************************************************************************
 Molecular orbitals read from record     2100.2  Type=RKS/LOCAL(IBO)  
 Occupation numbers read from record     2100.2  Type=RKS/LOCAL(IBO)  
 Orbital energies read from record       2100.2  Type=RKS/LOCAL(IBO)  
 Redundancy group numbers read from rec  2100.2  Type=RKS/LOCAL(IBO)  

 IBBA/STO-3G energy=      0.000000000000

        KS-SCF  
   -269.68490389
 **********************************************************************************************************************************
 Molpro calculation terminated
