
 Primary working directories    : /tmp/sb13343
 Secondary working directories  : /tmp/sb13343
 Wavefunction directory         : /panfs/panasas01/chem/sb13343/wfu/
 Main file repository           : /tmp/sb13343/

 SHA1      : b4a5b34a9e711420743f49e6833241d17c61fb3c
 NAME      : 2099.9.b4a5b34
 ARCHNAME  : linux/x86_64_openmp
 FC        : /cm/shared/languages/GCC-6.1/bin/gfortran
 BLASLIB   : -lblas
 id        : simonbennie

 Nodes     nprocs
 node35-048    1

 Using customized tuning parameters: mindgm=1; mindgv=20; mindgc=4; mindgr=1; noblas=0; minvec=7
 default implementation of scratch files=df  

 memory,500,m
 geomtyp=xyz
 nosym
 noorient
 geometry={
 C          0.00000        0.00000        0.00000
 C          0.00000        0.00000        1.53307
 O          1.40344        0.00000        1.86307
 C          1.76314        0.00000        3.22887
 H         -1.02289        0.00000       -0.39176
 H          0.51995       -0.88625       -0.37815
 H          0.51995        0.88625       -0.37815
 H          2.85677        0.00000        3.25413
 H          1.40708       -0.89217        3.76475
 H          1.40708        0.89217        3.76475
 C         -0.69252       -1.26694        2.06222
 C         -0.69252        1.26694        2.06222
 H         -0.15366       -2.16088        1.72982
 H         -0.15366        2.16088        1.72982
 H         -1.72011       -1.32515        1.68649
 H         -1.72011        1.32515        1.68649
 H         -0.74365       -1.28188        3.15638
 H         -0.74365        1.28188        3.15638
 }
 basis={ default,sto-3g }
 {uks,PBEREV,direct;wf,50,1,0}
 {ibba,bonds=1}

 Variables initialized (895), CPU time= 0.00 sec
 Commands  initialized (725), CPU time= 0.02 sec, 591 directives.
 Default parameters read. Elapsed time= 0.08 sec

 Checking input...
 Passed
1


                                         ***  PROGRAM SYSTEM MOLPRO  ***
                                       Copyright, TTI GmbH Stuttgart, 2015
                                    Version 2099.9 linked May 26 2017 16:03:21


 **********************************************************************************************************************************
 LABEL *                                                                                 
  64 bit serial version                                                                  DATE: 09-Jun-17          TIME: 01:42:21  
 **********************************************************************************************************************************

 SHA1:             b4a5b34a9e711420743f49e6833241d17c61fb3c
 **********************************************************************************************************************************
 SETTING GEOMTYP        =    XYZ

 Variable memory set to  500000000 words,  buffer space 

 ZSYMEL=NOSYM

 SETTING BASIS          =    STO-3G


 Recomputing integrals since basis changed


 Using spherical harmonics

 Library entry C      S STO-3G               selected for orbital group  1
 Library entry C      P STO-3G               selected for orbital group  1
 Library entry O      S STO-3G               selected for orbital group  2
 Library entry O      P STO-3G               selected for orbital group  2
 Library entry H      S STO-3G               selected for orbital group  4


 PROGRAM * SEWARD (Integral evaluation for generally contracted gaussian basis sets)     Author: Roland Lindh, 1990

 Geometry written to block  1 of record 700


 Point group  C1  



 ATOMIC COORDINATES

 NR  ATOM    CHARGE       X              Y              Z

   1  C       6.00    0.000000000    0.000000000    0.000000000
   2  C       6.00    0.000000000    0.000000000    2.897082430
   3  O       8.00    2.652117232    0.000000000    3.520692051
   4  C       6.00    3.331851719    0.000000000    6.101679992
   5  H       1.00   -1.932981956    0.000000000   -0.740319107
   6  H       1.00    0.982563098   -1.674769778   -0.714599934
   7  H       1.00    0.982563098    1.674769778   -0.714599934
   8  H       1.00    5.398512901    0.000000000    6.149414474
   9  H       1.00    2.658995835   -1.685956957    7.114346427
  10  H       1.00    2.658995835    1.685956957    7.114346427
  11  C       6.00   -1.308673136   -2.394169616    3.897031009
  12  C       6.00   -1.308673136    2.394169616    3.897031009
  13  H       1.00   -0.290375316   -4.083471388    3.268886045
  14  H       1.00   -0.290375316    4.083471388    3.268886045
  15  H       1.00   -3.250536804   -2.504170574    3.187004212
  16  H       1.00   -3.250536804    2.504170574    3.187004212
  17  H       1.00   -1.405294833   -2.422402125    5.964693745
  18  H       1.00   -1.405294833    2.422402125    5.964693745

 Bond lengths in Bohr (Angstrom)

 1-2  2.897082430  1-5  2.069901355  1-6  2.069042560  1-7  2.069042560  2-3  2.724447609
     ( 1.533070000)     ( 1.095344626)     ( 1.094890171)     ( 1.094890171)     ( 1.441715587)

  2-11  2.905954351   2-12  2.905954351   3- 4  2.668995640   4- 8  2.067212379   4- 9  2.078624355
       ( 1.537764818)       ( 1.537764818)       ( 1.412371669)       ( 1.093921681)       ( 1.099960639)

  4-10  2.078624355  11-13  2.070081404  11-15  2.070524757  11-17  2.070111596  12-14  2.070081404
       ( 1.099960639)       ( 1.095439904)       ( 1.095674516)       ( 1.095455880)       ( 1.095439904)

 12-16  2.070524757  12-18  2.070111596
       ( 1.095674516)       ( 1.095455880)

 Bond angles

  1- 2- 3  103.23196371   1- 2-11  110.12706952   1- 2-12  110.12706952   2- 1- 5  110.95650426

  2- 1- 6  110.20481748   2- 1- 7  110.20481748   2- 3- 4  117.98647004   2-11-13  110.26679927

  2-11-15  110.37287188   2-11-17  112.08316935   2-12-14  110.26679927   2-12-16  110.37287188

  2-12-18  112.08316935   3- 2-11  111.07703285   3- 2-12  111.07703285   3- 4- 8  106.07765410

  3- 4- 9  112.87219182   3- 4-10  112.87219182   5- 1- 6  108.65976572   5- 1- 7  108.65976572

  6- 1- 7  108.08288210   8- 4- 9  108.20190897   8- 4-10  108.20190897   9- 4-10  108.40564999

 11- 2-12  110.95103964  13-11-15  108.29648994  13-11-17  108.35544687  14-12-16  108.29648994

 14-12-18  108.35544687  15-11-17  107.33851825  16-12-18  107.33851825

 NUCLEAR CHARGE:                   50
 NUMBER OF PRIMITIVE AOS:         126
 NUMBER OF SYMMETRY AOS:          126
 NUMBER OF CONTRACTIONS:           42   (  42A   )
 NUMBER OF CORE ORBITALS:           6   (   6A   )
 NUMBER OF VALENCE ORBITALS:       36   (  36A   )


 NUCLEAR REPULSION ENERGY  270.15500869


 Eigenvalues of metric

         1 0.207E+00 0.226E+00 0.228E+00 0.234E+00 0.307E+00 0.355E+00 0.359E+00 0.362E+00


 Contracted 2-electron integrals neglected if value below      1.0D-11
 AO integral compression algorithm  1   Integral accuracy      1.0D-11

     2.884 MB (compressed) written to integral file ( 84.3%)


 NUMBER OF SORTED TWO-ELECTRON INTEGRALS:     408156.     BUFFER LENGTH:  32768
 NUMBER OF SEGMENTS:   1  SEGMENT LENGTH:     408156      RECORD LENGTH: 524288

 Memory used in sort:       0.97 MW

 SORT1 READ      453477. AND WROTE      382834. INTEGRALS IN      2 RECORDS. CPU TIME:     0.01 SEC, REAL TIME:     0.02 SEC
 SORT2 READ      382834. AND WROTE      408156. INTEGRALS IN     11 RECORDS. CPU TIME:     0.03 SEC, REAL TIME:     0.04 SEC

 FILE SIZES:   FILE 1:    33.2 MBYTE,  FILE 4:     8.4 MBYTE,   TOTAL:     41.6 MBYTE

 OPERATOR DM      FOR CENTER  0  COORDINATES:    0.000000    0.000000    0.000000


 **********************************************************************************************************************************
 DATASETS  * FILE   NREC   LENGTH (MB)   RECORD NAMES
              1      19       31.98       500      610      700      900      950      970     1000      129      960     1100   
                                          VAR    BASINP    GEOM    SYMINP    ZMAT    AOBASIS   BASIS     P2S    ABASIS      S 
                                         1400     1410     1200     1210     1080     1600     1650     1300     1700   
                                           T        V       H0       H01     AOSYM     SMH    MOLCAS    ERIS     OPER   

 PROGRAMS   *        TOTAL       INT
 CPU TIMES  *         0.84      0.70
 REAL TIME  *         1.30 SEC
 DISK USED  *        42.19 MB      
 **********************************************************************************************************************************

 Density functional group PBEREV=PBEXREV+PBEC
 Functional: PBEXREV(Automatically generated (new) PBEXREV)                    Gradient terms: 1
 Functional: PBEC(Automatically generated (new) PBEC)                          Gradient terms: 1
 Use grid at  1800.2

 Functional: PBEXREV                   Factor:  1.0000
 Functional: PBEC                      Factor:  1.0000

 Generated new metagrid on record  1800.2 with target accuracy 1.0D-06 and 66012 points in CPU time    1.9
 Computed new grid on record 1800.1 in CPU time    2.2
   38106 words reserved for DFT integration

 PROGRAM * UKS-SCF (Unrestricted Kohn-Sham)     Authors: W. Meyer, H.-J. Werner, P.J. Knowles, 1993

 NUMBER OF ELECTRONS:      25+   25-    SPACE SYMMETRY=1    SPIN SYMMETRY: Singlet 
 CONVERGENCE THRESHOLDS:    1.00E-05 (Density)    1.00E-06 (Energy)
 MAX. NUMBER OF ITERATIONS:       60
 INTERPOLATION TYPE:            DIIS
 INTERPOLATION STEPS:              2 (START)      1 (STEP)
 LEVEL SHIFTS:                 -0.20 (ALPHA)  -0.20 (BETA) 



 Use fine grid record 1800.2 for energy threshold  1.0D-06
 Orbital guess generated from atomic densities. Full valence occupancy:   25

 Molecular orbital dump at record        2200.2

 Initial alpha occupation  25
 Initial beta  occupation  25

 ITERATION    DDIFF          GRAD             ENERGY        2-EL.EN.            DIPOLE MOMENTS         DIIS
    1      0.000D+00      0.000D+00      -269.07697647    824.305203   -0.88736    0.00000    0.82082    0
    2      0.577D-01      0.186D-01      -269.48934324    799.635706   -0.20349    0.00000    0.01811    1
    3      0.101D-01      0.411D-02      -269.50800493    803.470456   -0.31170    0.00000    0.19246    2
    4      0.975D-03      0.370D-03      -269.50823019    803.444085   -0.32230    0.00000    0.19844    3
    5      0.419D-03      0.125D-03      -269.50826532    803.434219   -0.32108    0.00000    0.20085    4
    6      0.165D-03      0.320D-04      -269.50826846    803.433122   -0.31918    0.00000    0.20099    5
    7      0.345D-04      0.102D-04      -269.50826856    803.433894   -0.32001    0.00000    0.20156    5
    8      0.159D-04      0.629D-05      -269.50826860    803.433068   -0.31954    0.00000    0.20133    6
    9      0.203D-05      0.453D-06      -269.50826860    803.433180   -0.31955    0.00000    0.20134    6
   10      0.652D-06      0.214D-06      -269.50826860    803.433132   -0.31955    0.00000    0.20133    6

 Final alpha occupancy:  25
 Final beta  occupancy:  25

 !UKS STATE 1.1 Energy               -269.508268604405
 Nuclear energy                       270.15500869
 One-electron energy                 -901.17469960
 Two-electron energy                  401.71656592
 Density functional                   -40.20514362     PBEXREV=-38.53051282 PBEC= -1.67463080
 Virial quotient                       -1.01630052
 !UKS STATE 1.1 Dipole moment          -0.31954759     0.00000000     0.20133456
 Dipole moment /Debye                  -0.81215577     0.00000000     0.51170789

 Orbital energies for positive spin:

         1.1          2.1          3.1          4.1          5.1          6.1          7.1          8.1          9.1         10.1
    -18.500388    -9.782851    -9.759342    -9.718920    -9.717366    -9.717288    -0.869812    -0.680200    -0.589276    -0.586531

        11.1         12.1         13.1         14.1         15.1         16.1         17.1         18.1         19.1         20.1
     -0.563170    -0.444779    -0.386143    -0.363762    -0.359422    -0.341060    -0.322701    -0.307910    -0.298296    -0.284025

        21.1         22.1         23.1         24.1         25.1         26.1         27.1
     -0.283164    -0.252849    -0.248602    -0.135429    -0.066117     0.234413     0.316165

 Orbital energies for negative spin:

         1.1          2.1          3.1          4.1          5.1          6.1          7.1          8.1          9.1         10.1
    -18.500388    -9.782851    -9.759342    -9.718920    -9.717366    -9.717288    -0.869812    -0.680200    -0.589276    -0.586531

        11.1         12.1         13.1         14.1         15.1         16.1         17.1         18.1         19.1         20.1
     -0.563170    -0.444779    -0.386143    -0.363762    -0.359422    -0.341060    -0.322701    -0.307910    -0.298296    -0.284025

        21.1         22.1         23.1         24.1         25.1         26.1         27.1
     -0.283164    -0.252849    -0.248602    -0.135429    -0.066117     0.234413     0.316165

 HOMO     25.1    -0.066117 =      -1.7991eV
 LUMO     26.1     0.234413 =       6.3787eV
 LUMO-HOMO         0.300530 =       8.1778eV

 EXPECTATION VALUE OF S**2:            -0.00000000

 Natural orbitals saved to record    2200.2 (Orbital set 3)

 Orbital spaces for UNO-CAS (Min. occupation: 0.020  Max. occupation: 1.980):

 Closed:       25
 Active:        0


 **********************************************************************************************************************************
 DATASETS  * FILE   NREC   LENGTH (MB)   RECORD NAMES
              1      20       34.09       500      610      700      900      950      970     1000      129      960     1100   
                                          VAR    BASINP    GEOM    SYMINP    ZMAT    AOBASIS   BASIS     P2S    ABASIS      S 
                                         1400     1410     1200     1210     1080     1600     1650     1300     1700     1800   
                                           T        V       H0       H01     AOSYM     SMH    MOLCAS    ERIS     OPER     GRID   

              2       5        3.13       700     1000      520     1800     2200   
                                         GEOM     BASIS   MCVARS    GRID      UKS  

 PROGRAMS   *        TOTAL       UKS       INT
 CPU TIMES  *         9.52      8.67      0.70
 REAL TIME  *        10.69 SEC
 DISK USED  *        42.19 MB      
 **********************************************************************************************************************************


 PROGRAM * Intrinsic Basis Bonding Analysis (IBBA)          Author: G. Knizia

 Molecular orbitals read from record     2200.2  Type=UKS/ALPHA (state 1.1)
 Fock matrix read from record            2200.2  Type=UKS/TOTAL (state 1.1)
 Orbital energies read from record       2200.2  Type=UKS/ALPHA (state 1.1)
 Density matrix read from record         2200.2  Type=UKS/CHARGE (state 1.1)

 Number of core orbitals:           6 (   6 )
 Number of closed-shell orbitals:  19 (  19 )

 Basis set MINAO-AUTO-PP generated.      Number of basis functions:   42 

 Polarized AO type:                A = (O Ot + (1-O)(1-Ot)) P12
 Orthogonalization method:         Symmetric (Loewdin)
 Localization functional:          L = sum[A,i] <i|n_A|i>^4 -> max

 Localization group 1:  25 orbitals, occupancy  2.000
 Iterative localization: IB/PM,    7 iter; Final gradient 0.59E-08

 Bond order analysis:       [THRPRINT= 0.020]

   CEN ATOM   CEN ATOM     WIBERG.BO      RENORM.BO
     1   C  -   2   C       0.990403       0.987544
     1   C  -   5   H       0.965946       0.989377
     1   C  -   6   H       0.963109       0.986444
     1   C  -   7   H       0.963109       0.986444

     2   C  -   1   C       0.990403       0.987544
     2   C  -  12   C       0.985617       0.959496
     2   C  -  11   C       0.985617       0.959496
     2   C  -   3   O       0.979746       0.958670

     3   O  -   4   C       1.026859       1.016406
     3   O  -   2   C       0.979746       0.958670
     3   O  -   9   H       0.033298       0.019753
     3   O  -  10   H       0.033298       0.019753
     3   O  -  12   C       0.028069       0.014883
     3   O  -  11   C       0.028069       0.014883

     4   C  -   3   O       1.026859       1.016406
     4   C  -   8   H       0.953681       0.972766
     4   C  -   9   H       0.950333       0.939184
     4   C  -  10   H       0.950333       0.939184

     5   H  -   1   C       0.965946       0.989377

     6   H  -   1   C       0.963109       0.986444

     7   H  -   1   C       0.963109       0.986444

     8   H  -   4   C       0.953681       0.972766

     9   H  -   4   C       0.950333       0.939184
     9   H  -   3   O       0.033298       0.019753

    10   H  -   4   C       0.950333       0.939184
    10   H  -   3   O       0.033298       0.019753

    11   C  -   2   C       0.985617       0.959496
    11   C  -  17   H       0.964950       0.985171
    11   C  -  13   H       0.963753       0.986238
    11   C  -  15   H       0.963579       0.988714
    11   C  -   3   O       0.028069       0.014883

    12   C  -   2   C       0.985617       0.959496
    12   C  -  18   H       0.964950       0.985171
    12   C  -  14   H       0.963753       0.986238
    12   C  -  16   H       0.963579       0.988714
    12   C  -   3   O       0.028069       0.014883

    13   H  -  11   C       0.963753       0.986238

    14   H  -  12   C       0.963753       0.986238

    15   H  -  11   C       0.963579       0.988714

    16   H  -  12   C       0.963579       0.988714

    17   H  -  11   C       0.964950       0.985171

    18   H  -  12   C       0.964950       0.985171


 Valency analysis:

   CEN ATOM   TOT.VALENCE
     1   C       3.935220
     2   C       3.971689
     3   O       2.189071
     4   C       3.904855
     5   H       0.982986
     6   H       0.981425
     7   H       0.981425
     8   H       0.980622
     9   H       0.988079
    10   H       0.988079
    11   C       3.936716
    12   C       3.936716
    13   H       0.982161
    14   H       0.982161
    15   H       0.982190
    16   H       0.982190
    17   H       0.983845
    18   H       0.983845

 Total charge composition:

   CEN ATOM         s          p       ELECTRONS ->P.CHARGE
     1   C       3.00290    3.38677      6.38967   -0.38967
     2   C       2.95199    2.92958      5.88158    0.11842
     3   O       3.66417    4.54414      8.20832   -0.20832
     4   C       3.00869    3.25503      6.26371   -0.26371
     5   H       0.86956                 0.86956    0.13044
     6   H       0.86371                 0.86371    0.13629
     7   H       0.86371                 0.86371    0.13629
     8   H       0.86080                 0.86080    0.13920
     9   H       0.89082                 0.89082    0.10918
    10   H       0.89082                 0.89082    0.10918
    11   C       3.00357    3.39920      6.40277   -0.40277
    12   C       3.00357    3.39920      6.40277   -0.40277
    13   H       0.86644                 0.86644    0.13356
    14   H       0.86644                 0.86644    0.13356
    15   H       0.86655                 0.86655    0.13345
    16   H       0.86655                 0.86655    0.13345
    17   H       0.87290                 0.87290    0.12710
    18   H       0.87290                 0.87290    0.12710

 Total charge composition, AO contributions:

   CEN ATOM SHL      SPHERICAL COMPONENTS
     1   C  1s       1.99196
     1   C  2s       1.01094
     1   C  2p       1.16567    1.17374    1.04736

     2   C  1s       1.99339
     2   C  2s       0.95860
     2   C  2p       0.86871    1.03168    1.02919

     3   O  1s       1.99747
     3   O  2s       1.66670
     3   O  2p       1.31082    1.90348    1.32984

     4   C  1s       1.99250
     4   C  2s       1.01619
     4   C  2p       1.16397    1.17517    0.91589

     5   H  1s       0.86956

     6   H  1s       0.86371

     7   H  1s       0.86371

     8   H  1s       0.86080

     9   H  1s       0.89082

    10   H  1s       0.89082

    11   C  1s       1.99202
    11   C  2s       1.01155
    11   C  2p       1.14812    1.09765    1.15343

    12   C  1s       1.99202
    12   C  2s       1.01155
    12   C  2p       1.14812    1.09765    1.15343

    13   H  1s       0.86644

    14   H  1s       0.86644

    15   H  1s       0.86655

    16   H  1s       0.86655

    17   H  1s       0.87290

    18   H  1s       0.87290

 Summary of localized orbital composition:   [THRPRINT= 0.020]

   ORB  GRP  ORB.ENERGY      CENTERS/CHARGES
     1   1   -18.342617      O  3   2.000
     2   1    -9.692239      C  2   2.000
     3   1    -9.654157      C  4   2.000
     4   1    -9.609100      C  1   2.000
     5   1    -9.608181      C 12   2.000
     6   1    -9.608181      C 11   2.000
     7   1    -0.593411      O  3   1.160   C  4   0.831
     8   1    -0.559416      O  3   1.168   C  2   0.806   (other: 0.026)
     9   1    -0.468284      C  2   0.994   C  1   0.982   (other: 0.024)
    10   1    -0.467422      C 11   0.995   C  2   0.991
    11   1    -0.467422      C 12   0.995   C  2   0.991
    12   1    -0.428373      C  4   1.139   H  8   0.851
    13   1    -0.426740      C  4   1.128   H 10   0.871
    14   1    -0.426740      C  4   1.128   H  9   0.871
    15   1    -0.426544      O  3   1.967   (other: 0.033)
    16   1    -0.414055      C  1   1.126   H  5   0.863
    17   1    -0.413520      C 12   1.125   H 18   0.866
    18   1    -0.413520      C 11   1.125   H 17   0.866
    19   1    -0.413400      C 11   1.129   H 15   0.859
    20   1    -0.413400      C 12   1.129   H 16   0.859
    21   1    -0.410017      C 12   1.131   H 14   0.859
    22   1    -0.410017      C 11   1.131   H 13   0.859
    23   1    -0.407589      C  1   1.134   H  7   0.857
    24   1    -0.407589      C  1   1.134   H  6   0.857
    25   1    -0.097472      O  3   1.903   C  2   0.022   (other: 0.074)

 Localized orbitals saved to record      2200.2  (orbital set 4)


 **********************************************************************************************************************************
 DATASETS  * FILE   NREC   LENGTH (MB)   RECORD NAMES
              1      20       34.09       500      610      700      900      950      970     1000      129      960     1100   
                                          VAR    BASINP    GEOM    SYMINP    ZMAT    AOBASIS   BASIS     P2S    ABASIS      S 
                                         1400     1410     1200     1210     1080     1600     1650     1300     1700     1800   
                                           T        V       H0       H01     AOSYM     SMH    MOLCAS    ERIS     OPER     GRID   

              2       5        3.15       700     1000      520     1800     2200   
                                         GEOM     BASIS   MCVARS    GRID      UKS  

 PROGRAMS   *        TOTAL      IBBA       UKS       INT
 CPU TIMES  *         9.57      0.04      8.67      0.70
 REAL TIME  *        10.97 SEC
 DISK USED  *        42.19 MB      
 **********************************************************************************************************************************
 Molecular orbitals read from record     2200.2  Type=UKS/LOCAL(IBO)  
 Occupation numbers read from record     2200.2  Type=UKS/LOCAL(IBO)  
 Orbital energies read from record       2200.2  Type=UKS/LOCAL(IBO)  
 Redundancy group numbers read from rec  2200.2  Type=UKS/BETA (state 1.1)

 IBBA/STO-3G energy=      0.000000000000

        UKS-SCF 
   -269.50826860
 **********************************************************************************************************************************
 Molpro calculation terminated
