
 Primary working directories    : /tmp/sb13343
 Secondary working directories  : /tmp/sb13343
 Wavefunction directory         : /panfs/panasas01/chem/sb13343/wfu/
 Main file repository           : /tmp/sb13343/

 SHA1      : b4a5b34a9e711420743f49e6833241d17c61fb3c
 NAME      : 2099.9.b4a5b34
 ARCHNAME  : linux/x86_64_openmp
 FC        : /cm/shared/languages/GCC-6.1/bin/gfortran
 BLASLIB   : -lblas
 id        : simonbennie

 Nodes     nprocs
 node32-030    1

 Using customized tuning parameters: mindgm=1; mindgv=20; mindgc=4; mindgr=1; noblas=0; minvec=7
 default implementation of scratch files=df  

 memory,500,m
 geomtyp=xyz
 nosym
 noorient
 geometry={
 H         -1.13405        1.76167        0.00000
 C         -1.32915        0.67205        0.00000
 C         -0.06360       -0.12883        0.00000
 C          0.67426       -0.31636        1.28970
 C          0.67426       -0.31636       -1.28970
 H         -1.94006        0.46750        0.88859
 H         -1.94006        0.46750       -0.88859
 H          1.28359        0.56876        1.55544
 H         -0.01165       -0.48291        2.13019
 H          1.36783       -1.16569        1.24157
 H          1.28359        0.56876       -1.55544
 H         -0.01165       -0.48291       -2.13019
 H          1.36783       -1.16569       -1.24157
 }
 basis={ default,sto-3g }
 {ks,VS99,direct;wf,33,1,1}
 {ibba,bonds=1}

 Variables initialized (895), CPU time= 0.00 sec
 Commands  initialized (725), CPU time= 0.01 sec, 591 directives.
 Default parameters read. Elapsed time= 0.07 sec

 Checking input...
 Passed
1


                                         ***  PROGRAM SYSTEM MOLPRO  ***
                                       Copyright, TTI GmbH Stuttgart, 2015
                                    Version 2099.9 linked May 26 2017 16:03:21


 **********************************************************************************************************************************
 LABEL *                                                                                 
  64 bit serial version                                                                  DATE: 08-Jun-17          TIME: 20:27:37  
 **********************************************************************************************************************************

 SHA1:             b4a5b34a9e711420743f49e6833241d17c61fb3c
 **********************************************************************************************************************************
 SETTING GEOMTYP        =    XYZ

 Variable memory set to  500000000 words,  buffer space 

 ZSYMEL=NOSYM

 SETTING BASIS          =    STO-3G


 Recomputing integrals since basis changed


 Using spherical harmonics

 Library entry H      S STO-3G               selected for orbital group  1
 Library entry C      S STO-3G               selected for orbital group  2
 Library entry C      P STO-3G               selected for orbital group  2


 PROGRAM * SEWARD (Integral evaluation for generally contracted gaussian basis sets)     Author: Roland Lindh, 1990

 Geometry written to block  1 of record 700


 Point group  C1  



 ATOMIC COORDINATES

 NR  ATOM    CHARGE       X              Y              Z

   1  H       1.00   -2.143043912    3.329073822    0.000000000
   2  C       6.00   -2.511729478    1.269990442    0.000000000
   3  C       6.00   -0.120186582   -0.243453417    0.000000000
   4  C       6.00    1.274166737   -0.597833757    2.437179783
   5  C       6.00    1.274166737   -0.597833757   -2.437179783
   6  H       1.00   -3.666182065    0.883446963    1.679191737
   7  H       1.00   -3.666182065    0.883446963   -1.679191737
   8  H       1.00    2.425633556    1.074800631    2.939355603
   9  H       1.00   -0.022015309   -0.912567643    4.025475693
  10  H       1.00    2.584824085   -2.202834846    2.346227264
  11  H       1.00    2.425633556    1.074800631   -2.939355603
  12  H       1.00   -0.022015309   -0.912567643   -4.025475693
  13  H       1.00    2.584824085   -2.202834846   -2.346227264

 Bond lengths in Bohr (Angstrom)

 1-2  2.091830159  2-3  2.830192527  2-6  2.074092940  2-7  2.074092940  3-4  2.830132841
     ( 1.106948849)     ( 1.497673388)     ( 1.097562717)     ( 1.097562717)     ( 1.497641803)

  3- 5  2.830132841   4- 8  2.091832255   4- 9  2.074085151   4-10  2.074156104   5-11  2.091832255
       ( 1.497641803)       ( 1.106949959)       ( 1.097558596)       ( 1.097596142)       ( 1.106949959)

  5-12  2.074085151   5-13  2.074156104
       ( 1.097558596)       ( 1.097596142)

 Bond angles

  1-2-3  112.17549786   1-2-6  106.35284965   1-2-7  106.35284965   2-3-4  118.89987932

  2-3-5  118.89987932   3-2-6  111.75744418   3-2-7  111.75744418   3-4-8  112.19808176

  3- 4- 9  111.75014522   3- 4-10  111.74379558   3- 5-11  112.19808176   3- 5-12  111.75014522

  3- 5-13  111.74379558   4- 3- 5  118.89276928   6- 2- 7  108.11431090   8- 4- 9  106.34995457

  8- 4-10  106.34572146   9- 4-10  108.12296896  11- 5-12  106.34995457  11- 5-13  106.34572146

 12- 5-13  108.12296896

 NUCLEAR CHARGE:                   33
 NUMBER OF PRIMITIVE AOS:          87
 NUMBER OF SYMMETRY AOS:           87
 NUMBER OF CONTRACTIONS:           29   (  29A   )
 NUMBER OF CORE ORBITALS:           4   (   4A   )
 NUMBER OF VALENCE ORBITALS:       25   (  25A   )


 NUCLEAR REPULSION ENERGY  124.92676597


 Eigenvalues of metric

         1 0.210E+00 0.225E+00 0.225E+00 0.315E+00 0.353E+00 0.353E+00 0.362E+00 0.372E+00


 Contracted 2-electron integrals neglected if value below      1.0D-11
 AO integral compression algorithm  1   Integral accuracy      1.0D-11

     0.786 MB (compressed) written to integral file (100.0%)


 NUMBER OF SORTED TWO-ELECTRON INTEGRALS:      94830.     BUFFER LENGTH:  32768
 NUMBER OF SEGMENTS:   1  SEGMENT LENGTH:      94830      RECORD LENGTH: 524288

 Memory used in sort:       0.65 MW

 SORT1 READ      108770. AND WROTE       91348. INTEGRALS IN      1 RECORDS. CPU TIME:     0.00 SEC, REAL TIME:     0.01 SEC
 SORT2 READ       91348. AND WROTE       94830. INTEGRALS IN      3 RECORDS. CPU TIME:     0.01 SEC, REAL TIME:     0.01 SEC

 FILE SIZES:   FILE 1:    31.0 MBYTE,  FILE 4:     4.2 MBYTE,   TOTAL:     35.2 MBYTE

 OPERATOR DM      FOR CENTER  0  COORDINATES:    0.000000    0.000000    0.000000


 **********************************************************************************************************************************
 DATASETS  * FILE   NREC   LENGTH (MB)   RECORD NAMES
              1      19       30.62       500      610      700      900      950      970     1000      129      960     1100   
                                          VAR    BASINP    GEOM    SYMINP    ZMAT    AOBASIS   BASIS     P2S    ABASIS      S 
                                         1400     1410     1200     1210     1080     1600     1650     1300     1700   
                                           T        V       H0       H01     AOSYM     SMH    MOLCAS    ERIS     OPER   

 PROGRAMS   *        TOTAL       INT
 CPU TIMES  *         0.61      0.47
 REAL TIME  *         0.99 SEC
 DISK USED  *        35.68 MB      
 **********************************************************************************************************************************

 Density functional group VS99=VSXC
 Functional: VSXC(Automatically generated (new) VSXC)                          Gradient terms: 2
 Use grid at  1800.2

 Functional: VSXC                      Factor:  1.0000

 Generated new metagrid on record  1800.2 with target accuracy 1.0D-06 and 45406 points in CPU time    1.3
 Computed new grid on record 1800.1 in CPU time    1.4
   49557 words reserved for DFT integration

 PROGRAM * RKS-SCF (Restricted open shell Kohn-Sham)     Authors: W. Meyer, H.-J. Werner, P.J. Knowles, 1993

 NUMBER OF ELECTRONS:      17+   16-    SPACE SYMMETRY=1    SPIN SYMMETRY: Doublet 
 CONVERGENCE THRESHOLDS:    1.00E-05 (Density)    1.00E-06 (Energy)
 MAX. NUMBER OF ITERATIONS:       60
 INTERPOLATION TYPE:            DIIS
 INTERPOLATION STEPS:              2 (START)      1 (STEP)
 LEVEL SHIFTS:                 -0.60 (CLOSED) -0.30 (OPEN) 



 Use fine grid record 1800.2 for energy threshold  1.0D-06
 Orbital guess generated from atomic densities. Full valence occupancy:   17

 Molecular orbital dump at record        2100.2

 Initial alpha occupancy:  17
 Initial beta  occupancy:  16
 Wave function symmetry:    1

 ITERATION    DDIFF          GRAD             ENERGY        2-EL.EN.            DIPOLE MOMENTS         DIIS   ORB.
    1      0.000D+00      0.000D+00      -155.03283337    411.963760    0.20169    0.40592   -0.00000    0    start
    2      0.000D+00      0.268D-01      -155.26716856    399.837424   -0.00100   -0.00251   -0.00000    1    diag,B
    3      0.548D-01      0.348D-02      -155.27131814    400.964439    0.03840    0.07716   -0.00000    2    diag,B
    4      0.642D-02      0.498D-03      -155.27159765    400.953968    0.03901    0.07853   -0.00000    3    diag,B
    5      0.124D-02      0.161D-03      -155.27163563    400.948064    0.03896    0.07849   -0.00000    4    diag,B
    6      0.529D-03      0.325D-04      -155.27163736    400.947750    0.03862    0.07783   -0.00000    5    diag,B
    7      0.105D-03      0.889D-05      -155.27163744    400.948154    0.03856    0.07772   -0.00000    6    fixocc
    8      0.256D-04      0.115D-05      -155.27163744    400.948151    0.03858    0.07776   -0.00000    7    diag,B
    9      0.322D-05      0.136D-06      -155.27163744    400.948164    0.03858    0.07776   -0.00000    0    orth

 Final alpha occupancy:  17
 Final beta  occupancy:  16

 !RKS STATE 1.1 Energy               -155.271637441735
 Nuclear energy                       124.92676597
 One-electron energy                 -456.21831295
 Two-electron energy                  200.47408224
 Density functional                   -24.45417270     VSXC=-24.45417270
 Virial quotient                       -1.01177361
 !RKS STATE 1.1 Dipole moment           0.03858018     0.07775661    -0.00000000
 Dipole moment /Debye                   0.09805460     0.19762464    -0.00000000

 Orbital energies:

         1.1          2.1          3.1          4.1          5.1          6.1          7.1          8.1          9.1         10.1
     -9.758651    -9.758643    -9.758516    -9.737628    -0.697766    -0.601320    -0.601292    -0.437232    -0.347299    -0.347281

        11.1         12.1         13.1         14.1         15.1         16.1         17.1         18.1         19.1
     -0.343485    -0.296088    -0.296088    -0.279647    -0.244759    -0.244714    -0.048174     0.380484     0.380545

 HOMO     17.1    -0.048174 =      -1.3109eV
 LUMO     18.1     0.380484 =      10.3535eV
 LUMO-HOMO         0.428658 =      11.6644eV


 **********************************************************************************************************************************
 DATASETS  * FILE   NREC   LENGTH (MB)   RECORD NAMES
              1      20       32.07       500      610      700      900      950      970     1000      129      960     1100   
                                          VAR    BASINP    GEOM    SYMINP    ZMAT    AOBASIS   BASIS     P2S    ABASIS      S 
                                         1400     1410     1200     1210     1080     1600     1650     1300     1700     1800   
                                           T        V       H0       H01     AOSYM     SMH    MOLCAS    ERIS     OPER     GRID   

              2       5        2.99       700     1000      520     1800     2100   
                                         GEOM     BASIS   MCVARS    GRID      RKS  

 PROGRAMS   *        TOTAL        KS       INT
 CPU TIMES  *         9.69      9.07      0.47
 REAL TIME  *        10.42 SEC
 DISK USED  *        35.68 MB      
 **********************************************************************************************************************************


 PROGRAM * Intrinsic Basis Bonding Analysis (IBBA)          Author: G. Knizia

 Molecular orbitals read from record     2100.2  Type=RKS/CANONICAL (state 1.1)
 Fock matrix read from record            2100.2  Type=RKS/TOTAL (state 1.1)
 Orbital energies read from record       2100.2  Type=RKS/CANONICAL (state 1.1)
 Density matrix read from record         2100.2  Type=RKS/CHARGE (state 1.1)

 Number of core orbitals:           4 (   4 )
 Number of closed-shell orbitals:  12 (  12 )
 Number of active  orbitals:        1 (   1 )

 Basis set MINAO-AUTO-PP generated.      Number of basis functions:   29 

 Polarized AO type:                A = (O Ot + (1-O)(1-Ot)) P12
 Orthogonalization method:         Symmetric (Loewdin)
 Localization functional:          L = sum[A,i] <i|n_A|i>^4 -> max

 Localization group 1:  16 orbitals, occupancy  2.000
 Iterative localization: IB/PM,    7 iter; Final gradient 0.25E-08

 Bond order analysis:       [THRPRINT= 0.020]

   CEN ATOM   CEN ATOM     WIBERG.BO      RENORM.BO
     1   H  -   2   C       0.928849       0.998268
     1   H  -   3   C       0.032744       0.201103

     2   C  -   3   C       1.068724       1.320030
     2   C  -   7   H       0.959301       0.988917
     2   C  -   6   H       0.959301       0.988917
     2   C  -   1   H       0.928849       0.998268

     3   C  -   5   C       1.068772       1.320076
     3   C  -   4   C       1.068772       1.320076
     3   C  -   2   C       1.068724       1.320030
     3   C  -  11   H       0.032751       0.201185
     3   C  -   8   H       0.032751       0.201185
     3   C  -   1   H       0.032744       0.201103

     4   C  -   3   C       1.068772       1.320076
     4   C  -   9   H       0.959339       0.988908
     4   C  -  10   H       0.959264       0.988916
     4   C  -   8   H       0.928825       0.998265

     5   C  -   3   C       1.068772       1.320076
     5   C  -  12   H       0.959339       0.988908
     5   C  -  13   H       0.959264       0.988916
     5   C  -  11   H       0.928825       0.998265

     6   H  -   2   C       0.959301       0.988917

     7   H  -   2   C       0.959301       0.988917

     8   H  -   4   C       0.928825       0.998265
     8   H  -   3   C       0.032751       0.201185

     9   H  -   4   C       0.959339       0.988908

    10   H  -   4   C       0.959264       0.988916

    11   H  -   5   C       0.928825       0.998265
    11   H  -   3   C       0.032751       0.201185

    12   H  -   5   C       0.959339       0.988908

    13   H  -   5   C       0.959264       0.988916


 Valency analysis:

   CEN ATOM   TOT.VALENCE
     1   H       0.973057
     2   C       3.945315
     3   C       3.345164
     4   C       3.945326
     5   C       3.945326
     6   H       0.982066
     7   H       0.982066
     8   H       0.973048
     9   H       0.982078
    10   H       0.982063
    11   H       0.973048
    12   H       0.982078
    13   H       0.982063
 Localization group 2:   1 orbitals, occupancy  1.000
 Iterative localization: IB/PM,    1 iter; Final gradient 0.00E+00

 Bond order analysis:       [THRPRINT= 0.020]

   CEN ATOM   CEN ATOM     WIBERG.BO      RENORM.BO
     1   H  -   3   C       0.066816       0.500000


     3   C  -  11   H       0.066871       0.500000
     3   C  -   8   H       0.066871       0.500000
     3   C  -   1   H       0.066816       0.500000





     8   H  -   3   C       0.066871       0.500000



    11   H  -   3   C       0.066871       0.500000




 Valency analysis:

   CEN ATOM   TOT.VALENCE
     1   H       0.077990
     2   C       0.005044
     3   C       0.292751
     4   C       0.005074
     5   C       0.005074
     6   H       0.016023
     7   H       0.016023
     8   H       0.078051
     9   H       0.015957
    10   H       0.016099
    11   H       0.078051
    12   H       0.015957
    13   H       0.016099

 Total charge composition:

   CEN ATOM         s          p       ELECTRONS ->P.CHARGE
     1   H       0.87650                 0.87650    0.12350
     2   C       3.00727    3.37924      6.38652   -0.38652
     3   C       2.98269    2.98364      5.96633    0.03367
     4   C       3.00721    3.37909      6.38630   -0.38630
     5   C       3.00721    3.37909      6.38630   -0.38630
     6   H       0.87416                 0.87416    0.12584
     7   H       0.87416                 0.87416    0.12584
     8   H       0.87651                 0.87651    0.12349
     9   H       0.87417                 0.87417    0.12583
    10   H       0.87419                 0.87419    0.12581
    11   H       0.87651                 0.87651    0.12349
    12   H       0.87417                 0.87417    0.12583
    13   H       0.87419                 0.87419    0.12581

 Total charge composition, AO contributions:

   CEN ATOM SHL      SPHERICAL COMPONENTS
     1   H  1s       0.87650

     2   C  1s       1.99160
     2   C  2s       1.01567
     2   C  2p       1.09707    1.12632    1.15586

     3   C  1s       1.99320
     3   C  2s       0.98949
     3   C  2p       0.99277    1.00004    0.99082

     4   C  1s       1.99160
     4   C  2s       1.01561
     4   C  2p       1.13430    1.14941    1.09537

     5   C  1s       1.99160
     5   C  2s       1.01561
     5   C  2p       1.13430    1.14941    1.09537

     6   H  1s       0.87416

     7   H  1s       0.87416

     8   H  1s       0.87651

     9   H  1s       0.87417

    10   H  1s       0.87419

    11   H  1s       0.87651

    12   H  1s       0.87417

    13   H  1s       0.87419

 Active orbital charges:

   CEN ATOM         s          p       ELECTRONS ->SPIN.DEN
     1   H       0.04065                 0.04065    0.04065
     2   C       0.00014    0.00239      0.00253    0.00253
     3   C       0.01636    0.80555      0.82191    0.82191
     4   C       0.00014    0.00240      0.00254    0.00254
     5   C       0.00014    0.00240      0.00254    0.00254
     6   H       0.00808                 0.00808    0.00808
     7   H       0.00808                 0.00808    0.00808
     8   H       0.04068                 0.04068    0.04068
     9   H       0.00804                 0.00804    0.00804
    10   H       0.00812                 0.00812    0.00812
    11   H       0.04068                 0.04068    0.04068
    12   H       0.00804                 0.00804    0.00804
    13   H       0.00812                 0.00812    0.00812

 Active orbital charges, AO contributions:

   CEN ATOM SHL      SPHERICAL COMPONENTS
     1   H  1s       0.04065

     2   C  1s       0.00000
     2   C  2s       0.00014
     2   C  2p       0.00000    0.00239    0.00000

     3   C  1s       0.00001
     3   C  2s       0.01634
     3   C  2p       0.15771    0.64784    0.00000

     4   C  1s       0.00000
     4   C  2s       0.00014
     4   C  2p       0.00088    0.00110    0.00042

     5   C  1s       0.00000
     5   C  2s       0.00014
     5   C  2p       0.00088    0.00110    0.00042

     6   H  1s       0.00808

     7   H  1s       0.00808

     8   H  1s       0.04068

     9   H  1s       0.00804

    10   H  1s       0.00812

    11   H  1s       0.04068

    12   H  1s       0.00804

    13   H  1s       0.00812

 Summary of localized orbital composition:   [THRPRINT= 0.020]

   ORB  GRP  ORB.ENERGY      CENTERS/CHARGES
     1   1    -9.645942      C  5   2.000
     2   1    -9.645942      C  4   2.000
     3   1    -9.645805      C  2   2.000
     4   1    -9.642261      C  3   2.000
     5   1    -0.488440      C  5   1.013   C  3   0.975
     6   1    -0.488440      C  4   1.013   C  3   0.975
     7   1    -0.488267      C  2   1.013   C  3   0.974
     8   1    -0.413418      C  4   1.118   H  8   0.832   C  3   0.047
     9   1    -0.413418      C  5   1.118   H 11   0.832   C  3   0.047
    10   1    -0.413342      C  2   1.118   H  1   0.832   C  3   0.047
    11   1    -0.410889      C  4   1.123   H  9   0.860
    12   1    -0.410889      C  5   1.123   H 12   0.860
    13   1    -0.410845      C  2   1.123   H  7   0.860
    14   1    -0.410845      C  2   1.123   H  6   0.860
    15   1    -0.410831      C  4   1.123   H 10   0.860
    16   1    -0.410831      C  5   1.123   H 13   0.860
    17   2     0.004869      C  3   0.822   H 11   0.041   H  8   0.041   H  1   0.041   (other: 0.056)

 Localized orbitals saved to record      2100.2  (orbital set 2)


 **********************************************************************************************************************************
 DATASETS  * FILE   NREC   LENGTH (MB)   RECORD NAMES
              1      20       32.07       500      610      700      900      950      970     1000      129      960     1100   
                                          VAR    BASINP    GEOM    SYMINP    ZMAT    AOBASIS   BASIS     P2S    ABASIS      S 
                                         1400     1410     1200     1210     1080     1600     1650     1300     1700     1800   
                                           T        V       H0       H01     AOSYM     SMH    MOLCAS    ERIS     OPER     GRID   

              2       5        3.00       700     1000      520     1800     2100   
                                         GEOM     BASIS   MCVARS    GRID      RKS  

 PROGRAMS   *        TOTAL      IBBA        KS       INT
 CPU TIMES  *         9.72      0.04      9.07      0.47
 REAL TIME  *        10.57 SEC
 DISK USED  *        35.68 MB      
 **********************************************************************************************************************************
 Molecular orbitals read from record     2100.2  Type=RKS/LOCAL(IBO)  
 Occupation numbers read from record     2100.2  Type=RKS/LOCAL(IBO)  
 Orbital energies read from record       2100.2  Type=RKS/LOCAL(IBO)  
 Redundancy group numbers read from rec  2100.2  Type=RKS/LOCAL(IBO)  

 IBBA/STO-3G energy=      0.000000000000

        KS-SCF  
   -155.27163744
 **********************************************************************************************************************************
 Molpro calculation terminated
