
 Primary working directories    : /tmp/sb13343
 Secondary working directories  : /tmp/sb13343
 Wavefunction directory         : /panfs/panasas01/chem/sb13343/wfu/
 Main file repository           : /tmp/sb13343/

 SHA1      : b4a5b34a9e711420743f49e6833241d17c61fb3c
 NAME      : 2099.9.b4a5b34
 ARCHNAME  : linux/x86_64_openmp
 FC        : /cm/shared/languages/GCC-6.1/bin/gfortran
 BLASLIB   : -lblas
 id        : simonbennie

 Nodes     nprocs
 node35-048    1

 Using customized tuning parameters: mindgm=1; mindgv=20; mindgc=4; mindgr=1; noblas=0; minvec=7
 default implementation of scratch files=df  

 memory,500,m
 geomtyp=xyz
 nosym
 noorient
 geometry={
 C          0.00000        0.00000        0.00000
 C          0.00000        0.00000        1.53307
 O          1.40344        0.00000        1.86307
 C          1.76314        0.00000        3.22887
 H         -1.02289        0.00000       -0.39176
 H          0.51995       -0.88625       -0.37815
 H          0.51995        0.88625       -0.37815
 H          2.85677        0.00000        3.25413
 H          1.40708       -0.89217        3.76475
 H          1.40708        0.89217        3.76475
 C         -0.69252       -1.26694        2.06222
 C         -0.69252        1.26694        2.06222
 H         -0.15366       -2.16088        1.72982
 H         -0.15366        2.16088        1.72982
 H         -1.72011       -1.32515        1.68649
 H         -1.72011        1.32515        1.68649
 H         -0.74365       -1.28188        3.15638
 H         -0.74365        1.28188        3.15638
 }
 basis={ default,sto-3g }
 {ks,SOGGA11-X,direct;wf,50,1,0}
 {ibba,bonds=1}

 Variables initialized (895), CPU time= 0.01 sec
 Commands  initialized (725), CPU time= 0.01 sec, 591 directives.
 Default parameters read. Elapsed time= 0.09 sec

 Checking input...
 Passed
1


                                         ***  PROGRAM SYSTEM MOLPRO  ***
                                       Copyright, TTI GmbH Stuttgart, 2015
                                    Version 2099.9 linked May 26 2017 16:03:21


 **********************************************************************************************************************************
 LABEL *                                                                                 
  64 bit serial version                                                                  DATE: 09-Jun-17          TIME: 01:48:45  
 **********************************************************************************************************************************

 SHA1:             b4a5b34a9e711420743f49e6833241d17c61fb3c
 **********************************************************************************************************************************
 SETTING GEOMTYP        =    XYZ

 Variable memory set to  500000000 words,  buffer space 

 ZSYMEL=NOSYM

 SETTING BASIS          =    STO-3G


 Recomputing integrals since basis changed


 Using spherical harmonics

 Library entry C      S STO-3G               selected for orbital group  1
 Library entry C      P STO-3G               selected for orbital group  1
 Library entry O      S STO-3G               selected for orbital group  2
 Library entry O      P STO-3G               selected for orbital group  2
 Library entry H      S STO-3G               selected for orbital group  4


 PROGRAM * SEWARD (Integral evaluation for generally contracted gaussian basis sets)     Author: Roland Lindh, 1990

 Geometry written to block  1 of record 700


 Point group  C1  



 ATOMIC COORDINATES

 NR  ATOM    CHARGE       X              Y              Z

   1  C       6.00    0.000000000    0.000000000    0.000000000
   2  C       6.00    0.000000000    0.000000000    2.897082430
   3  O       8.00    2.652117232    0.000000000    3.520692051
   4  C       6.00    3.331851719    0.000000000    6.101679992
   5  H       1.00   -1.932981956    0.000000000   -0.740319107
   6  H       1.00    0.982563098   -1.674769778   -0.714599934
   7  H       1.00    0.982563098    1.674769778   -0.714599934
   8  H       1.00    5.398512901    0.000000000    6.149414474
   9  H       1.00    2.658995835   -1.685956957    7.114346427
  10  H       1.00    2.658995835    1.685956957    7.114346427
  11  C       6.00   -1.308673136   -2.394169616    3.897031009
  12  C       6.00   -1.308673136    2.394169616    3.897031009
  13  H       1.00   -0.290375316   -4.083471388    3.268886045
  14  H       1.00   -0.290375316    4.083471388    3.268886045
  15  H       1.00   -3.250536804   -2.504170574    3.187004212
  16  H       1.00   -3.250536804    2.504170574    3.187004212
  17  H       1.00   -1.405294833   -2.422402125    5.964693745
  18  H       1.00   -1.405294833    2.422402125    5.964693745

 Bond lengths in Bohr (Angstrom)

 1-2  2.897082430  1-5  2.069901355  1-6  2.069042560  1-7  2.069042560  2-3  2.724447609
     ( 1.533070000)     ( 1.095344626)     ( 1.094890171)     ( 1.094890171)     ( 1.441715587)

  2-11  2.905954351   2-12  2.905954351   3- 4  2.668995640   4- 8  2.067212379   4- 9  2.078624355
       ( 1.537764818)       ( 1.537764818)       ( 1.412371669)       ( 1.093921681)       ( 1.099960639)

  4-10  2.078624355  11-13  2.070081404  11-15  2.070524757  11-17  2.070111596  12-14  2.070081404
       ( 1.099960639)       ( 1.095439904)       ( 1.095674516)       ( 1.095455880)       ( 1.095439904)

 12-16  2.070524757  12-18  2.070111596
       ( 1.095674516)       ( 1.095455880)

 Bond angles

  1- 2- 3  103.23196371   1- 2-11  110.12706952   1- 2-12  110.12706952   2- 1- 5  110.95650426

  2- 1- 6  110.20481748   2- 1- 7  110.20481748   2- 3- 4  117.98647004   2-11-13  110.26679927

  2-11-15  110.37287188   2-11-17  112.08316935   2-12-14  110.26679927   2-12-16  110.37287188

  2-12-18  112.08316935   3- 2-11  111.07703285   3- 2-12  111.07703285   3- 4- 8  106.07765410

  3- 4- 9  112.87219182   3- 4-10  112.87219182   5- 1- 6  108.65976572   5- 1- 7  108.65976572

  6- 1- 7  108.08288210   8- 4- 9  108.20190897   8- 4-10  108.20190897   9- 4-10  108.40564999

 11- 2-12  110.95103964  13-11-15  108.29648994  13-11-17  108.35544687  14-12-16  108.29648994

 14-12-18  108.35544687  15-11-17  107.33851825  16-12-18  107.33851825

 NUCLEAR CHARGE:                   50
 NUMBER OF PRIMITIVE AOS:         126
 NUMBER OF SYMMETRY AOS:          126
 NUMBER OF CONTRACTIONS:           42   (  42A   )
 NUMBER OF CORE ORBITALS:           6   (   6A   )
 NUMBER OF VALENCE ORBITALS:       36   (  36A   )


 NUCLEAR REPULSION ENERGY  270.15500869


 Eigenvalues of metric

         1 0.207E+00 0.226E+00 0.228E+00 0.234E+00 0.307E+00 0.355E+00 0.359E+00 0.362E+00


 Contracted 2-electron integrals neglected if value below      1.0D-11
 AO integral compression algorithm  1   Integral accuracy      1.0D-11

     2.884 MB (compressed) written to integral file ( 84.3%)


 NUMBER OF SORTED TWO-ELECTRON INTEGRALS:     408156.     BUFFER LENGTH:  32768
 NUMBER OF SEGMENTS:   1  SEGMENT LENGTH:     408156      RECORD LENGTH: 524288

 Memory used in sort:       0.97 MW

 SORT1 READ      453477. AND WROTE      382834. INTEGRALS IN      2 RECORDS. CPU TIME:     0.01 SEC, REAL TIME:     0.02 SEC
 SORT2 READ      382834. AND WROTE      408156. INTEGRALS IN     11 RECORDS. CPU TIME:     0.03 SEC, REAL TIME:     0.04 SEC

 FILE SIZES:   FILE 1:    33.2 MBYTE,  FILE 4:     8.4 MBYTE,   TOTAL:     41.6 MBYTE

 OPERATOR DM      FOR CENTER  0  COORDINATES:    0.000000    0.000000    0.000000


 **********************************************************************************************************************************
 DATASETS  * FILE   NREC   LENGTH (MB)   RECORD NAMES
              1      19       31.98       500      610      700      900      950      970     1000      129      960     1100   
                                          VAR    BASINP    GEOM    SYMINP    ZMAT    AOBASIS   BASIS     P2S    ABASIS      S 
                                         1400     1410     1200     1210     1080     1600     1650     1300     1700   
                                           T        V       H0       H01     AOSYM     SMH    MOLCAS    ERIS     OPER   

 PROGRAMS   *        TOTAL       INT
 CPU TIMES  *         0.82      0.68
 REAL TIME  *         1.26 SEC
 DISK USED  *        42.19 MB      
 **********************************************************************************************************************************

 Density functional group SOGGA11-X=XC-SOGGA11-X
 Functional: XC-SOGGA11-X(via MFM 1.6)                                         Gradient terms: 1
 Use grid at  1800.2


 Exact exchange will be calculated, factor:  0.4015

 Functional: XC-SOGGA11-X              Factor:  1.0000

 Generated new metagrid on record  1800.2 with target accuracy 1.0D-06 and 66012 points in CPU time    2.0
 Computed new grid on record 1800.1 in CPU time    2.3
   38106 words reserved for DFT integration

 PROGRAM * RKS-SCF (Restricted closed shell Kohn-Sham)     Authors: W. Meyer, H.-J. Werner, P.J. Knowles, 1993

 NUMBER OF ELECTRONS:      25+   25-    SPACE SYMMETRY=1    SPIN SYMMETRY: Singlet 
 CONVERGENCE THRESHOLDS:    1.00E-05 (Density)    1.00E-06 (Energy)
 MAX. NUMBER OF ITERATIONS:       60
 INTERPOLATION TYPE:            DIIS
 INTERPOLATION STEPS:              2 (START)      1 (STEP)
 LEVEL SHIFTS:                  0.00 (CLOSED)  0.00 (OPEN) 



 Use fine grid record 1800.2 for energy threshold  1.0D-06
 Orbital guess generated from atomic densities. Full valence occupancy:   25

 Molecular orbital dump at record        2100.2

 Initial occupancy:  25

 ITERATION    DDIFF          GRAD             ENERGY        2-EL.EN.            DIPOLE MOMENTS         DIIS   ORB.
    1      0.000D+00      0.000D+00      -269.27274699    789.685742   -0.94244    0.00000    0.80082    0    start
    2      0.000D+00      0.229D-01      -269.48536117    763.208749    0.02440    0.00000   -0.27458    1    diag
    3      0.643D-01      0.135D-01      -269.58927233    772.379228   -0.37392    0.00000    0.27635    2    diag
    4      0.242D-01      0.959D-03      -269.58968877    772.492026   -0.34519    0.00000    0.23174    3    diag
    5      0.213D-02      0.391D-03      -269.58976481    772.446179   -0.35481    0.00000    0.24015    4    diag
    6      0.598D-03      0.435D-04      -269.58976584    772.446853   -0.35277    0.00000    0.23991    5    diag
    7      0.931D-04      0.126D-04      -269.58976594    772.446723   -0.35347    0.00000    0.24021    6    diag
    8      0.247D-04      0.116D-05      -269.58976594    772.446673   -0.35345    0.00000    0.24016    7    diag
    9      0.330D-05      0.457D-06      -269.58976594    772.446638   -0.35345    0.00000    0.24015    0    orth

 Final occupancy:  25

 !RKS STATE 1.1 Energy               -269.589765937105
 Nuclear energy                       270.15500869
 One-electron energy                 -901.15363034
 Two-electron energy                  386.22331904
 SCF exchange energy                  -38.58622952     Factor= 0.4015
 Density functional                   -24.81446334     XC-SOGGA11-X=-24.81446334
 Virial quotient                       -1.01588210
 !RKS STATE 1.1 Dipole moment          -0.35344578     0.00000000     0.24015206
 Dipole moment /Debye                  -0.89831073     0.00000000     0.61036566

 Orbital energies:

         1.1          2.1          3.1          4.1          5.1          6.1          7.1          8.1          9.1         10.1
    -19.206601   -10.319907   -10.297702   -10.254073   -10.254007   -10.253635    -1.057509    -0.837958    -0.733093    -0.730567

        11.1         12.1         13.1         14.1         15.1         16.1         17.1         18.1         19.1         20.1
     -0.702102    -0.565075    -0.491931    -0.468736    -0.466945    -0.444748    -0.422227    -0.405396    -0.395236    -0.379302

        21.1         22.1         23.1         24.1         25.1         26.1         27.1
     -0.376220    -0.344125    -0.336271    -0.239828    -0.179757     0.331867     0.417099

 HOMO     25.1    -0.179757 =      -4.8914eV
 LUMO     26.1     0.331867 =       9.0306eV
 LUMO-HOMO         0.511624 =      13.9220eV


 **********************************************************************************************************************************
 DATASETS  * FILE   NREC   LENGTH (MB)   RECORD NAMES
              1      20       34.09       500      610      700      900      950      970     1000      129      960     1100   
                                          VAR    BASINP    GEOM    SYMINP    ZMAT    AOBASIS   BASIS     P2S    ABASIS      S 
                                         1400     1410     1200     1210     1080     1600     1650     1300     1700     1800   
                                           T        V       H0       H01     AOSYM     SMH    MOLCAS    ERIS     OPER     GRID   

              2       5        3.09       700     1000      520     1800     2100   
                                         GEOM     BASIS   MCVARS    GRID      RKS  

 PROGRAMS   *        TOTAL        KS       INT
 CPU TIMES  *         8.48      7.66      0.68
 REAL TIME  *        10.60 SEC
 DISK USED  *        42.19 MB      
 **********************************************************************************************************************************


 PROGRAM * Intrinsic Basis Bonding Analysis (IBBA)          Author: G. Knizia

 Molecular orbitals read from record     2100.2  Type=RKS/CANONICAL (state 1.1)
 Fock matrix read from record            2100.2  Type=RKS/TOTAL (state 1.1)
 Orbital energies read from record       2100.2  Type=RKS/CANONICAL (state 1.1)
 Density matrix read from record         2100.2  Type=RKS/CHARGE (state 1.1)

 Number of core orbitals:           6 (   6 )
 Number of closed-shell orbitals:  19 (  19 )

 Basis set MINAO-AUTO-PP generated.      Number of basis functions:   42 

 Polarized AO type:                A = (O Ot + (1-O)(1-Ot)) P12
 Orthogonalization method:         Symmetric (Loewdin)
 Localization functional:          L = sum[A,i] <i|n_A|i>^4 -> max

 Localization group 1:  25 orbitals, occupancy  2.000
 Iterative localization: IB/PM,    7 iter; Final gradient 0.21E-08

 Bond order analysis:       [THRPRINT= 0.020]

   CEN ATOM   CEN ATOM     WIBERG.BO      RENORM.BO
     1   C  -   2   C       0.991979       0.990579
     1   C  -   5   H       0.968705       0.990421
     1   C  -   6   H       0.965393       0.987887
     1   C  -   7   H       0.965393       0.987887

     2   C  -   1   C       0.991979       0.990579
     2   C  -  12   C       0.989649       0.969171
     2   C  -  11   C       0.989649       0.969171
     2   C  -   3   O       0.973198       0.961539

     3   O  -   4   C       1.016300       1.012430
     3   O  -   2   C       0.973198       0.961539
     3   O  -   9   H       0.026394       0.015504
     3   O  -  10   H       0.026394       0.015504
     3   O  -  11   C       0.021982       0.011622
     3   O  -  12   C       0.021982       0.011622

     4   C  -   3   O       1.016300       1.012430
     4   C  -   9   H       0.958135       0.952133
     4   C  -  10   H       0.958135       0.952133
     4   C  -   8   H       0.957734       0.977125

     5   H  -   1   C       0.968705       0.990421

     6   H  -   1   C       0.965393       0.987887

     7   H  -   1   C       0.965393       0.987887

     8   H  -   4   C       0.957734       0.977125

     9   H  -   4   C       0.958135       0.952133
     9   H  -   3   O       0.026394       0.015504

    10   H  -   4   C       0.958135       0.952133
    10   H  -   3   O       0.026394       0.015504

    11   C  -   2   C       0.989649       0.969171
    11   C  -  17   H       0.967554       0.986932
    11   C  -  15   H       0.966460       0.990442
    11   C  -  13   H       0.965952       0.987825
    11   C  -   3   O       0.021982       0.011622

    12   C  -   2   C       0.989649       0.969171
    12   C  -  18   H       0.967554       0.986932
    12   C  -  16   H       0.966460       0.990442
    12   C  -  14   H       0.965952       0.987825
    12   C  -   3   O       0.021982       0.011622

    13   H  -  11   C       0.965952       0.987825

    14   H  -  12   C       0.965952       0.987825

    15   H  -  11   C       0.966460       0.990442

    16   H  -  12   C       0.966460       0.990442

    17   H  -  11   C       0.967554       0.986932

    18   H  -  12   C       0.967554       0.986932


 Valency analysis:

   CEN ATOM   TOT.VALENCE
     1   C       3.937468
     2   C       3.971590
     3   O       2.135914
     4   C       3.910857
     5   H       0.983957
     6   H       0.982164
     7   H       0.982164
     8   H       0.981066
     9   H       0.988126
    10   H       0.988126
    11   C       3.938845
    12   C       3.938845
    13   H       0.982728
    14   H       0.982728
    15   H       0.982936
    16   H       0.982936
    17   H       0.984600
    18   H       0.984600

 Total charge composition:

   CEN ATOM         s          p       ELECTRONS ->P.CHARGE
     1   C       3.00110    3.37923      6.38034   -0.38034
     2   C       2.94906    2.92337      5.87243    0.12757
     3   O       3.65458    4.57826      8.23285   -0.23285
     4   C       3.00618    3.24370      6.24988   -0.24988
     5   H       0.87334                 0.87334    0.12666
     6   H       0.86645                 0.86645    0.13355
     7   H       0.86645                 0.86645    0.13355
     8   H       0.86240                 0.86240    0.13760
     9   H       0.89103                 0.89103    0.10897
    10   H       0.89103                 0.89103    0.10897
    11   C       3.00185    3.39120      6.39305   -0.39305
    12   C       3.00185    3.39120      6.39305   -0.39305
    13   H       0.86858                 0.86858    0.13142
    14   H       0.86858                 0.86858    0.13142
    15   H       0.86937                 0.86937    0.13063
    16   H       0.86937                 0.86937    0.13063
    17   H       0.87590                 0.87590    0.12410
    18   H       0.87590                 0.87590    0.12410

 Total charge composition, AO contributions:

   CEN ATOM SHL      SPHERICAL COMPONENTS
     1   C  1s       1.99138
     1   C  2s       1.00973
     1   C  2p       1.16260    1.17109    1.04553

     2   C  1s       1.99290
     2   C  2s       0.95617
     2   C  2p       0.86833    1.02672    1.02832

     3   O  1s       1.99735
     3   O  2s       1.65723
     3   O  2p       1.31714    1.92653    1.33460

     4   C  1s       1.99196
     4   C  2s       1.01422
     4   C  2p       1.16054    1.16619    0.91697

     5   H  1s       0.87334

     6   H  1s       0.86645

     7   H  1s       0.86645

     8   H  1s       0.86240

     9   H  1s       0.89103

    10   H  1s       0.89103

    11   C  1s       1.99143
    11   C  2s       1.01042
    11   C  2p       1.14584    1.09518    1.15019

    12   C  1s       1.99143
    12   C  2s       1.01042
    12   C  2p       1.14584    1.09518    1.15019

    13   H  1s       0.86858

    14   H  1s       0.86858

    15   H  1s       0.86937

    16   H  1s       0.86937

    17   H  1s       0.87590

    18   H  1s       0.87590

 Summary of localized orbital composition:   [THRPRINT= 0.020]

   ORB  GRP  ORB.ENERGY      CENTERS/CHARGES
     1   1   -19.031322      O  3   2.000
     2   1   -10.224511      C  2   2.000
     3   1   -10.186819      C  4   2.000
     4   1   -10.138729      C 12   2.000
     5   1   -10.138729      C 11   2.000
     6   1   -10.137683      C  1   2.000
     7   1    -0.724829      O  3   1.157   C  4   0.835
     8   1    -0.689605      O  3   1.167   C  2   0.810   (other: 0.023)
     9   1    -0.588714      O  3   1.973   (other: 0.027)
    10   1    -0.586610      C 12   0.996   C  2   0.991
    11   1    -0.586610      C 11   0.996   C  2   0.991
    12   1    -0.585575      C  2   0.996   C  1   0.982   (other: 0.022)
    13   1    -0.540078      C  4   1.123   H  9   0.875
    14   1    -0.540078      C  4   1.123   H 10   0.875
    15   1    -0.539095      C  4   1.137   H  8   0.854
    16   1    -0.525391      C 11   1.122   H 17   0.870
    17   1    -0.525391      C 12   1.122   H 18   0.870
    18   1    -0.524798      C 11   1.127   H 15   0.863
    19   1    -0.524798      C 12   1.127   H 16   0.863
    20   1    -0.524082      C  1   1.123   H  5   0.867
    21   1    -0.521133      C 11   1.129   H 13   0.862
    22   1    -0.521133      C 12   1.129   H 14   0.862
    23   1    -0.517248      C  1   1.131   H  7   0.860
    24   1    -0.517248      C  1   1.131   H  6   0.860
    25   1    -0.222741      O  3   1.926   (other: 0.074)

 Localized orbitals saved to record      2100.2  (orbital set 2)


 **********************************************************************************************************************************
 DATASETS  * FILE   NREC   LENGTH (MB)   RECORD NAMES
              1      20       34.09       500      610      700      900      950      970     1000      129      960     1100   
                                          VAR    BASINP    GEOM    SYMINP    ZMAT    AOBASIS   BASIS     P2S    ABASIS      S 
                                         1400     1410     1200     1210     1080     1600     1650     1300     1700     1800   
                                           T        V       H0       H01     AOSYM     SMH    MOLCAS    ERIS     OPER     GRID   

              2       5        3.11       700     1000      520     1800     2100   
                                         GEOM     BASIS   MCVARS    GRID      RKS  

 PROGRAMS   *        TOTAL      IBBA        KS       INT
 CPU TIMES  *         8.52      0.03      7.66      0.68
 REAL TIME  *        10.79 SEC
 DISK USED  *        42.19 MB      
 **********************************************************************************************************************************
 Molecular orbitals read from record     2100.2  Type=RKS/LOCAL(IBO)  
 Occupation numbers read from record     2100.2  Type=RKS/LOCAL(IBO)  
 Orbital energies read from record       2100.2  Type=RKS/LOCAL(IBO)  
 Redundancy group numbers read from rec  2100.2  Type=RKS/LOCAL(IBO)  

 IBBA/STO-3G energy=      0.000000000000

        KS-SCF  
   -269.58976594
 **********************************************************************************************************************************
 Molpro calculation terminated
