
 Primary working directories    : /local
 Secondary working directories  : /local
 Wavefunction directory         : /local/
 Main file repository           : /local/

 SHA1      : b4a5b34a9e711420743f49e6833241d17c61fb3c
 NAME      : 2099.9.b4a5b34
 ARCHNAME  : linux/x86_64_openmp
 FC        : /cm/shared/languages/GCC-6.1/bin/gfortran
 BLASLIB   : -lblas
 id        : simonbennie

 Nodes     nprocs
 node35-048    1

 Using customized tuning parameters: mindgm=1; mindgv=20; mindgc=4; mindgr=1; noblas=0; minvec=7
 default implementation of scratch files=df  

 memory,500,m
 geomtyp=xyz
 nosym
 noorient
 geometry={
 C         -1.53233        0.02247        0.00000
 C         -0.00192        0.01421        0.00000
 O          0.37239        1.40356        0.00000
 H          1.34248        1.44036        0.00000
 H         -1.92991       -0.99819        0.00000
 H         -1.90797        0.54382       -0.88653
 H         -1.90797        0.54382        0.88653
 C          0.54303       -0.66466       -1.26580
 C          0.54303       -0.66466        1.26580
 H          0.17836       -0.14752       -2.15943
 H          0.17836       -0.14752        2.15943
 H          0.23752       -1.71600       -1.32280
 H          0.23752       -1.71600        1.32280
 H          1.64084       -0.63767       -1.28032
 H          1.64084       -0.63767        1.28032
 }
 basis={ default,avdz }
 {ks,M06,direct;wf,42,1,0}
 {ibba,bonds=1}

 Variables initialized (895), CPU time= 0.01 sec
 Commands  initialized (725), CPU time= 0.01 sec, 591 directives.
 Default parameters read. Elapsed time= 0.09 sec

 Checking input...
 Passed
1


                                         ***  PROGRAM SYSTEM MOLPRO  ***
                                       Copyright, TTI GmbH Stuttgart, 2015
                                    Version 2099.9 linked May 26 2017 16:03:21


 **********************************************************************************************************************************
 LABEL *                                                                                 
  64 bit serial version                                                                  DATE: 12-Jun-17          TIME: 16:18:18  
 **********************************************************************************************************************************

 SHA1:             b4a5b34a9e711420743f49e6833241d17c61fb3c
 **********************************************************************************************************************************
 SETTING GEOMTYP        =    XYZ

 Variable memory set to  500000000 words,  buffer space 

 ZSYMEL=NOSYM

 SETTING BASIS          =    AVDZ


 Recomputing integrals since basis changed


 Using spherical harmonics

 Library entry C      S aug-cc-pVDZ          selected for orbital group  1
 Library entry C      P aug-cc-pVDZ          selected for orbital group  1
 Library entry C      D aug-cc-pVDZ          selected for orbital group  1
 Library entry O      S aug-cc-pVDZ          selected for orbital group  2
 Library entry O      P aug-cc-pVDZ          selected for orbital group  2
 Library entry O      D aug-cc-pVDZ          selected for orbital group  2
 Library entry H      S aug-cc-pVDZ          selected for orbital group  3
 Library entry H      P aug-cc-pVDZ          selected for orbital group  3


 PROGRAM * SEWARD (Integral evaluation for generally contracted gaussian basis sets)     Author: Roland Lindh, 1990

 Geometry written to block  1 of record 700


 Point group  C1  



 ATOMIC COORDINATES

 NR  ATOM    CHARGE       X              Y              Z

   1  C       6.00   -2.895684032    0.042462146    0.000000000
   2  C       6.00   -0.003628274    0.026853008    0.000000000
   3  O       8.00    0.703715112    2.652343999    0.000000000
   4  H       1.00    2.536919528    2.721885921    0.000000000
   5  H       1.00   -3.647001345   -1.886305720    0.000000000
   6  H       1.00   -3.605540754    1.027670861   -1.675298901
   7  H       1.00   -3.605540754    1.027670861    1.675298901
   8  C       6.00    1.026177977   -1.256025366   -2.392015328
   9  C       6.00    1.026177977   -1.256025366    2.392015328
  10  H       1.00    0.337051552   -0.278772398   -4.080731285
  11  H       1.00    0.337051552   -0.278772398    4.080731285
  12  H       1.00    0.448847749   -3.242770030   -2.499729718
  13  H       1.00    0.448847749   -3.242770030    2.499729718
  14  H       1.00    3.100738214   -1.205021658   -2.419454152
  15  H       1.00    3.100738214   -1.205021658    2.419454152

 Bond lengths in Bohr (Angstrom)

 1-2  2.892097881  1-5  2.069933136  1-6  2.069096224  1-7  2.069096224  2-3  2.719106031
     ( 1.530432290)     ( 1.095361444)     ( 1.094918569)     ( 1.094918569)     ( 1.438888946)

  2- 8  2.903104402   2- 9  2.903104402   3- 4  1.834522965   8-10  2.069222119   8-12  2.071730422
       ( 1.536256691)       ( 1.536256691)       ( 0.970787746)       ( 1.094985190)       ( 1.096312526)

  8-14  2.075368508   9-11  2.069222119   9-13  2.071730422   9-15  2.075368508
       ( 1.098237719)       ( 1.094985190)       ( 1.096312526)       ( 1.098237719)

 Bond angles

  1-2-3  104.76902697   1-2-8  110.92255387   1-2-9  110.92255387   2-1-5  110.97328220

  2- 1- 6  110.22090701   2- 1- 7  110.22090701   2- 3- 4  107.25071562   2- 8-10  110.21836376

  2- 8-12  111.57747468   2- 8-14  110.77023896   2- 9-11  110.21836376   2- 9-13  111.57747468

  2- 9-15  110.77023896   3- 2- 8  109.53648747   3- 2- 9  109.53648747   5- 1- 6  108.61190457

  5- 1- 7  108.61190457   6- 1- 7  108.12870271   8- 2- 9  110.96453384  10- 8-12  108.52192632

 10- 8-14  108.08997829  11- 9-13  108.52192632  11- 9-15  108.08997829  12- 8-14  107.54424578

 13- 9-15  107.54424578

 NUCLEAR CHARGE:                   42
 NUMBER OF PRIMITIVE AOS:         295
 NUMBER OF SYMMETRY AOS:          285
 NUMBER OF CONTRACTIONS:          205   ( 205A   )
 NUMBER OF CORE ORBITALS:           5   (   5A   )
 NUMBER OF VALENCE ORBITALS:       30   (  30A   )


 NUCLEAR REPULSION ENERGY  198.77359127


 Eigenvalues of metric

         1 0.151E-04 0.552E-04 0.579E-04 0.110E-03 0.111E-03 0.217E-03 0.237E-03 0.259E-03


 Contracted 2-electron integrals neglected if value below      1.0D-12
 AO integral compression algorithm  1   Integral accuracy      1.0D-12

     1203.503 MB (compressed) written to integral file ( 61.3%)


 NUMBER OF SORTED TWO-ELECTRON INTEGRALS:  222932170.     BUFFER LENGTH:  32768
 NUMBER OF SEGMENTS:  14  SEGMENT LENGTH:   15999503      RECORD LENGTH: 524288

 Memory used in sort:      16.56 MW

 SORT1 READ   245224724. AND WROTE   218324786. INTEGRALS IN    630 RECORDS. CPU TIME:     3.44 SEC, REAL TIME:    16.59 SEC
 SORT2 READ   218324786. AND WROTE   222932170. INTEGRALS IN   4591 RECORDS. CPU TIME:     6.24 SEC, REAL TIME:    25.98 SEC

 FILE SIZES:   FILE 1:  1235.3 MBYTE,  FILE 4:  2642.4 MBYTE,   TOTAL:   3877.7 MBYTE

 OPERATOR DM      FOR CENTER  0  COORDINATES:    0.000000    0.000000    0.000000


 **********************************************************************************************************************************
 DATASETS  * FILE   NREC   LENGTH (MB)   RECORD NAMES
              1      19     1149.90       500      610      700      900      950      970     1000      129      960     1100   
                                          VAR    BASINP    GEOM    SYMINP    ZMAT    AOBASIS   BASIS     P2S    ABASIS      S 
                                         1400     1410     1200     1210     1080     1600     1650     1300     1700   
                                           T        V       H0       H01     AOSYM     SMH    MOLCAS    ERIS     OPER   

 PROGRAMS   *        TOTAL       INT
 CPU TIMES  *        21.83     21.68
 REAL TIME  *        57.96 SEC
 DISK USED  *         3.88 GB      
 **********************************************************************************************************************************

 Density functional group M06=XC-M06
 Functional: XC-M06(via MFM 1.6)                                               Gradient terms: 1
 Use grid at  1800.2


 Exact exchange will be calculated, factor:  0.2700

 Functional: XC-M06                    Factor:  1.0000

 Generated new metagrid on record  1800.2 with target accuracy 1.0D-06 and 53396 points in CPU time    1.7
 Computed new grid on record 1800.1 in CPU time    1.9
  167289 words reserved for DFT integration

 PROGRAM * RKS-SCF (Restricted closed shell Kohn-Sham)     Authors: W. Meyer, H.-J. Werner, P.J. Knowles, 1993

 NUMBER OF ELECTRONS:      21+   21-    SPACE SYMMETRY=1    SPIN SYMMETRY: Singlet 
 CONVERGENCE THRESHOLDS:    1.00E-05 (Density)    1.00E-06 (Energy)
 MAX. NUMBER OF ITERATIONS:       60
 INTERPOLATION TYPE:            DIIS
 INTERPOLATION STEPS:              2 (START)      1 (STEP)
 LEVEL SHIFTS:                  0.00 (CLOSED)  0.00 (OPEN) 



 Use fine grid record 1800.2 for energy threshold  1.0D-06
 Orbital guess generated from atomic densities. Full valence occupancy:   35

 Molecular orbital dump at record        2100.2

 Initial occupancy:  21

 ITERATION    DDIFF          GRAD             ENERGY        2-EL.EN.            DIPOLE MOMENTS         DIIS   ORB.
    1      0.000D+00      0.000D+00      -233.33499432    617.986475    0.70580   -0.84783    0.00000    0    start
    2      0.000D+00      0.693D-02      -233.21669606    585.405615   -0.22141   -0.19294    0.00000    1    diag
    3      0.312D-01      0.910D-02      -233.52808635    604.768161    0.36328   -0.65089    0.00000    2    diag
    4      0.189D-01      0.107D-02      -233.53154521    604.044336    0.33483   -0.52348    0.00000    3    diag
    5      0.235D-02      0.303D-03      -233.53180115    604.038676    0.33750   -0.57376    0.00000    4    diag
    6      0.155D-02      0.942D-04      -233.53182708    604.137775    0.33804   -0.56171    0.00000    5    diag
    7      0.245D-03      0.394D-04      -233.53183220    604.109660    0.33818   -0.56151    0.00000    6    diag
    8      0.811D-04      0.379D-05      -233.53183226    604.111816    0.33808   -0.56321    0.00000    7    diag
    9      0.204D-04      0.944D-06      -233.53183226    604.111780    0.33814   -0.56277    0.00000    8    diag
   10      0.605D-05      0.282D-06      -233.53183226    604.111975    0.33813   -0.56292    0.00000    0    orth

 Final occupancy:  21

 !RKS STATE 1.1 Energy               -233.531832263395
 Nuclear energy                       198.77359127
 One-electron energy                 -709.26776877
 Two-electron energy                  302.05598757
 SCF exchange energy                  -32.49143994     Factor= 0.2700
 Density functional                   -25.09364233     XC-M06=-25.09364233
 Virial quotient                       -1.00702277
 !RKS STATE 1.1 Dipole moment           0.33813080    -0.56291577     0.00000000
 Dipole moment /Debye                   0.85938648    -1.43069546     0.00000000

 Orbital energies:

         1.1          2.1          3.1          4.1          5.1          6.1          7.1          8.1          9.1         10.1
    -19.226626   -10.310725   -10.242590   -10.242557   -10.236910    -1.046444    -0.802445    -0.704225    -0.703186    -0.581681

        11.1         12.1         13.1         14.1         15.1         16.1         17.1         18.1         19.1         20.1
     -0.502803    -0.464788    -0.461326    -0.424568    -0.409189    -0.391677    -0.376882    -0.369773    -0.360890    -0.335175

        21.1         22.1         23.1
     -0.290180    -0.040204    -0.023440

 HOMO     21.1    -0.290180 =      -7.8962eV
 LUMO     22.1    -0.040204 =      -1.0940eV
 LUMO-HOMO         0.249976 =       6.8022eV


 **********************************************************************************************************************************
 DATASETS  * FILE   NREC   LENGTH (MB)   RECORD NAMES
              1      20     1151.61       500      610      700      900      950      970     1000      129      960     1100   
                                          VAR    BASINP    GEOM    SYMINP    ZMAT    AOBASIS   BASIS     P2S    ABASIS      S 
                                         1400     1410     1200     1210     1080     1600     1650     1300     1700     1800   
                                           T        V       H0       H01     AOSYM     SMH    MOLCAS    ERIS     OPER     GRID   

              2       5        3.87       700     1000      520     1800     2100   
                                         GEOM     BASIS   MCVARS    GRID      RKS  

 PROGRAMS   *        TOTAL        KS       INT
 CPU TIMES  *       154.32    132.49     21.68
 REAL TIME  *       193.13 SEC
 DISK USED  *         3.88 GB      
 **********************************************************************************************************************************


 PROGRAM * Intrinsic Basis Bonding Analysis (IBBA)          Author: G. Knizia

 Molecular orbitals read from record     2100.2  Type=RKS/CANONICAL (state 1.1)
 Fock matrix read from record            2100.2  Type=RKS/TOTAL (state 1.1)
 Orbital energies read from record       2100.2  Type=RKS/CANONICAL (state 1.1)
 Density matrix read from record         2100.2  Type=RKS/CHARGE (state 1.1)

 Number of core orbitals:           5 (   5 )
 Number of closed-shell orbitals:  16 (  16 )

 Basis set MINAO-AUTO-PP generated.      Number of basis functions:   35 

 Polarized AO type:                A = (O Ot + (1-O)(1-Ot)) P12
 Orthogonalization method:         Symmetric (Loewdin)
 Localization functional:          L = sum[A,i] <i|n_A|i>^4 -> max

 Localization group 1:  21 orbitals, occupancy  2.000
 Iterative localization: IB/PM,    7 iter; Final gradient 0.19E-08

 Bond order analysis:       [THRPRINT= 0.020]

   CEN ATOM   CEN ATOM     WIBERG.BO      RENORM.BO
     1   C  -   2   C       0.996293       0.993874
     1   C  -   5   H       0.963437       0.987808
     1   C  -   6   H       0.958854       0.982336
     1   C  -   7   H       0.958854       0.982336

     2   C  -   1   C       0.996293       0.993874
     2   C  -   9   C       0.995177       0.976918
     2   C  -   8   C       0.995177       0.976918
     2   C  -   3   O       0.925467       0.948765

     3   O  -   2   C       0.925467       0.948765
     3   O  -   4   H       0.857504       0.977089
     3   O  -   9   C       0.026788       0.013681
     3   O  -   8   C       0.026788       0.013681

     4   H  -   3   O       0.857504       0.977089

     5   H  -   1   C       0.963437       0.987808

     6   H  -   1   C       0.958854       0.982336

     7   H  -   1   C       0.958854       0.982336

     8   C  -   2   C       0.995177       0.976918
     8   C  -  14   H       0.962894       0.983029
     8   C  -  12   H       0.959242       0.982454
     8   C  -  10   H       0.959118       0.982111
     8   C  -   3   O       0.026788       0.013681

     9   C  -   2   C       0.995177       0.976918
     9   C  -  15   H       0.962894       0.983029
     9   C  -  13   H       0.959242       0.982454
     9   C  -  11   H       0.959118       0.982111
     9   C  -   3   O       0.026788       0.013681

    10   H  -   8   C       0.959118       0.982111

    11   H  -   9   C       0.959118       0.982111

    12   H  -   8   C       0.959242       0.982454

    13   H  -   9   C       0.959242       0.982454

    14   H  -   8   C       0.962894       0.983029

    15   H  -   9   C       0.962894       0.983029


 Valency analysis:

   CEN ATOM   TOT.VALENCE
     1   C       3.935614
     2   C       3.923129
     3   O       1.900716
     4   H       0.876489
     5   H       0.981533
     6   H       0.978995
     7   H       0.978995
     8   C       3.937844
     9   C       3.937844
    10   H       0.978900
    11   H       0.978900
    12   H       0.980735
    13   H       0.980735
    14   H       0.982952
    15   H       0.982952

 Total charge composition:

   CEN ATOM         s          p       ELECTRONS ->P.CHARGE
     1   C       3.04079    3.37968      6.42047   -0.42047
     2   C       2.93116    2.79045      5.72161    0.27839
     3   O       3.65465    4.94078      8.59543   -0.59543
     4   H       0.64856                 0.64856    0.35144
     5   H       0.86411                 0.86411    0.13589
     6   H       0.85507                 0.85507    0.14493
     7   H       0.85507                 0.85507    0.14493
     8   C       3.04700    3.38746      6.43447   -0.43447
     9   C       3.04700    3.38746      6.43447   -0.43447
    10   H       0.85474                 0.85474    0.14526
    11   H       0.85474                 0.85474    0.14526
    12   H       0.86120                 0.86120    0.13880
    13   H       0.86120                 0.86120    0.13880
    14   H       0.86943                 0.86943    0.13057
    15   H       0.86943                 0.86943    0.13057

 Total charge composition, AO contributions:

   CEN ATOM SHL      SPHERICAL COMPONENTS
     1   C  1s       1.99139
     1   C  2s       1.04940
     1   C  2p       1.04389    1.16222    1.17356

     2   C  1s       1.99301
     2   C  2s       0.93815
     2   C  2p       1.00604    0.77612    1.00830

     3   O  1s       1.99718
     3   O  2s       1.65747
     3   O  2p       1.48004    1.50295    1.95779

     4   H  1s       0.64856

     5   H  1s       0.86411

     6   H  1s       0.85507

     7   H  1s       0.85507

     8   C  1s       1.99149
     8   C  2s       1.05551
     8   C  2p       1.14522    1.14454    1.09770

     9   C  1s       1.99149
     9   C  2s       1.05551
     9   C  2p       1.14522    1.14454    1.09770

    10   H  1s       0.85474

    11   H  1s       0.85474

    12   H  1s       0.86120

    13   H  1s       0.86120

    14   H  1s       0.86943

    15   H  1s       0.86943

 Summary of localized orbital composition:   [THRPRINT= 0.020]

   ORB  GRP  ORB.ENERGY      CENTERS/CHARGES
     1   1   -19.061954      O  3   2.000
     2   1   -10.218873      C  2   2.000
     3   1   -10.127128      C  9   2.000
     4   1   -10.127128      C  8   2.000
     5   1   -10.120652      C  1   2.000
     6   1    -0.781366      O  3   1.353   H  4   0.637
     7   1    -0.739786      O  3   1.298   C  2   0.684
     8   1    -0.607378      O  3   1.983
     9   1    -0.588842      C  9   1.010   C  2   0.975
    10   1    -0.588842      C  8   1.010   C  2   0.975
    11   1    -0.588628      C  1   0.993   C  2   0.984   (other: 0.023)
    12   1    -0.517053      C  8   1.134   H 12   0.852
    13   1    -0.517053      C  9   1.134   H 13   0.852
    14   1    -0.515321      C  8   1.126   H 14   0.862
    15   1    -0.515321      C  9   1.126   H 15   0.862
    16   1    -0.513388      C  1   1.129   H  5   0.857
    17   1    -0.510373      C  9   1.143   H 11   0.847
    18   1    -0.510373      C  8   1.143   H 10   0.847
    19   1    -0.505172      C  1   1.142   H  6   0.847
    20   1    -0.505172      C  1   1.142   H  7   0.847
    21   1    -0.324838      O  3   1.958   (other: 0.042)

 Localized orbitals saved to record      2100.2  (orbital set 2)


 **********************************************************************************************************************************
 DATASETS  * FILE   NREC   LENGTH (MB)   RECORD NAMES
              1      20     1151.61       500      610      700      900      950      970     1000      129      960     1100   
                                          VAR    BASINP    GEOM    SYMINP    ZMAT    AOBASIS   BASIS     P2S    ABASIS      S 
                                         1400     1410     1200     1210     1080     1600     1650     1300     1700     1800   
                                           T        V       H0       H01     AOSYM     SMH    MOLCAS    ERIS     OPER     GRID   

              2       5        4.21       700     1000      520     1800     2100   
                                         GEOM     BASIS   MCVARS    GRID      RKS  

 PROGRAMS   *        TOTAL      IBBA        KS       INT
 CPU TIMES  *       154.40      0.08    132.49     21.68
 REAL TIME  *       193.37 SEC
 DISK USED  *         3.88 GB      
 **********************************************************************************************************************************
 Molecular orbitals read from record     2100.2  Type=RKS/LOCAL(IBO)  
 Occupation numbers read from record     2100.2  Type=RKS/LOCAL(IBO)  
 Orbital energies read from record       2100.2  Type=RKS/LOCAL(IBO)  
 Redundancy group numbers read from rec  2100.2  Type=RKS/LOCAL(IBO)  

 IBBA/aug-cc-pVDZ energy=      0.000000000000

        KS-SCF  
   -233.53183226
 **********************************************************************************************************************************
 Molpro calculation terminated
