
 Primary working directories    : /tmp/sb13343
 Secondary working directories  : /tmp/sb13343
 Wavefunction directory         : /panfs/panasas01/chem/sb13343/wfu/
 Main file repository           : /tmp/sb13343/

 SHA1      : b4a5b34a9e711420743f49e6833241d17c61fb3c
 NAME      : 2099.9.b4a5b34
 ARCHNAME  : linux/x86_64_openmp
 FC        : /cm/shared/languages/GCC-6.1/bin/gfortran
 BLASLIB   : -lblas
 id        : simonbennie

 Nodes     nprocs
 node34-009    1

 Using customized tuning parameters: mindgm=1; mindgv=20; mindgc=4; mindgr=1; noblas=0; minvec=7
 default implementation of scratch files=df  

 memory,500,m
 geomtyp=xyz
 nosym
 noorient
 geometry={
 H         -1.13405        1.76167        0.00000
 C         -1.32915        0.67205        0.00000
 C         -0.06360       -0.12883        0.00000
 C          0.67426       -0.31636        1.28970
 C          0.67426       -0.31636       -1.28970
 H         -1.94006        0.46750        0.88859
 H         -1.94006        0.46750       -0.88859
 H          1.28359        0.56876        1.55544
 H         -0.01165       -0.48291        2.13019
 H          1.36783       -1.16569        1.24157
 H          1.28359        0.56876       -1.55544
 H         -0.01165       -0.48291       -2.13019
 H          1.36783       -1.16569       -1.24157
 }
 basis={ default,svp }
 {uks,MM06,direct;wf,33,1,1}
 {ibba,bonds=1}

 Variables initialized (895), CPU time= 0.00 sec
 Commands  initialized (725), CPU time= 0.02 sec, 591 directives.
 Default parameters read. Elapsed time= 0.07 sec

 Checking input...
 Passed
1


                                         ***  PROGRAM SYSTEM MOLPRO  ***
                                       Copyright, TTI GmbH Stuttgart, 2015
                                    Version 2099.9 linked May 26 2017 16:03:21


 **********************************************************************************************************************************
 LABEL *                                                                                 
  64 bit serial version                                                                  DATE: 08-Jun-17          TIME: 20:40:25  
 **********************************************************************************************************************************

 SHA1:             b4a5b34a9e711420743f49e6833241d17c61fb3c
 **********************************************************************************************************************************
 SETTING GEOMTYP        =    XYZ

 Variable memory set to  500000000 words,  buffer space 

 ZSYMEL=NOSYM

 SETTING BASIS          =    SVP


 Recomputing integrals since basis changed


 Using spherical harmonics

 Library entry H      S def2-SVP             selected for orbital group  1
 Library entry H      P def2-SVP             selected for orbital group  1
 Library entry C      S def2-SVP             selected for orbital group  2
 Library entry C      P def2-SVP             selected for orbital group  2
 Library entry C      D def2-SVP             selected for orbital group  2


 PROGRAM * SEWARD (Integral evaluation for generally contracted gaussian basis sets)     Author: Roland Lindh, 1990

 Geometry written to block  1 of record 700


 Point group  C1  



 ATOMIC COORDINATES

 NR  ATOM    CHARGE       X              Y              Z

   1  H       1.00   -2.143043912    3.329073822    0.000000000
   2  C       6.00   -2.511729478    1.269990442    0.000000000
   3  C       6.00   -0.120186582   -0.243453417    0.000000000
   4  C       6.00    1.274166737   -0.597833757    2.437179783
   5  C       6.00    1.274166737   -0.597833757   -2.437179783
   6  H       1.00   -3.666182065    0.883446963    1.679191737
   7  H       1.00   -3.666182065    0.883446963   -1.679191737
   8  H       1.00    2.425633556    1.074800631    2.939355603
   9  H       1.00   -0.022015309   -0.912567643    4.025475693
  10  H       1.00    2.584824085   -2.202834846    2.346227264
  11  H       1.00    2.425633556    1.074800631   -2.939355603
  12  H       1.00   -0.022015309   -0.912567643   -4.025475693
  13  H       1.00    2.584824085   -2.202834846   -2.346227264

 Bond lengths in Bohr (Angstrom)

 1-2  2.091830159  2-3  2.830192527  2-6  2.074092940  2-7  2.074092940  3-4  2.830132841
     ( 1.106948849)     ( 1.497673388)     ( 1.097562717)     ( 1.097562717)     ( 1.497641803)

  3- 5  2.830132841   4- 8  2.091832255   4- 9  2.074085151   4-10  2.074156104   5-11  2.091832255
       ( 1.497641803)       ( 1.106949959)       ( 1.097558596)       ( 1.097596142)       ( 1.106949959)

  5-12  2.074085151   5-13  2.074156104
       ( 1.097558596)       ( 1.097596142)

 Bond angles

  1-2-3  112.17549786   1-2-6  106.35284965   1-2-7  106.35284965   2-3-4  118.89987932

  2-3-5  118.89987932   3-2-6  111.75744418   3-2-7  111.75744418   3-4-8  112.19808176

  3- 4- 9  111.75014522   3- 4-10  111.74379558   3- 5-11  112.19808176   3- 5-12  111.75014522

  3- 5-13  111.74379558   4- 3- 5  118.89276928   6- 2- 7  108.11431090   8- 4- 9  106.34995457

  8- 4-10  106.34572146   9- 4-10  108.12296896  11- 5-12  106.34995457  11- 5-13  106.34572146

 12- 5-13  108.12296896

 NUCLEAR CHARGE:                   33
 NUMBER OF PRIMITIVE AOS:         163
 NUMBER OF SYMMETRY AOS:          159
 NUMBER OF CONTRACTIONS:          101   ( 101A   )
 NUMBER OF CORE ORBITALS:           4   (   4A   )
 NUMBER OF VALENCE ORBITALS:       25   (  25A   )


 NUCLEAR REPULSION ENERGY  124.92676597


 Eigenvalues of metric

         1 0.371E-02 0.424E-02 0.424E-02 0.242E-01 0.242E-01 0.268E-01 0.277E-01 0.371E-01


 Contracted 2-electron integrals neglected if value below      1.0D-11
 AO integral compression algorithm  1   Integral accuracy      1.0D-11

     53.477 MB (compressed) written to integral file ( 46.4%)


 NUMBER OF SORTED TWO-ELECTRON INTEGRALS:   13268976.     BUFFER LENGTH:  32768
 NUMBER OF SEGMENTS:   1  SEGMENT LENGTH:   13268976      RECORD LENGTH: 524288

 Memory used in sort:      13.83 MW

 SORT1 READ    14422061. AND WROTE    12225547. INTEGRALS IN     35 RECORDS. CPU TIME:     0.18 SEC, REAL TIME:     0.37 SEC
 SORT2 READ    12225547. AND WROTE    13268976. INTEGRALS IN    204 RECORDS. CPU TIME:     0.35 SEC, REAL TIME:     0.44 SEC

 FILE SIZES:   FILE 1:    84.0 MBYTE,  FILE 4:   146.8 MBYTE,   TOTAL:    230.9 MBYTE

 OPERATOR DM      FOR CENTER  0  COORDINATES:    0.000000    0.000000    0.000000


 **********************************************************************************************************************************
 DATASETS  * FILE   NREC   LENGTH (MB)   RECORD NAMES
              1      19       77.16       500      610      700      900      950      970     1000      129      960     1100   
                                          VAR    BASINP    GEOM    SYMINP    ZMAT    AOBASIS   BASIS     P2S    ABASIS      S 
                                         1400     1410     1200     1210     1080     1600     1650     1300     1700   
                                           T        V       H0       H01     AOSYM     SMH    MOLCAS    ERIS     OPER   

 PROGRAMS   *        TOTAL       INT
 CPU TIMES  *         2.34      2.20
 REAL TIME  *         3.09 SEC
 DISK USED  *       231.35 MB      
 **********************************************************************************************************************************

 Density functional group MM06=M06X+M06C
 Functional: M06X(Automatically generated (new) M06X)                          Gradient terms: 2
 Functional: M06C(Automatically generated (new) M06C)                          Gradient terms: 2
 Use grid at  1800.2


 Exact exchange will be calculated, factor:  0.2700

 Functional: M06X                      Factor:  0.7300
 Functional: M06C                      Factor:  1.0000

 Generated new metagrid on record  1800.2 with target accuracy 1.0D-06 and 45406 points in CPU time    1.4
 Computed new grid on record 1800.1 in CPU time    1.5
  161317 words reserved for DFT integration

 PROGRAM * UKS-SCF (Unrestricted Kohn-Sham)     Authors: W. Meyer, H.-J. Werner, P.J. Knowles, 1993

 NUMBER OF ELECTRONS:      17+   16-    SPACE SYMMETRY=1    SPIN SYMMETRY: Doublet 
 CONVERGENCE THRESHOLDS:    1.00E-05 (Density)    1.00E-06 (Energy)
 MAX. NUMBER OF ITERATIONS:       60
 INTERPOLATION TYPE:            DIIS
 INTERPOLATION STEPS:              2 (START)      1 (STEP)
 LEVEL SHIFTS:                 -0.20 (ALPHA)  -0.20 (BETA) 



 Use fine grid record 1800.2 for energy threshold  1.0D-06
 Orbital guess generated from atomic densities. Full valence occupancy:   17

 Molecular orbital dump at record        2200.2

 Initial alpha occupation  17
 Initial beta  occupation  16

 ITERATION    DDIFF          GRAD             ENERGY        2-EL.EN.            DIPOLE MOMENTS         DIIS
    1      0.000D+00      0.000D+00      -152.82759897    392.335485    0.12260    0.24792    0.00000    0
    2      0.872D-02      0.424D-02      -152.92311291    381.206018    0.05318    0.10947    0.00000    1
    3      0.254D-02      0.164D-02      -152.93574500    383.677601    0.05306    0.10927    0.00000    2
    4      0.112D-02      0.271D-03      -152.93662837    383.509630    0.04603    0.09575    0.00000    3
    5      0.528D-03      0.104D-03      -152.93680692    383.480277    0.04155    0.08743    0.00000    4
    6      0.193D-03      0.467D-04      -152.93683534    383.459296    0.03915    0.08283    0.00000    5
    7      0.835D-04      0.161D-04      -152.93683953    383.463660    0.03917    0.08292    0.00000    6
    8      0.212D-04      0.516D-05      -152.93683985    383.462220    0.03858    0.08172    0.00000    7
    9      0.640D-05      0.122D-05      -152.93683987    383.462158    0.03869    0.08196    0.00000    7
   10      0.324D-05      0.441D-06      -152.93683987    383.462176    0.03867    0.08191    0.00000    7

 Final alpha occupancy:  17
 Final beta  occupancy:  16

 !UKS STATE 1.1 Energy               -152.936839868779
 Nuclear energy                       124.92676597
 One-electron energy                 -455.93882918
 Two-electron energy                  191.73108777
 Density functional                   -13.65586444     M06X=-16.96213057 M06C= -1.27350912
 Virial quotient                       -0.99483367
 !UKS STATE 1.1 Dipole moment           0.03866790     0.08190515     0.00000000
 Dipole moment /Debye                   0.09827757     0.20816849     0.00000000

 Orbital energies for positive spin:

         1.1          2.1          3.1          4.1          5.1          6.1          7.1          8.1          9.1         10.1
     -9.905693    -9.903624    -9.903231    -9.903161    -0.736725    -0.626434    -0.626227    -0.473086    -0.394562    -0.390597

        11.1         12.1         13.1         14.1         15.1         16.1         17.1         18.1         19.1
     -0.390479    -0.333109    -0.332994    -0.312412    -0.293759    -0.293727    -0.114799     0.087781     0.138012

 Orbital energies for negative spin:

         1.1          2.1          3.1          4.1          5.1          6.1          7.1          8.1          9.1         10.1
     -9.903970    -9.903591    -9.903536    -9.898461    -0.724464    -0.624388    -0.624097    -0.460000    -0.386186    -0.386116

        11.1         12.1         13.1         14.1         15.1         16.1         17.1         18.1         19.1
     -0.377634    -0.327731    -0.327537    -0.311225    -0.290990    -0.290843     0.014202     0.085147     0.136479

 HOMO     17.1    -0.114799 =      -3.1238eV
 LUMO    -17.1     0.014202 =       0.3864eV
 LUMO-HOMO         0.129001 =       3.5103eV

 EXPECTATION VALUE OF S**2:             0.75252456

 Occupation number threshold for canonical orbitals:  1.999000 (occupied),  0.001000 (virtual)

 Number of pseudo-canonical orbitals per symmetry:   16
 Number of active natural orbitals per symmetry:      1

 Natural orbitals saved to record    2200.2 (Orbital set 3)

 Orbital spaces for UNO-CAS (Min. occupation: 0.020  Max. occupation: 1.980):

 Closed:       16
 Active:        1


 **********************************************************************************************************************************
 DATASETS  * FILE   NREC   LENGTH (MB)   RECORD NAMES
              1      20       78.61       500      610      700      900      950      970     1000      129      960     1100   
                                          VAR    BASINP    GEOM    SYMINP    ZMAT    AOBASIS   BASIS     P2S    ABASIS      S 
                                         1400     1410     1200     1210     1080     1600     1650     1300     1700     1800   
                                           T        V       H0       H01     AOSYM     SMH    MOLCAS    ERIS     OPER     GRID   

              2       5        3.39       700     1000      520     1800     2200   
                                         GEOM     BASIS   MCVARS    GRID      UKS  

 PROGRAMS   *        TOTAL       UKS       INT
 CPU TIMES  *        63.89     61.55      2.20
 REAL TIME  *        64.92 SEC
 DISK USED  *       231.35 MB      
 **********************************************************************************************************************************


 PROGRAM * Intrinsic Basis Bonding Analysis (IBBA)          Author: G. Knizia

 Molecular orbitals read from record     2200.2  Type=UKS/ALPHA (state 1.1)
 Fock matrix read from record            2200.2  Type=UKS/TOTAL (state 1.1)
 Orbital energies read from record       2200.2  Type=UKS/ALPHA (state 1.1)
 Density matrix read from record         2200.2  Type=UKS/CHARGE (state 1.1)

 Number of core orbitals:           4 (   4 )
 Number of closed-shell orbitals:  12 (  12 )
 Number of active  orbitals:        1 (   1 )

 Basis set MINAO-AUTO-PP generated.      Number of basis functions:   29 

 Polarized AO type:                A = (O Ot + (1-O)(1-Ot)) P12
 Orthogonalization method:         Symmetric (Loewdin)
 Localization functional:          L = sum[A,i] <i|n_A|i>^4 -> max

 Localization group 1:  16 orbitals, occupancy  2.000
 Iterative localization: IB/PM,    8 iter; Final gradient 0.17E-08

 Bond order analysis:       [THRPRINT= 0.020]

   CEN ATOM   CEN ATOM     WIBERG.BO      RENORM.BO
     1   H  -   2   C       0.882721       0.995931
     1   H  -   3   C       0.053257       0.169461

     2   C  -   3   C       1.129613       1.306160
     2   C  -   6   H       0.948733       0.985545
     2   C  -   7   H       0.948733       0.985545
     2   C  -   1   H       0.882721       0.995931

     3   C  -   5   C       1.129671       1.306315
     3   C  -   4   C       1.129671       1.306315
     3   C  -   2   C       1.129613       1.306160
     3   C  -  11   H       0.053310       0.169666
     3   C  -   8   H       0.053310       0.169666
     3   C  -   1   H       0.053257       0.169461

     4   C  -   3   C       1.129671       1.306315
     4   C  -   9   H       0.948768       0.985518
     4   C  -  10   H       0.948737       0.985575
     4   C  -   8   H       0.882615       0.995939

     5   C  -   3   C       1.129671       1.306315
     5   C  -  12   H       0.948768       0.985518
     5   C  -  13   H       0.948737       0.985575
     5   C  -  11   H       0.882615       0.995939

     6   H  -   2   C       0.948733       0.985545

     7   H  -   2   C       0.948733       0.985545

     8   H  -   4   C       0.882615       0.995939
     8   H  -   3   C       0.053310       0.169666

     9   H  -   4   C       0.948768       0.985518

    10   H  -   4   C       0.948737       0.985575

    11   H  -   5   C       0.882615       0.995939
    11   H  -   3   C       0.053310       0.169666

    12   H  -   5   C       0.948768       0.985518

    13   H  -   5   C       0.948737       0.985575


 Valency analysis:

   CEN ATOM   TOT.VALENCE
     1   H       0.966332
     2   C       3.954888
     3   C       3.615158
     4   C       3.954900
     5   C       3.954900
     6   H       0.983208
     7   H       0.983208
     8   H       0.966288
     9   H       0.983268
    10   H       0.983185
    11   H       0.966288
    12   H       0.983268
    13   H       0.983185
 Localization group 2:   1 orbitals, occupancy  1.000
 Iterative localization: IB/PM,    1 iter; Final gradient 0.00E+00

 Bond order analysis:       [THRPRINT= 0.020]

   CEN ATOM   CEN ATOM     WIBERG.BO      RENORM.BO
     1   H  -   3   C       0.095310       0.500000


     3   C  -  11   H       0.095343       0.500000
     3   C  -   8   H       0.095343       0.500000
     3   C  -   1   H       0.095310       0.500000





     8   H  -   3   C       0.095343       0.500000



    11   H  -   3   C       0.095343       0.500000




 Valency analysis:

   CEN ATOM   TOT.VALENCE
     1   H       0.125695
     2   C       0.011686
     3   C       0.414168
     4   C       0.011727
     5   C       0.011727
     6   H       0.024035
     7   H       0.024035
     8   H       0.125736
     9   H       0.024036
    10   H       0.023994
    11   H       0.125736
    12   H       0.024036
    13   H       0.023994

 Total charge composition:

   CEN ATOM         s          p       ELECTRONS ->P.CHARGE
     1   H       0.88390                 0.88390    0.11610
     2   C       2.97959    3.33873      6.31831   -0.31831
     3   C       2.97138    3.12660      6.09798   -0.09798
     4   C       2.97949    3.33874      6.31823   -0.31823
     5   C       2.97949    3.33874      6.31823   -0.31823
     6   H       0.88258                 0.88258    0.11742
     7   H       0.88258                 0.88258    0.11742
     8   H       0.88381                 0.88381    0.11619
     9   H       0.88281                 0.88281    0.11719
    10   H       0.88247                 0.88247    0.11753
    11   H       0.88381                 0.88381    0.11619
    12   H       0.88281                 0.88281    0.11719
    13   H       0.88247                 0.88247    0.11753

 Total charge composition, AO contributions:

   CEN ATOM SHL      SPHERICAL COMPONENTS
     1   H  1s       0.88390

     2   C  1s       1.99242
     2   C  2s       0.98716
     2   C  2p       1.08336    1.10393    1.15144

     3   C  1s       1.99379
     3   C  2s       0.97760
     3   C  2p       1.03441    1.06842    1.02377

     4   C  1s       1.99243
     4   C  2s       0.98706
     4   C  2p       1.12370    1.13068    1.08436

     5   C  1s       1.99243
     5   C  2s       0.98706
     5   C  2p       1.12370    1.13068    1.08436

     6   H  1s       0.88258

     7   H  1s       0.88258

     8   H  1s       0.88381

     9   H  1s       0.88281

    10   H  1s       0.88247

    11   H  1s       0.88381

    12   H  1s       0.88281

    13   H  1s       0.88247

 Active orbital charges:

   CEN ATOM         s          p       ELECTRONS ->SPIN.DEN
     1   H       0.06739                 0.06739    0.06739
     2   C       0.00024    0.00564      0.00588    0.00588
     3   C       0.01041    0.69676      0.70716    0.70716
     4   C       0.00024    0.00566      0.00590    0.00590
     5   C       0.00024    0.00566      0.00590    0.00590
     6   H       0.01217                 0.01217    0.01217
     7   H       0.01217                 0.01217    0.01217
     8   H       0.06741                 0.06741    0.06741
     9   H       0.01217                 0.01217    0.01217
    10   H       0.01214                 0.01214    0.01214
    11   H       0.06741                 0.06741    0.06741
    12   H       0.01217                 0.01217    0.01217
    13   H       0.01214                 0.01214    0.01214

 Active orbital charges, AO contributions:

   CEN ATOM SHL      SPHERICAL COMPONENTS
     1   H  1s       0.06739

     2   C  1s       0.00000
     2   C  2s       0.00024
     2   C  2p       0.00016    0.00548    0.00000

     3   C  1s       0.00001
     3   C  2s       0.01039
     3   C  2p       0.13668    0.56007    0.00000

     4   C  1s       0.00000
     4   C  2s       0.00024
     4   C  2p       0.00173    0.00359    0.00035

     5   C  1s       0.00000
     5   C  2s       0.00024
     5   C  2p       0.00173    0.00359    0.00035

     6   H  1s       0.01217

     7   H  1s       0.01217

     8   H  1s       0.06741

     9   H  1s       0.01217

    10   H  1s       0.01214

    11   H  1s       0.06741

    12   H  1s       0.01217

    13   H  1s       0.01214

 Summary of localized orbital composition:   [THRPRINT= 0.020]

   ORB  GRP  ORB.ENERGY      CENTERS/CHARGES
     1   1    -9.809951      C  3   2.000
     2   1    -9.795987      C  2   2.000
     3   1    -9.795592      C  4   2.000
     4   1    -9.795592      C  5   2.000
     5   1    -0.539498      C  3   0.994   C  2   0.992
     6   1    -0.539319      C  3   0.994   C  4   0.992
     7   1    -0.539319      C  3   0.994   C  5   0.992
     8   1    -0.443960      C  2   1.092   H  1   0.808   C  3   0.093
     9   1    -0.443743      C  4   1.092   H  8   0.808   C  3   0.093
    10   1    -0.443743      C  5   1.092   H 11   0.808   C  3   0.093
    11   1    -0.438556      C  2   1.109   H  7   0.862   C  3   0.022
    12   1    -0.438556      C  2   1.109   H  6   0.862   C  3   0.022
    13   1    -0.438221      C  5   1.110   H 13   0.862   C  3   0.022
    14   1    -0.438221      C  4   1.110   H 10   0.862   C  3   0.022
    15   1    -0.438133      C  5   1.109   H 12   0.863   C  3   0.022
    16   1    -0.438133      C  4   1.109   H  9   0.863   C  3   0.022
    17   2    -0.047959      C  3   0.707   H 11   0.067   H  8   0.067   H  1   0.067   (other: 0.091)

 Localized orbitals saved to record      2200.2  (orbital set 4)


 **********************************************************************************************************************************
 DATASETS  * FILE   NREC   LENGTH (MB)   RECORD NAMES
              1      20       78.61       500      610      700      900      950      970     1000      129      960     1100   
                                          VAR    BASINP    GEOM    SYMINP    ZMAT    AOBASIS   BASIS     P2S    ABASIS      S 
                                         1400     1410     1200     1210     1080     1600     1650     1300     1700     1800   
                                           T        V       H0       H01     AOSYM     SMH    MOLCAS    ERIS     OPER     GRID   

              2       5        3.47       700     1000      520     1800     2200   
                                         GEOM     BASIS   MCVARS    GRID      UKS  

 PROGRAMS   *        TOTAL      IBBA       UKS       INT
 CPU TIMES  *        63.93      0.04     61.55      2.20
 REAL TIME  *        65.05 SEC
 DISK USED  *       231.35 MB      
 **********************************************************************************************************************************
 Molecular orbitals read from record     2200.2  Type=UKS/LOCAL(IBO)  
 Occupation numbers read from record     2200.2  Type=UKS/LOCAL(IBO)  
 Orbital energies read from record       2200.2  Type=UKS/LOCAL(IBO)  
 Redundancy group numbers read from rec  2200.2  Type=UKS/BETA (state 1.1)

 IBBA/SVP energy=      0.000000000000

        UKS-SCF 
   -152.93683987
 **********************************************************************************************************************************
 Molpro calculation terminated
