
 Primary working directories    : /tmp/sb13343
 Secondary working directories  : /tmp/sb13343
 Wavefunction directory         : /panfs/panasas01/chem/sb13343/wfu/
 Main file repository           : /tmp/sb13343/

 SHA1      : b4a5b34a9e711420743f49e6833241d17c61fb3c
 NAME      : 2099.9.b4a5b34
 ARCHNAME  : linux/x86_64_openmp
 FC        : /cm/shared/languages/GCC-6.1/bin/gfortran
 BLASLIB   : -lblas
 id        : simonbennie

 Nodes     nprocs
 node32-036    1

 Using customized tuning parameters: mindgm=1; mindgv=20; mindgc=4; mindgr=1; noblas=0; minvec=7
 default implementation of scratch files=df  

 memory,500,m
 geomtyp=xyz
 nosym
 noorient
 geometry={
 H         -1.13405        1.76167        0.00000
 C         -1.32915        0.67205        0.00000
 C         -0.06360       -0.12883        0.00000
 C          0.67426       -0.31636        1.28970
 C          0.67426       -0.31636       -1.28970
 H         -1.94006        0.46750        0.88859
 H         -1.94006        0.46750       -0.88859
 H          1.28359        0.56876        1.55544
 H         -0.01165       -0.48291        2.13019
 H          1.36783       -1.16569        1.24157
 H          1.28359        0.56876       -1.55544
 H         -0.01165       -0.48291       -2.13019
 H          1.36783       -1.16569       -1.24157
 }
 basis={ default,sto-3g }
 {uks,MM06-2X,direct;wf,33,1,1}
 {ibba,bonds=1}

 Variables initialized (895), CPU time= 0.00 sec
 Commands  initialized (725), CPU time= 0.02 sec, 591 directives.
 Default parameters read. Elapsed time= 0.08 sec

 Checking input...
 Passed
1


                                         ***  PROGRAM SYSTEM MOLPRO  ***
                                       Copyright, TTI GmbH Stuttgart, 2015
                                    Version 2099.9 linked May 26 2017 16:03:21


 **********************************************************************************************************************************
 LABEL *                                                                                 
  64 bit serial version                                                                  DATE: 08-Jun-17          TIME: 20:23:53  
 **********************************************************************************************************************************

 SHA1:             b4a5b34a9e711420743f49e6833241d17c61fb3c
 **********************************************************************************************************************************
 SETTING GEOMTYP        =    XYZ

 Variable memory set to  500000000 words,  buffer space 

 ZSYMEL=NOSYM

 SETTING BASIS          =    STO-3G


 Recomputing integrals since basis changed


 Using spherical harmonics

 Library entry H      S STO-3G               selected for orbital group  1
 Library entry C      S STO-3G               selected for orbital group  2
 Library entry C      P STO-3G               selected for orbital group  2


 PROGRAM * SEWARD (Integral evaluation for generally contracted gaussian basis sets)     Author: Roland Lindh, 1990

 Geometry written to block  1 of record 700


 Point group  C1  



 ATOMIC COORDINATES

 NR  ATOM    CHARGE       X              Y              Z

   1  H       1.00   -2.143043912    3.329073822    0.000000000
   2  C       6.00   -2.511729478    1.269990442    0.000000000
   3  C       6.00   -0.120186582   -0.243453417    0.000000000
   4  C       6.00    1.274166737   -0.597833757    2.437179783
   5  C       6.00    1.274166737   -0.597833757   -2.437179783
   6  H       1.00   -3.666182065    0.883446963    1.679191737
   7  H       1.00   -3.666182065    0.883446963   -1.679191737
   8  H       1.00    2.425633556    1.074800631    2.939355603
   9  H       1.00   -0.022015309   -0.912567643    4.025475693
  10  H       1.00    2.584824085   -2.202834846    2.346227264
  11  H       1.00    2.425633556    1.074800631   -2.939355603
  12  H       1.00   -0.022015309   -0.912567643   -4.025475693
  13  H       1.00    2.584824085   -2.202834846   -2.346227264

 Bond lengths in Bohr (Angstrom)

 1-2  2.091830159  2-3  2.830192527  2-6  2.074092940  2-7  2.074092940  3-4  2.830132841
     ( 1.106948849)     ( 1.497673388)     ( 1.097562717)     ( 1.097562717)     ( 1.497641803)

  3- 5  2.830132841   4- 8  2.091832255   4- 9  2.074085151   4-10  2.074156104   5-11  2.091832255
       ( 1.497641803)       ( 1.106949959)       ( 1.097558596)       ( 1.097596142)       ( 1.106949959)

  5-12  2.074085151   5-13  2.074156104
       ( 1.097558596)       ( 1.097596142)

 Bond angles

  1-2-3  112.17549786   1-2-6  106.35284965   1-2-7  106.35284965   2-3-4  118.89987932

  2-3-5  118.89987932   3-2-6  111.75744418   3-2-7  111.75744418   3-4-8  112.19808176

  3- 4- 9  111.75014522   3- 4-10  111.74379558   3- 5-11  112.19808176   3- 5-12  111.75014522

  3- 5-13  111.74379558   4- 3- 5  118.89276928   6- 2- 7  108.11431090   8- 4- 9  106.34995457

  8- 4-10  106.34572146   9- 4-10  108.12296896  11- 5-12  106.34995457  11- 5-13  106.34572146

 12- 5-13  108.12296896

 NUCLEAR CHARGE:                   33
 NUMBER OF PRIMITIVE AOS:          87
 NUMBER OF SYMMETRY AOS:           87
 NUMBER OF CONTRACTIONS:           29   (  29A   )
 NUMBER OF CORE ORBITALS:           4   (   4A   )
 NUMBER OF VALENCE ORBITALS:       25   (  25A   )


 NUCLEAR REPULSION ENERGY  124.92676597


 Eigenvalues of metric

         1 0.210E+00 0.225E+00 0.225E+00 0.315E+00 0.353E+00 0.353E+00 0.362E+00 0.372E+00


 Contracted 2-electron integrals neglected if value below      1.0D-11
 AO integral compression algorithm  1   Integral accuracy      1.0D-11

     0.786 MB (compressed) written to integral file (100.0%)


 NUMBER OF SORTED TWO-ELECTRON INTEGRALS:      94830.     BUFFER LENGTH:  32768
 NUMBER OF SEGMENTS:   1  SEGMENT LENGTH:      94830      RECORD LENGTH: 524288

 Memory used in sort:       0.65 MW

 SORT1 READ      108770. AND WROTE       91348. INTEGRALS IN      1 RECORDS. CPU TIME:     0.00 SEC, REAL TIME:     0.01 SEC
 SORT2 READ       91348. AND WROTE       94830. INTEGRALS IN      3 RECORDS. CPU TIME:     0.02 SEC, REAL TIME:     0.01 SEC

 FILE SIZES:   FILE 1:    31.0 MBYTE,  FILE 4:     4.2 MBYTE,   TOTAL:     35.2 MBYTE

 OPERATOR DM      FOR CENTER  0  COORDINATES:    0.000000    0.000000    0.000000


 **********************************************************************************************************************************
 DATASETS  * FILE   NREC   LENGTH (MB)   RECORD NAMES
              1      19       30.62       500      610      700      900      950      970     1000      129      960     1100   
                                          VAR    BASINP    GEOM    SYMINP    ZMAT    AOBASIS   BASIS     P2S    ABASIS      S 
                                         1400     1410     1200     1210     1080     1600     1650     1300     1700   
                                           T        V       H0       H01     AOSYM     SMH    MOLCAS    ERIS     OPER   

 PROGRAMS   *        TOTAL       INT
 CPU TIMES  *         0.46      0.32
 REAL TIME  *         1.71 SEC
 DISK USED  *        35.68 MB      
 **********************************************************************************************************************************

 Density functional group MM06-2X=M062XX+M062XC
 Functional: M062XX(Automatically generated (new) M062XX)                      Gradient terms: 2
 Functional: M062XC(Automatically generated (new) M062XC)                      Gradient terms: 2
 Use grid at  1800.2


 Exact exchange will be calculated, factor:  0.5400

 Functional: M062XX                    Factor:  0.4600
 Functional: M062XC                    Factor:  1.0000

 Generated new metagrid on record  1800.2 with target accuracy 1.0D-06 and 45406 points in CPU time    1.3
 Computed new grid on record 1800.1 in CPU time    1.4
   49557 words reserved for DFT integration

 PROGRAM * UKS-SCF (Unrestricted Kohn-Sham)     Authors: W. Meyer, H.-J. Werner, P.J. Knowles, 1993

 NUMBER OF ELECTRONS:      17+   16-    SPACE SYMMETRY=1    SPIN SYMMETRY: Doublet 
 CONVERGENCE THRESHOLDS:    1.00E-05 (Density)    1.00E-06 (Energy)
 MAX. NUMBER OF ITERATIONS:       60
 INTERPOLATION TYPE:            DIIS
 INTERPOLATION STEPS:              2 (START)      1 (STEP)
 LEVEL SHIFTS:                 -0.20 (ALPHA)  -0.20 (BETA) 



 Use fine grid record 1800.2 for energy threshold  1.0D-06
 Orbital guess generated from atomic densities. Full valence occupancy:   17

 Molecular orbital dump at record        2200.2

 Initial alpha occupation  17
 Initial beta  occupation  16

 ITERATION    DDIFF          GRAD             ENERGY        2-EL.EN.            DIPOLE MOMENTS         DIIS
    1      0.000D+00      0.000D+00      -149.78980033    382.777813    0.17213    0.34822   -0.00000    0
    2      0.399D-01      0.168D-01      -149.95458317    374.110032    0.04964    0.09960   -0.00000    1
    3      0.243D-02      0.219D-02      -149.95762881    374.171203    0.04037    0.08103   -0.00000    2
    4      0.218D-02      0.117D-02      -149.95908891    374.127494    0.03423    0.06876   -0.00000    3
    5      0.785D-03      0.413D-03      -149.95927298    374.120391    0.03179    0.06394   -0.00000    4
    6      0.249D-03      0.998D-04      -149.95928503    374.114754    0.03122    0.06286   -0.00000    5
    7      0.434D-04      0.187D-04      -149.95928548    374.115868    0.03112    0.06269   -0.00000    6
    8      0.123D-04      0.564D-05      -149.95928553    374.115703    0.03110    0.06266   -0.00000    6
    9      0.223D-05      0.913D-06      -149.95928553    374.115823    0.03110    0.06266   -0.00000    6
   10      0.599D-06      0.205D-06      -149.95928553    374.115791    0.03110    0.06265   -0.00000    6

 Final alpha occupancy:  17
 Final beta  occupancy:  16

 !UKS STATE 1.1 Energy               -149.959285531009
 Nuclear energy                       124.92676597
 One-electron energy                 -455.78238788
 Two-electron energy                  187.05789540
 Density functional                    -6.16155902     M062XX=-10.96028881 M062XC= -1.11982617
 Virial quotient                       -0.98087661
 !UKS STATE 1.1 Dipole moment           0.03109979     0.06265456    -0.00000000
 Dipole moment /Debye                   0.07904262     0.15924159    -0.00000000

 Orbital energies for positive spin:

         1.1          2.1          3.1          4.1          5.1          6.1          7.1          8.1          9.1         10.1
     -9.899965    -9.899949    -9.899897    -9.861930    -0.750512    -0.634477    -0.634465    -0.463510    -0.375157    -0.366535

        11.1         12.1         13.1         14.1         15.1         16.1         17.1         18.1         19.1
     -0.366466    -0.308525    -0.308433    -0.287283    -0.247492    -0.247381    -0.040383     0.585477     0.585653

 Orbital energies for negative spin:

         1.1          2.1          3.1          4.1          5.1          6.1          7.1          8.1          9.1         10.1
     -9.900370    -9.900352    -9.900300    -9.856517    -0.732714    -0.631824    -0.631798    -0.442348    -0.361197    -0.361169

        11.1         12.1         13.1         14.1         15.1         16.1         17.1         18.1         19.1
     -0.351502    -0.302266    -0.302150    -0.286158    -0.240563    -0.240474     0.235669     0.593329     0.593385

 HOMO     17.1    -0.040383 =      -1.0989eV
 LUMO    -17.1     0.235669 =       6.4129eV
 LUMO-HOMO         0.276052 =       7.5118eV

 EXPECTATION VALUE OF S**2:             0.75277263

 Occupation number threshold for canonical orbitals:  1.999000 (occupied),  0.001000 (virtual)

 Number of pseudo-canonical orbitals per symmetry:   16
 Number of active natural orbitals per symmetry:      1

 Natural orbitals saved to record    2200.2 (Orbital set 3)

 Orbital spaces for UNO-CAS (Min. occupation: 0.020  Max. occupation: 1.980):

 Closed:       16
 Active:        1


 **********************************************************************************************************************************
 DATASETS  * FILE   NREC   LENGTH (MB)   RECORD NAMES
              1      20       32.07       500      610      700      900      950      970     1000      129      960     1100   
                                          VAR    BASINP    GEOM    SYMINP    ZMAT    AOBASIS   BASIS     P2S    ABASIS      S 
                                         1400     1410     1200     1210     1080     1600     1650     1300     1700     1800   
                                           T        V       H0       H01     AOSYM     SMH    MOLCAS    ERIS     OPER     GRID   

              2       5        3.00       700     1000      520     1800     2200   
                                         GEOM     BASIS   MCVARS    GRID      UKS  

 PROGRAMS   *        TOTAL       UKS       INT
 CPU TIMES  *        11.12     10.66      0.32
 REAL TIME  *        12.78 SEC
 DISK USED  *        35.68 MB      
 **********************************************************************************************************************************


 PROGRAM * Intrinsic Basis Bonding Analysis (IBBA)          Author: G. Knizia

 Molecular orbitals read from record     2200.2  Type=UKS/ALPHA (state 1.1)
 Fock matrix read from record            2200.2  Type=UKS/TOTAL (state 1.1)
 Orbital energies read from record       2200.2  Type=UKS/ALPHA (state 1.1)
 Density matrix read from record         2200.2  Type=UKS/CHARGE (state 1.1)

 Number of core orbitals:           4 (   4 )
 Number of closed-shell orbitals:  12 (  12 )
 Number of active  orbitals:        1 (   1 )

 Basis set MINAO-AUTO-PP generated.      Number of basis functions:   29 

 Polarized AO type:                A = (O Ot + (1-O)(1-Ot)) P12
 Orthogonalization method:         Symmetric (Loewdin)
 Localization functional:          L = sum[A,i] <i|n_A|i>^4 -> max

 Localization group 1:  16 orbitals, occupancy  2.000
 Iterative localization: IB/PM,    7 iter; Final gradient 0.27E-08

 Bond order analysis:       [THRPRINT= 0.020]

   CEN ATOM   CEN ATOM     WIBERG.BO      RENORM.BO
     1   H  -   2   C       0.891726       0.996505
     1   H  -   3   C       0.052054       0.175738

     2   C  -   3   C       1.118498       1.309602
     2   C  -   7   H       0.955066       0.989997
     2   C  -   6   H       0.955066       0.989997
     2   C  -   1   H       0.891726       0.996505

     3   C  -   5   C       1.118646       1.309980
     3   C  -   4   C       1.118646       1.309980
     3   C  -   2   C       1.118498       1.309602
     3   C  -   8   H       0.052070       0.175794
     3   C  -  11   H       0.052070       0.175794
     3   C  -   1   H       0.052054       0.175738

     4   C  -   3   C       1.118646       1.309980
     4   C  -   9   H       0.955084       0.989995
     4   C  -  10   H       0.954900       0.990017
     4   C  -   8   H       0.891676       0.996495

     5   C  -   3   C       1.118646       1.309980
     5   C  -  12   H       0.955084       0.989995
     5   C  -  13   H       0.954900       0.990017
     5   C  -  11   H       0.891676       0.996495

     6   H  -   2   C       0.955066       0.989997

     7   H  -   2   C       0.955066       0.989997

     8   H  -   4   C       0.891676       0.996495
     8   H  -   3   C       0.052070       0.175794

     9   H  -   4   C       0.955084       0.989995

    10   H  -   4   C       0.954900       0.990017

    11   H  -   5   C       0.891676       0.996495
    11   H  -   3   C       0.052070       0.175794

    12   H  -   5   C       0.955084       0.989995

    13   H  -   5   C       0.954900       0.990017


 Valency analysis:

   CEN ATOM   TOT.VALENCE
     1   H       0.972744
     2   C       3.954292
     3   C       3.575950
     4   C       3.954251
     5   C       3.954251
     6   H       0.985255
     7   H       0.985255
     8   H       0.972744
     9   H       0.985240
    10   H       0.985193
    11   H       0.972744
    12   H       0.985240
    13   H       0.985193
 Localization group 2:   1 orbitals, occupancy  1.000
 Iterative localization: IB/PM,    1 iter; Final gradient 0.00E+00

 Bond order analysis:       [THRPRINT= 0.020]

   CEN ATOM   CEN ATOM     WIBERG.BO      RENORM.BO
     1   H  -   3   C       0.076890       0.500000


     3   C  -  11   H       0.077002       0.500000
     3   C  -   8   H       0.077002       0.500000
     3   C  -   1   H       0.076890       0.500000





     8   H  -   3   C       0.077002       0.500000



    11   H  -   3   C       0.077002       0.500000




 Valency analysis:

   CEN ATOM   TOT.VALENCE
     1   H       0.096854
     2   C       0.021441
     3   C       0.371611
     4   C       0.021417
     5   C       0.021417
     6   H       0.020064
     7   H       0.020064
     8   H       0.096987
     9   H       0.019996
    10   H       0.020223
    11   H       0.096987
    12   H       0.019996
    13   H       0.020223

 Total charge composition:

   CEN ATOM         s          p       ELECTRONS ->P.CHARGE
     1   H       0.88594                 0.88594    0.11406
     2   C       2.95424    3.33624      6.29048   -0.29048
     3   C       2.99202    3.14642      6.13844   -0.13844
     4   C       2.95429    3.33642      6.29071   -0.29071
     5   C       2.95429    3.33642      6.29071   -0.29071
     6   H       0.88871                 0.88871    0.11129
     7   H       0.88871                 0.88871    0.11129
     8   H       0.88601                 0.88601    0.11399
     9   H       0.88861                 0.88861    0.11139
    10   H       0.88853                 0.88853    0.11147
    11   H       0.88601                 0.88601    0.11399
    12   H       0.88861                 0.88861    0.11139
    13   H       0.88853                 0.88853    0.11147

 Total charge composition, AO contributions:

   CEN ATOM SHL      SPHERICAL COMPONENTS
     1   H  1s       0.88594

     2   C  1s       1.99289
     2   C  2s       0.96135
     2   C  2p       1.08310    1.10130    1.15185

     3   C  1s       1.99400
     3   C  2s       0.99802
     3   C  2p       1.03980    1.08006    1.02656

     4   C  1s       1.99289
     4   C  2s       0.96140
     4   C  2p       1.12245    1.13178    1.08218

     5   C  1s       1.99289
     5   C  2s       0.96140
     5   C  2p       1.12245    1.13178    1.08218

     6   H  1s       0.88871

     7   H  1s       0.88871

     8   H  1s       0.88601

     9   H  1s       0.88861

    10   H  1s       0.88853

    11   H  1s       0.88601

    12   H  1s       0.88861

    13   H  1s       0.88853

 Active orbital charges:

   CEN ATOM         s          p       ELECTRONS ->SPIN.DEN
     1   H       0.05103                 0.05103    0.05103
     2   C       0.00016    0.01068      0.01084    0.01084
     3   C       0.01061    0.74276      0.75337    0.75337
     4   C       0.00016    0.01066      0.01083    0.01083
     5   C       0.00016    0.01066      0.01083    0.01083
     6   H       0.01013                 0.01013    0.01013
     7   H       0.01013                 0.01013    0.01013
     8   H       0.05111                 0.05111    0.05111
     9   H       0.01010                 0.01010    0.01010
    10   H       0.01022                 0.01022    0.01022
    11   H       0.05111                 0.05111    0.05111
    12   H       0.01010                 0.01010    0.01010
    13   H       0.01022                 0.01022    0.01022

 Active orbital charges, AO contributions:

   CEN ATOM SHL      SPHERICAL COMPONENTS
     1   H  1s       0.05103

     2   C  1s       0.00000
     2   C  2s       0.00016
     2   C  2p       0.00039    0.01029    0.00000

     3   C  1s       0.00002
     3   C  2s       0.01059
     3   C  2p       0.14520    0.59756    0.00000

     4   C  1s       0.00000
     4   C  2s       0.00016
     4   C  2p       0.00316    0.00695    0.00055

     5   C  1s       0.00000
     5   C  2s       0.00016
     5   C  2p       0.00316    0.00695    0.00055

     6   H  1s       0.01013

     7   H  1s       0.01013

     8   H  1s       0.05111

     9   H  1s       0.01010

    10   H  1s       0.01022

    11   H  1s       0.05111

    12   H  1s       0.01010

    13   H  1s       0.01022

 Summary of localized orbital composition:   [THRPRINT= 0.020]

   ORB  GRP  ORB.ENERGY      CENTERS/CHARGES
     1   1    -9.790616      C  4   2.000
     2   1    -9.790616      C  5   2.000
     3   1    -9.790570      C  2   2.000
     4   1    -9.760667      C  3   2.000
     5   1    -0.504296      C  3   1.004   C  5   0.983
     6   1    -0.504296      C  3   1.004   C  4   0.983
     7   1    -0.504137      C  3   1.004   C  2   0.983
     8   1    -0.430361      C  2   1.079   H  1   0.827   C  3   0.086
     9   1    -0.430257      C  4   1.079   H  8   0.827   C  3   0.086
    10   1    -0.430257      C  5   1.079   H 11   0.827   C  3   0.086
    11   1    -0.425534      C  5   1.104   H 12   0.872   (other: 0.024)
    12   1    -0.425534      C  4   1.104   H  9   0.872   (other: 0.024)
    13   1    -0.425532      C  4   1.105   H 10   0.871   (other: 0.024)
    14   1    -0.425532      C  5   1.105   H 13   0.871   (other: 0.024)
    15   1    -0.425479      C  2   1.104   H  7   0.872   (other: 0.024)
    16   1    -0.425479      C  2   1.104   H  6   0.872   (other: 0.024)
    17   2     0.093423      C  3   0.753   H 11   0.051   H  8   0.051   H  1   0.051   (other: 0.093)

 Localized orbitals saved to record      2200.2  (orbital set 4)


 **********************************************************************************************************************************
 DATASETS  * FILE   NREC   LENGTH (MB)   RECORD NAMES
              1      20       32.07       500      610      700      900      950      970     1000      129      960     1100   
                                          VAR    BASINP    GEOM    SYMINP    ZMAT    AOBASIS   BASIS     P2S    ABASIS      S 
                                         1400     1410     1200     1210     1080     1600     1650     1300     1700     1800   
                                           T        V       H0       H01     AOSYM     SMH    MOLCAS    ERIS     OPER     GRID   

              2       5        3.01       700     1000      520     1800     2200   
                                         GEOM     BASIS   MCVARS    GRID      UKS  

 PROGRAMS   *        TOTAL      IBBA       UKS       INT
 CPU TIMES  *        11.15      0.03     10.66      0.32
 REAL TIME  *        12.88 SEC
 DISK USED  *        35.68 MB      
 **********************************************************************************************************************************
 Molecular orbitals read from record     2200.2  Type=UKS/LOCAL(IBO)  
 Occupation numbers read from record     2200.2  Type=UKS/LOCAL(IBO)  
 Orbital energies read from record       2200.2  Type=UKS/LOCAL(IBO)  
 Redundancy group numbers read from rec  2200.2  Type=UKS/BETA (state 1.1)

 IBBA/STO-3G energy=      0.000000000000

        UKS-SCF 
   -149.95928553
 **********************************************************************************************************************************
 Molpro calculation terminated
