
 Primary working directories    : /tmp/sb13343
 Secondary working directories  : /tmp/sb13343
 Wavefunction directory         : /panfs/panasas01/chem/sb13343/wfu/
 Main file repository           : /tmp/sb13343/

 SHA1      : b4a5b34a9e711420743f49e6833241d17c61fb3c
 NAME      : 2099.9.b4a5b34
 ARCHNAME  : linux/x86_64_openmp
 FC        : /cm/shared/languages/GCC-6.1/bin/gfortran
 BLASLIB   : -lblas
 id        : simonbennie

 Nodes     nprocs
 node33-025    1

 Using customized tuning parameters: mindgm=1; mindgv=20; mindgc=4; mindgr=1; noblas=0; minvec=7
 default implementation of scratch files=df  

 memory,500,m
 geomtyp=xyz
 nosym
 noorient
 geometry={
 C          0.00000        0.00000        0.00000
 C          1.54025       -0.00009       -0.00004
 C         -0.51333        1.45219       -0.00005
 C         -0.51349       -0.72611       -1.25756
 C         -0.51342       -0.72599        1.25765
 H         -1.60999        1.48489       -0.00002
 H         -1.61015       -0.74237       -1.28580
 H         -1.61008       -0.74225        1.28596
 H         -0.16312        1.99638        0.88591
 H         -0.16316        1.99630       -0.88608
 H         -0.16333       -0.23096       -2.17186
 H         -0.16339       -1.76551       -1.28580
 H         -0.16332       -1.76539        1.28596
 H         -0.16320       -0.23077        2.17189
 H          1.93652       -1.02316       -0.00001
 H          1.93658        0.51138       -0.88607
 H          1.93663        0.51146        0.88592
 }
 basis={ default,svp }
 {uks,SOGGA11,direct;wf,42,1,0}
 {ibba,bonds=1}

 Variables initialized (895), CPU time= 0.00 sec
 Commands  initialized (725), CPU time= 0.01 sec, 591 directives.
 Default parameters read. Elapsed time= 0.08 sec

 Checking input...
 Passed
1


                                         ***  PROGRAM SYSTEM MOLPRO  ***
                                       Copyright, TTI GmbH Stuttgart, 2015
                                    Version 2099.9 linked May 26 2017 16:03:21


 **********************************************************************************************************************************
 LABEL *                                                                                 
  64 bit serial version                                                                  DATE: 08-Jun-17          TIME: 22:37:48  
 **********************************************************************************************************************************

 SHA1:             b4a5b34a9e711420743f49e6833241d17c61fb3c
 **********************************************************************************************************************************
 SETTING GEOMTYP        =    XYZ

 Variable memory set to  500000000 words,  buffer space 

 ZSYMEL=NOSYM

 SETTING BASIS          =    SVP


 Recomputing integrals since basis changed


 Using spherical harmonics

 Library entry C      S def2-SVP             selected for orbital group  1
 Library entry C      P def2-SVP             selected for orbital group  1
 Library entry C      D def2-SVP             selected for orbital group  1
 Library entry H      S def2-SVP             selected for orbital group  2
 Library entry H      P def2-SVP             selected for orbital group  2


 PROGRAM * SEWARD (Integral evaluation for generally contracted gaussian basis sets)     Author: Roland Lindh, 1990

 Geometry written to block  1 of record 700


 Point group  C1  



 ATOMIC COORDINATES

 NR  ATOM    CHARGE       X              Y              Z

   1  C       6.00    0.000000000    0.000000000    0.000000000
   2  C       6.00    2.910650663   -0.000170075   -0.000075589
   3  C       6.00   -0.970053112    2.744241381   -0.000094486
   4  C       6.00   -0.970355468   -1.372149036   -2.376443985
   5  C       6.00   -0.970223187   -1.371922269    2.376614061
   6  H       1.00   -3.042440163    2.806035425   -0.000037795
   7  H       1.00   -3.042742519   -1.402875983   -2.429809851
   8  H       1.00   -3.042610239   -1.402649216    2.430112207
   9  H       1.00   -0.308252125    3.772611441    1.674127271
  10  H       1.00   -0.308327714    3.772460262   -1.674448524
  11  H       1.00   -0.308648968   -0.436451146   -4.104220581
  12  H       1.00   -0.308762351   -3.336330370   -2.429809851
  13  H       1.00   -0.308630071   -3.336103603    2.430112207
  14  H       1.00   -0.308403304   -0.436092098    4.104277273
  15  H       1.00    3.659492435   -1.933492182   -0.000018897
  16  H       1.00    3.659605818    0.966368146   -1.674429627
  17  H       1.00    3.659700305    0.966519324    1.674146168

 Bond lengths in Bohr (Angstrom)

  1- 2  2.910650669   1- 3  2.910646630   1- 4  2.910647475   1- 5  2.910635350   2-15  2.073282028
       ( 1.540250003)       ( 1.540247866)       ( 1.540248313)       ( 1.540241896)       ( 1.097133601)

  2-16  2.073304464   2-17  2.073302258   3- 6  2.073308129   3- 9  2.073293037   3-10  2.073300754
       ( 1.097145474)       ( 1.097144306)       ( 1.097147413)       ( 1.097139427)       ( 1.097143510)

  4- 7  2.073301752   4-11  2.073306055   4-12  2.073297296   5- 8  2.073305161   5-13  2.073300706
       ( 1.097144038)       ( 1.097146316)       ( 1.097141681)       ( 1.097145842)       ( 1.097143485)

  5-14  2.073307464
       ( 1.097147061)

 Bond angles

  1- 2-15  111.17643746   1- 2-16  111.17582452   1- 2-17  111.17607088   1- 3- 6  111.17575783

  1- 3- 9  111.17644989   1- 3-10  111.17611121   1- 4- 7  111.17614317   1- 4-11  111.17631877

  1- 4-12  111.17675056   1- 5- 8  111.17663037   1- 5-13  111.17645588   1- 5-14  111.17672823

  2-1-3  109.47117711   2-1-4  109.47117360   2-1-5  109.47107360   3-1-4  109.47144919

  3- 1- 5  109.47121161   4- 1- 5  109.47123870   6- 3- 9  107.71338639   6- 3-10  107.71391335

  7- 4-11  107.71323113   7- 4-12  107.71354587   8- 5-13  107.71328790   8- 5-14  107.71342022

  9- 3-10  107.71420977  11- 4-12  107.71378459  13- 5-14  107.71321488  15- 2-16  107.71365571

 15- 2-17  107.71411853  16- 2-17  107.71372051

 NUCLEAR CHARGE:                   42
 NUMBER OF PRIMITIVE AOS:         209
 NUMBER OF SYMMETRY AOS:          204
 NUMBER OF CONTRACTIONS:          130   ( 130A   )
 NUMBER OF CORE ORBITALS:           5   (   5A   )
 NUMBER OF VALENCE ORBITALS:       32   (  32A   )


 NUCLEAR REPULSION ENERGY  197.66618863


 Eigenvalues of metric

         1 0.175E-02 0.577E-02 0.577E-02 0.577E-02 0.252E-01 0.252E-01 0.252E-01 0.256E-01


 Contracted 2-electron integrals neglected if value below      1.0D-11
 AO integral compression algorithm  1   Integral accuracy      1.0D-11

     139.198 MB (compressed) written to integral file ( 45.3%)


 NUMBER OF SORTED TWO-ELECTRON INTEGRALS:   36256870.     BUFFER LENGTH:  32768
 NUMBER OF SEGMENTS:   3  SEGMENT LENGTH:   15998004      RECORD LENGTH: 524288

 Memory used in sort:      16.56 MW

 SORT1 READ    38373714. AND WROTE    33465425. INTEGRALS IN     97 RECORDS. CPU TIME:     0.48 SEC, REAL TIME:     0.92 SEC
 SORT2 READ    33465425. AND WROTE    36256870. INTEGRALS IN    531 RECORDS. CPU TIME:     0.75 SEC, REAL TIME:     0.95 SEC

 FILE SIZES:   FILE 1:   170.1 MBYTE,  FILE 4:   406.9 MBYTE,   TOTAL:    576.9 MBYTE

 OPERATOR DM      FOR CENTER  0  COORDINATES:    0.000000    0.000000    0.000000


 **********************************************************************************************************************************
 DATASETS  * FILE   NREC   LENGTH (MB)   RECORD NAMES
              1      19      153.85       500      610      700      900      950      970     1000      129      960     1100   
                                          VAR    BASINP    GEOM    SYMINP    ZMAT    AOBASIS   BASIS     P2S    ABASIS      S 
                                         1400     1410     1200     1210     1080     1600     1650     1300     1700   
                                           T        V       H0       H01     AOSYM     SMH    MOLCAS    ERIS     OPER   

 PROGRAMS   *        TOTAL       INT
 CPU TIMES  *         5.02      4.89
 REAL TIME  *         8.55 SEC
 DISK USED  *       577.52 MB      
 **********************************************************************************************************************************

 Density functional group SOGGA11=XC-SOGGA11
 Functional: XC-SOGGA11(via MFM 1.6)                                           Gradient terms: 1
 Use grid at  1800.2

 Functional: XC-SOGGA11                Factor:  1.0000

 Generated new metagrid on record  1800.2 with target accuracy 1.0D-06 and 57016 points in CPU time    1.7
 Computed new grid on record 1800.1 in CPU time    1.9
  107513 words reserved for DFT integration

 PROGRAM * UKS-SCF (Unrestricted Kohn-Sham)     Authors: W. Meyer, H.-J. Werner, P.J. Knowles, 1993

 NUMBER OF ELECTRONS:      21+   21-    SPACE SYMMETRY=1    SPIN SYMMETRY: Singlet 
 CONVERGENCE THRESHOLDS:    1.00E-05 (Density)    1.00E-06 (Energy)
 MAX. NUMBER OF ITERATIONS:       60
 INTERPOLATION TYPE:            DIIS
 INTERPOLATION STEPS:              2 (START)      1 (STEP)
 LEVEL SHIFTS:                 -0.20 (ALPHA)  -0.20 (BETA) 



 Use fine grid record 1800.2 for energy threshold  1.0D-06
 Orbital guess generated from atomic densities. Full valence occupancy:   21

 Molecular orbital dump at record        2200.2

 Initial alpha occupation  21
 Initial beta  occupation  21

 ITERATION    DDIFF          GRAD             ENERGY        2-EL.EN.            DIPOLE MOMENTS         DIIS
    1      0.000D+00      0.000D+00      -197.28271757    604.323707   -0.00023    0.00143    0.00000    0
    2      0.145D-01      0.612D-02      -197.56322097    577.133080   -0.00236   -0.00247    0.00000    1
    3      0.498D-02      0.301D-02      -197.63384875    584.782731   -0.00109   -0.00340   -0.00000    2
    4      0.199D-02      0.406D-03      -197.63657016    584.512201    0.00042   -0.00447   -0.00000    3
    5      0.228D-02      0.243D-03      -197.63828335    584.266258    0.00335   -0.00306   -0.00000    4
    6      0.161D-02      0.114D-03      -197.63872227    584.009569    0.00604    0.00360   -0.00000    5
    7      0.333D-03      0.290D-04      -197.63874292    584.038709    0.00507    0.00630   -0.00000    6
    8      0.112D-03      0.686D-05      -197.63874449    584.024542    0.00500    0.00741   -0.00000    7
    9      0.213D-04      0.255D-05      -197.63874461    584.027743    0.00473    0.00799   -0.00000    7
   10      0.763D-05      0.939D-06      -197.63874462    584.027643    0.00467    0.00804   -0.00000    7
   11      0.513D-05      0.485D-06      -197.63874462    584.027447    0.00463    0.00823   -0.00000    8

 Final alpha occupancy:  21
 Final beta  occupancy:  21

 !UKS STATE 1.1 Energy               -197.638744624737
 Nuclear energy                       197.66618863
 One-electron energy                 -655.71721885
 Two-electron energy                  292.01372349
 Density functional                   -31.60143790     XC-SOGGA11=-31.60143790
 Virial quotient                       -1.01411224
 !UKS STATE 1.1 Dipole moment           0.00462518     0.00823416    -0.00000167
 Dipole moment /Debye                   0.01175527     0.02092778    -0.00000424

 Orbital energies for positive spin:

         1.1          2.1          3.1          4.1          5.1          6.1          7.1          8.1          9.1         10.1
     -9.927488    -9.893359    -9.893256    -9.893210    -9.893170    -0.732488    -0.604669    -0.604609    -0.604598    -0.469552

        11.1         12.1         13.1         14.1         15.1         16.1         17.1         18.1         19.1         20.1
     -0.396213    -0.396193    -0.396149    -0.350004    -0.349991    -0.316196    -0.316193    -0.316179    -0.281441    -0.281409

        21.1         22.1         23.1
     -0.281357     0.008801     0.065192

 Orbital energies for negative spin:

         1.1          2.1          3.1          4.1          5.1          6.1          7.1          8.1          9.1         10.1
     -9.927488    -9.893359    -9.893256    -9.893210    -9.893170    -0.732488    -0.604669    -0.604609    -0.604598    -0.469552

        11.1         12.1         13.1         14.1         15.1         16.1         17.1         18.1         19.1         20.1
     -0.396213    -0.396193    -0.396149    -0.350004    -0.349991    -0.316196    -0.316193    -0.316179    -0.281441    -0.281409

        21.1         22.1         23.1
     -0.281357     0.008801     0.065192

 HOMO     21.1    -0.281357 =      -7.6561eV
 LUMO     22.1     0.008801 =       0.2395eV
 LUMO-HOMO         0.290158 =       7.8956eV

 EXPECTATION VALUE OF S**2:            -0.00000000

 Natural orbitals saved to record    2200.2 (Orbital set 3)

 Orbital spaces for UNO-CAS (Min. occupation: 0.020  Max. occupation: 1.980):

 Closed:       21
 Active:        0


 **********************************************************************************************************************************
 DATASETS  * FILE   NREC   LENGTH (MB)   RECORD NAMES
              1      20      155.67       500      610      700      900      950      970     1000      129      960     1100   
                                          VAR    BASINP    GEOM    SYMINP    ZMAT    AOBASIS   BASIS     P2S    ABASIS      S 
                                         1400     1410     1200     1210     1080     1600     1650     1300     1700     1800   
                                           T        V       H0       H01     AOSYM     SMH    MOLCAS    ERIS     OPER     GRID   

              2       5        3.74       700     1000      520     1800     2200   
                                         GEOM     BASIS   MCVARS    GRID      UKS  

 PROGRAMS   *        TOTAL       UKS       INT
 CPU TIMES  *        33.83     28.81      4.89
 REAL TIME  *        38.08 SEC
 DISK USED  *       577.52 MB      
 **********************************************************************************************************************************


 PROGRAM * Intrinsic Basis Bonding Analysis (IBBA)          Author: G. Knizia

 Molecular orbitals read from record     2200.2  Type=UKS/ALPHA (state 1.1)
 Fock matrix read from record            2200.2  Type=UKS/TOTAL (state 1.1)
 Orbital energies read from record       2200.2  Type=UKS/ALPHA (state 1.1)
 Density matrix read from record         2200.2  Type=UKS/CHARGE (state 1.1)

 Number of core orbitals:           5 (   5 )
 Number of closed-shell orbitals:  16 (  16 )

 Basis set MINAO-AUTO-PP generated.      Number of basis functions:   37 

 Polarized AO type:                A = (O Ot + (1-O)(1-Ot)) P12
 Orthogonalization method:         Symmetric (Loewdin)
 Localization functional:          L = sum[A,i] <i|n_A|i>^4 -> max

 Localization group 1:  21 orbitals, occupancy  2.000
 Iterative localization: IB/PM,    7 iter; Final gradient 0.16E-08

 Bond order analysis:       [THRPRINT= 0.020]

   CEN ATOM   CEN ATOM     WIBERG.BO      RENORM.BO
     1   C  -   5   C       0.996526       0.997791
     1   C  -   4   C       0.996524       0.997789
     1   C  -   2   C       0.996320       0.997795
     1   C  -   3   C       0.996304       0.997821

     2   C  -   1   C       0.996320       0.997795
     2   C  -  15   H       0.960602       0.980071
     2   C  -  16   H       0.960597       0.980178
     2   C  -  17   H       0.960597       0.980178

     3   C  -   1   C       0.996304       0.997821
     3   C  -   6   H       0.960613       0.980043
     3   C  -  10   H       0.960611       0.980159
     3   C  -   9   H       0.960611       0.980160

     4   C  -   1   C       0.996524       0.997789
     4   C  -  12   H       0.960676       0.979932
     4   C  -   7   H       0.960642       0.980004
     4   C  -  11   H       0.960536       0.980312

     5   C  -   1   C       0.996526       0.997791
     5   C  -  13   H       0.960676       0.979932
     5   C  -   8   H       0.960641       0.980004
     5   C  -  14   H       0.960536       0.980312

     6   H  -   3   C       0.960613       0.980043

     7   H  -   4   C       0.960642       0.980004

     8   H  -   5   C       0.960641       0.980004

     9   H  -   3   C       0.960611       0.980160

    10   H  -   3   C       0.960611       0.980159

    11   H  -   4   C       0.960536       0.980312

    12   H  -   4   C       0.960676       0.979932

    13   H  -   5   C       0.960676       0.979932

    14   H  -   5   C       0.960536       0.980312

    15   H  -   2   C       0.960602       0.980071

    16   H  -   2   C       0.960597       0.980178

    17   H  -   2   C       0.960597       0.980178


 Valency analysis:

   CEN ATOM   TOT.VALENCE
     1   C       3.993415
     2   C       3.935038
     3   C       3.935115
     4   C       3.935179
     5   C       3.935179
     6   H       0.981911
     7   H       0.981959
     8   H       0.981959
     9   H       0.981839
    10   H       0.981839
    11   H       0.981677
    12   H       0.982028
    13   H       0.982029
    14   H       0.981677
    15   H       0.981879
    16   H       0.981823
    17   H       0.981823

 Total charge composition:

   CEN ATOM         s          p       ELECTRONS ->P.CHARGE
     1   C       2.91743    3.01511      5.93255    0.06745
     2   C       3.02414    3.39692      6.42106   -0.42106
     3   C       3.02416    3.39659      6.42075   -0.42075
     4   C       3.02420    3.39650      6.42070   -0.42070
     5   C       3.02420    3.39650      6.42070   -0.42070
     6   H       0.86551                 0.86551    0.13449
     7   H       0.86568                 0.86568    0.13432
     8   H       0.86568                 0.86568    0.13432
     9   H       0.86524                 0.86524    0.13476
    10   H       0.86524                 0.86524    0.13476
    11   H       0.86464                 0.86464    0.13536
    12   H       0.86594                 0.86594    0.13406
    13   H       0.86594                 0.86594    0.13406
    14   H       0.86464                 0.86464    0.13536
    15   H       0.86539                 0.86539    0.13461
    16   H       0.86518                 0.86518    0.13482
    17   H       0.86518                 0.86518    0.13482

 Total charge composition, AO contributions:

   CEN ATOM SHL      SPHERICAL COMPONENTS
     1   C  1s       1.99254
     1   C  2s       0.92490
     1   C  2p       1.00499    1.00493    1.00519

     2   C  1s       1.99160
     2   C  2s       1.03254
     2   C  2p       1.05453    1.17108    1.17131

     3   C  1s       1.99160
     3   C  2s       1.03256
     3   C  2p       1.15799    1.06739    1.17121

     4   C  1s       1.99160
     4   C  2s       1.03260
     4   C  2p       1.15789    1.14476    1.09385

     5   C  1s       1.99160
     5   C  2s       1.03260
     5   C  2p       1.15789    1.14476    1.09384

     6   H  1s       0.86551

     7   H  1s       0.86568

     8   H  1s       0.86568

     9   H  1s       0.86524

    10   H  1s       0.86524

    11   H  1s       0.86464

    12   H  1s       0.86594

    13   H  1s       0.86594

    14   H  1s       0.86464

    15   H  1s       0.86539

    16   H  1s       0.86518

    17   H  1s       0.86518

 Summary of localized orbital composition:   [THRPRINT= 0.020]

   ORB  GRP  ORB.ENERGY      CENTERS/CHARGES
     1   1    -9.834050      C  1   2.000
     2   1    -9.783316      C  3   2.000
     3   1    -9.783212      C  2   2.000
     4   1    -9.783155      C  4   2.000
     5   1    -9.783154      C  5   2.000
     6   1    -0.494519      C  3   1.005   C  1   0.967   (other: 0.028)
     7   1    -0.494451      C  2   1.005   C  1   0.967   (other: 0.028)
     8   1    -0.494410      C  5   1.005   C  1   0.967   (other: 0.027)
     9   1    -0.494406      C  4   1.005   C  1   0.967   (other: 0.027)
    10   1    -0.437845      C  3   1.134   H  9   0.856
    11   1    -0.437844      C  3   1.134   H  6   0.857
    12   1    -0.437843      C  3   1.134   H 10   0.856
    13   1    -0.437762      C  2   1.134   H 17   0.856
    14   1    -0.437761      C  2   1.134   H 16   0.856
    15   1    -0.437733      C  2   1.134   H 15   0.857
    16   1    -0.437708      C  4   1.133   H 12   0.857
    17   1    -0.437706      C  5   1.133   H 13   0.857
    18   1    -0.437703      C  4   1.135   H 11   0.856
    19   1    -0.437702      C  5   1.135   H 14   0.856
    20   1    -0.437697      C  4   1.134   H  7   0.857
    21   1    -0.437696      C  5   1.134   H  8   0.857

 Localized orbitals saved to record      2200.2  (orbital set 4)


 **********************************************************************************************************************************
 DATASETS  * FILE   NREC   LENGTH (MB)   RECORD NAMES
              1      20      155.67       500      610      700      900      950      970     1000      129      960     1100   
                                          VAR    BASINP    GEOM    SYMINP    ZMAT    AOBASIS   BASIS     P2S    ABASIS      S 
                                         1400     1410     1200     1210     1080     1600     1650     1300     1700     1800   
                                           T        V       H0       H01     AOSYM     SMH    MOLCAS    ERIS     OPER     GRID   

              2       5        3.88       700     1000      520     1800     2200   
                                         GEOM     BASIS   MCVARS    GRID      UKS  

 PROGRAMS   *        TOTAL      IBBA       UKS       INT
 CPU TIMES  *        33.87      0.04     28.81      4.89
 REAL TIME  *        38.21 SEC
 DISK USED  *       577.52 MB      
 **********************************************************************************************************************************
 Molecular orbitals read from record     2200.2  Type=UKS/LOCAL(IBO)  
 Occupation numbers read from record     2200.2  Type=UKS/LOCAL(IBO)  
 Orbital energies read from record       2200.2  Type=UKS/LOCAL(IBO)  
 Redundancy group numbers read from rec  2200.2  Type=UKS/BETA (state 1.1)

 IBBA/SVP energy=      0.000000000000

        UKS-SCF 
   -197.63874462
 **********************************************************************************************************************************
 Molpro calculation terminated
