
 Primary working directories    : /local
 Secondary working directories  : /local
 Wavefunction directory         : /local/
 Main file repository           : /local/

 SHA1      : b4a5b34a9e711420743f49e6833241d17c61fb3c
 NAME      : 2099.9.b4a5b34
 ARCHNAME  : linux/x86_64_openmp
 FC        : /cm/shared/languages/GCC-6.1/bin/gfortran
 BLASLIB   : -lblas
 id        : simonbennie

 Nodes     nprocs
 node35-045    1

 Using customized tuning parameters: mindgm=1; mindgv=20; mindgc=4; mindgr=1; noblas=0; minvec=7
 default implementation of scratch files=df  

 memory,500,m
 geomtyp=xyz
 nosym
 noorient
 geometry={
 C         -1.53233        0.02247        0.00000
 C         -0.00192        0.01421        0.00000
 O          0.37239        1.40356        0.00000
 H          1.34248        1.44036        0.00000
 H         -1.92991       -0.99819        0.00000
 H         -1.90797        0.54382       -0.88653
 H         -1.90797        0.54382        0.88653
 C          0.54303       -0.66466       -1.26580
 C          0.54303       -0.66466        1.26580
 H          0.17836       -0.14752       -2.15943
 H          0.17836       -0.14752        2.15943
 H          0.23752       -1.71600       -1.32280
 H          0.23752       -1.71600        1.32280
 H          1.64084       -0.63767       -1.28032
 H          1.64084       -0.63767        1.28032
 }
 basis={ default,avdz }
 {uks,M08-SO,direct;wf,42,1,0}
 {ibba,bonds=1}

 Variables initialized (895), CPU time= 0.00 sec
 Commands  initialized (725), CPU time= 0.02 sec, 591 directives.
 Default parameters read. Elapsed time= 0.16 sec

 Checking input...
 Passed
1


                                         ***  PROGRAM SYSTEM MOLPRO  ***
                                       Copyright, TTI GmbH Stuttgart, 2015
                                    Version 2099.9 linked May 26 2017 16:03:21


 **********************************************************************************************************************************
 LABEL *                                                                                 
  64 bit serial version                                                                  DATE: 12-Jun-17          TIME: 15:40:21  
 **********************************************************************************************************************************

 SHA1:             b4a5b34a9e711420743f49e6833241d17c61fb3c
 **********************************************************************************************************************************
 SETTING GEOMTYP        =    XYZ

 Variable memory set to  500000000 words,  buffer space 

 ZSYMEL=NOSYM

 SETTING BASIS          =    AVDZ


 Recomputing integrals since basis changed


 Using spherical harmonics

 Library entry C      S aug-cc-pVDZ          selected for orbital group  1
 Library entry C      P aug-cc-pVDZ          selected for orbital group  1
 Library entry C      D aug-cc-pVDZ          selected for orbital group  1
 Library entry O      S aug-cc-pVDZ          selected for orbital group  2
 Library entry O      P aug-cc-pVDZ          selected for orbital group  2
 Library entry O      D aug-cc-pVDZ          selected for orbital group  2
 Library entry H      S aug-cc-pVDZ          selected for orbital group  3
 Library entry H      P aug-cc-pVDZ          selected for orbital group  3


 PROGRAM * SEWARD (Integral evaluation for generally contracted gaussian basis sets)     Author: Roland Lindh, 1990

 Geometry written to block  1 of record 700


 Point group  C1  



 ATOMIC COORDINATES

 NR  ATOM    CHARGE       X              Y              Z

   1  C       6.00   -2.895684032    0.042462146    0.000000000
   2  C       6.00   -0.003628274    0.026853008    0.000000000
   3  O       8.00    0.703715112    2.652343999    0.000000000
   4  H       1.00    2.536919528    2.721885921    0.000000000
   5  H       1.00   -3.647001345   -1.886305720    0.000000000
   6  H       1.00   -3.605540754    1.027670861   -1.675298901
   7  H       1.00   -3.605540754    1.027670861    1.675298901
   8  C       6.00    1.026177977   -1.256025366   -2.392015328
   9  C       6.00    1.026177977   -1.256025366    2.392015328
  10  H       1.00    0.337051552   -0.278772398   -4.080731285
  11  H       1.00    0.337051552   -0.278772398    4.080731285
  12  H       1.00    0.448847749   -3.242770030   -2.499729718
  13  H       1.00    0.448847749   -3.242770030    2.499729718
  14  H       1.00    3.100738214   -1.205021658   -2.419454152
  15  H       1.00    3.100738214   -1.205021658    2.419454152

 Bond lengths in Bohr (Angstrom)

 1-2  2.892097881  1-5  2.069933136  1-6  2.069096224  1-7  2.069096224  2-3  2.719106031
     ( 1.530432290)     ( 1.095361444)     ( 1.094918569)     ( 1.094918569)     ( 1.438888946)

  2- 8  2.903104402   2- 9  2.903104402   3- 4  1.834522965   8-10  2.069222119   8-12  2.071730422
       ( 1.536256691)       ( 1.536256691)       ( 0.970787746)       ( 1.094985190)       ( 1.096312526)

  8-14  2.075368508   9-11  2.069222119   9-13  2.071730422   9-15  2.075368508
       ( 1.098237719)       ( 1.094985190)       ( 1.096312526)       ( 1.098237719)

 Bond angles

  1-2-3  104.76902697   1-2-8  110.92255387   1-2-9  110.92255387   2-1-5  110.97328220

  2- 1- 6  110.22090701   2- 1- 7  110.22090701   2- 3- 4  107.25071562   2- 8-10  110.21836376

  2- 8-12  111.57747468   2- 8-14  110.77023896   2- 9-11  110.21836376   2- 9-13  111.57747468

  2- 9-15  110.77023896   3- 2- 8  109.53648747   3- 2- 9  109.53648747   5- 1- 6  108.61190457

  5- 1- 7  108.61190457   6- 1- 7  108.12870271   8- 2- 9  110.96453384  10- 8-12  108.52192632

 10- 8-14  108.08997829  11- 9-13  108.52192632  11- 9-15  108.08997829  12- 8-14  107.54424578

 13- 9-15  107.54424578

 NUCLEAR CHARGE:                   42
 NUMBER OF PRIMITIVE AOS:         295
 NUMBER OF SYMMETRY AOS:          285
 NUMBER OF CONTRACTIONS:          205   ( 205A   )
 NUMBER OF CORE ORBITALS:           5   (   5A   )
 NUMBER OF VALENCE ORBITALS:       30   (  30A   )


 NUCLEAR REPULSION ENERGY  198.77359127


 Eigenvalues of metric

         1 0.151E-04 0.552E-04 0.579E-04 0.110E-03 0.111E-03 0.217E-03 0.237E-03 0.259E-03


 Contracted 2-electron integrals neglected if value below      1.0D-12
 AO integral compression algorithm  1   Integral accuracy      1.0D-12

     1203.503 MB (compressed) written to integral file ( 61.3%)


 NUMBER OF SORTED TWO-ELECTRON INTEGRALS:  222932170.     BUFFER LENGTH:  32768
 NUMBER OF SEGMENTS:  14  SEGMENT LENGTH:   15999503      RECORD LENGTH: 524288

 Memory used in sort:      16.56 MW

 SORT1 READ   245224724. AND WROTE   218324786. INTEGRALS IN    630 RECORDS. CPU TIME:     3.31 SEC, REAL TIME:    33.33 SEC
 SORT2 READ   218324786. AND WROTE   222932170. INTEGRALS IN   4591 RECORDS. CPU TIME:     5.10 SEC, REAL TIME:    22.72 SEC

 FILE SIZES:   FILE 1:  1235.3 MBYTE,  FILE 4:  2642.4 MBYTE,   TOTAL:   3877.7 MBYTE

 OPERATOR DM      FOR CENTER  0  COORDINATES:    0.000000    0.000000    0.000000


 **********************************************************************************************************************************
 DATASETS  * FILE   NREC   LENGTH (MB)   RECORD NAMES
              1      19     1149.90       500      610      700      900      950      970     1000      129      960     1100   
                                          VAR    BASINP    GEOM    SYMINP    ZMAT    AOBASIS   BASIS     P2S    ABASIS      S 
                                         1400     1410     1200     1210     1080     1600     1650     1300     1700   
                                           T        V       H0       H01     AOSYM     SMH    MOLCAS    ERIS     OPER   

 PROGRAMS   *        TOTAL       INT
 CPU TIMES  *        20.66     20.51
 REAL TIME  *       124.62 SEC
 DISK USED  *         3.88 GB      
 **********************************************************************************************************************************

 Density functional group M08-SO=XC-M08-SO
 Functional: XC-M08-SO(via MFM 1.6)                                            Gradient terms: 1
 Use grid at  1800.2


 Exact exchange will be calculated, factor:  0.5679

 Functional: XC-M08-SO                 Factor:  1.0000

 Generated new metagrid on record  1800.2 with target accuracy 1.0D-06 and 53396 points in CPU time    1.7
 Computed new grid on record 1800.1 in CPU time    1.9
  167289 words reserved for DFT integration

 PROGRAM * UKS-SCF (Unrestricted Kohn-Sham)     Authors: W. Meyer, H.-J. Werner, P.J. Knowles, 1993

 NUMBER OF ELECTRONS:      21+   21-    SPACE SYMMETRY=1    SPIN SYMMETRY: Singlet 
 CONVERGENCE THRESHOLDS:    1.00E-05 (Density)    1.00E-06 (Energy)
 MAX. NUMBER OF ITERATIONS:       60
 INTERPOLATION TYPE:            DIIS
 INTERPOLATION STEPS:              2 (START)      1 (STEP)
 LEVEL SHIFTS:                 -0.20 (ALPHA)  -0.20 (BETA) 



 Use fine grid record 1800.2 for energy threshold  1.0D-06
 Orbital guess generated from atomic densities. Full valence occupancy:   35

 Molecular orbital dump at record        2200.2

 Initial alpha occupation  21
 Initial beta  occupation  21

 ITERATION    DDIFF          GRAD             ENERGY        2-EL.EN.            DIPOLE MOMENTS         DIIS
    1      0.000D+00      0.000D+00      -233.41314516    593.319713    0.72095   -0.82109    0.00000    0
    2      0.153D-01      0.230D-02      -233.52103075    581.978981    0.32977   -0.55128    0.00000    1
    3      0.449D-02      0.865D-03      -233.53198252    584.143746    0.37287   -0.59811    0.00000    2
    4      0.141D-02      0.195D-03      -233.53330091    583.937174    0.35408   -0.56433    0.00000    3
    5      0.102D-02      0.990D-04      -233.53372428    583.882298    0.34579   -0.56943    0.00000    4
    6      0.512D-03      0.257D-04      -233.53377185    583.869662    0.34374   -0.57044    0.00000    5
    7      0.110D-03      0.510D-05      -233.53377394    583.857846    0.34315   -0.57119    0.00000    6
    8      0.304D-04      0.191D-05      -233.53377412    583.862713    0.34320   -0.57133    0.00000    7
    9      0.168D-04      0.688D-06      -233.53377415    583.861687    0.34311   -0.57128    0.00000    7
   10      0.460D-05      0.165D-06      -233.53377415    583.861732    0.34310   -0.57132    0.00000    7
   11      0.152D-05      0.527D-07      -233.53377415    583.861719    0.34310   -0.57131    0.00000    6

 Final alpha occupancy:  21
 Final beta  occupancy:  21

 !UKS STATE 1.1 Energy               -233.533774153463
 Nuclear energy                       198.77359127
 One-electron energy                 -708.85127069
 Two-electron energy                  291.93085949
 Density functional                   -15.38695423     XC-M08-SO=-15.38695423
 Virial quotient                       -1.00854896
 !UKS STATE 1.1 Dipole moment           0.34309744    -0.57131094     0.00000000
 Dipole moment /Debye                   0.87200960    -1.45203246     0.00000000

 Orbital energies for positive spin:

         1.1          2.1          3.1          4.1          5.1          6.1          7.1          8.1          9.1         10.1
    -19.590127   -10.569403   -10.503865   -10.503817   -10.498031    -1.136011    -0.890577    -0.787468    -0.786427    -0.655765

        11.1         12.1         13.1         14.1         15.1         16.1         17.1         18.1         19.1         20.1
     -0.571501    -0.533209    -0.529840    -0.489592    -0.473200    -0.451437    -0.436960    -0.431016    -0.421761    -0.390563

        21.1         22.1         23.1
     -0.354458    -0.027989    -0.009985

 Orbital energies for negative spin:

         1.1          2.1          3.1          4.1          5.1          6.1          7.1          8.1          9.1         10.1
    -19.590127   -10.569403   -10.503865   -10.503817   -10.498031    -1.136011    -0.890577    -0.787468    -0.786427    -0.655765

        11.1         12.1         13.1         14.1         15.1         16.1         17.1         18.1         19.1         20.1
     -0.571501    -0.533209    -0.529840    -0.489592    -0.473200    -0.451437    -0.436960    -0.431016    -0.421761    -0.390563

        21.1         22.1         23.1
     -0.354458    -0.027989    -0.009985

 HOMO     21.1    -0.354458 =      -9.6453eV
 LUMO     22.1    -0.027989 =      -0.7616eV
 LUMO-HOMO         0.326470 =       8.8837eV

 EXPECTATION VALUE OF S**2:            -0.00000000

 Natural orbitals saved to record    2200.2 (Orbital set 3)

 Orbital spaces for UNO-CAS (Min. occupation: 0.020  Max. occupation: 1.980):

 Closed:       21
 Active:        0


 **********************************************************************************************************************************
 DATASETS  * FILE   NREC   LENGTH (MB)   RECORD NAMES
              1      20     1151.61       500      610      700      900      950      970     1000      129      960     1100   
                                          VAR    BASINP    GEOM    SYMINP    ZMAT    AOBASIS   BASIS     P2S    ABASIS      S 
                                         1400     1410     1200     1210     1080     1600     1650     1300     1700     1800   
                                           T        V       H0       H01     AOSYM     SMH    MOLCAS    ERIS     OPER     GRID   

              2       5        4.72       700     1000      520     1800     2200   
                                         GEOM     BASIS   MCVARS    GRID      UKS  

 PROGRAMS   *        TOTAL       UKS       INT
 CPU TIMES  *       282.37    261.71     20.51
 REAL TIME  *       413.26 SEC
 DISK USED  *         3.88 GB      
 **********************************************************************************************************************************


 PROGRAM * Intrinsic Basis Bonding Analysis (IBBA)          Author: G. Knizia

 Molecular orbitals read from record     2200.2  Type=UKS/ALPHA (state 1.1)
 Fock matrix read from record            2200.2  Type=UKS/TOTAL (state 1.1)
 Orbital energies read from record       2200.2  Type=UKS/ALPHA (state 1.1)
 Density matrix read from record         2200.2  Type=UKS/CHARGE (state 1.1)

 Number of core orbitals:           5 (   5 )
 Number of closed-shell orbitals:  16 (  16 )

 Basis set MINAO-AUTO-PP generated.      Number of basis functions:   35 

 Polarized AO type:                A = (O Ot + (1-O)(1-Ot)) P12
 Orthogonalization method:         Symmetric (Loewdin)
 Localization functional:          L = sum[A,i] <i|n_A|i>^4 -> max

 Localization group 1:  21 orbitals, occupancy  2.000
 Iterative localization: IB/PM,    7 iter; Final gradient 0.21E-08

 Bond order analysis:       [THRPRINT= 0.020]

   CEN ATOM   CEN ATOM     WIBERG.BO      RENORM.BO
     1   C  -   2   C       0.995806       0.993563
     1   C  -   5   H       0.964681       0.987728
     1   C  -   6   H       0.960171       0.982792
     1   C  -   7   H       0.960171       0.982792

     2   C  -   1   C       0.995806       0.993563
     2   C  -   9   C       0.995224       0.977919
     2   C  -   8   C       0.995224       0.977919
     2   C  -   3   O       0.931419       0.951947

     3   O  -   2   C       0.931419       0.951947
     3   O  -   4   H       0.862858       0.978054
     3   O  -   9   C       0.025274       0.012987
     3   O  -   8   C       0.025274       0.012987

     4   H  -   3   O       0.862858       0.978054

     5   H  -   1   C       0.964681       0.987728

     6   H  -   1   C       0.960171       0.982792

     7   H  -   1   C       0.960171       0.982792

     8   C  -   2   C       0.995224       0.977919
     8   C  -  14   H       0.964220       0.983402
     8   C  -  12   H       0.961170       0.983796
     8   C  -  10   H       0.960469       0.982630
     8   C  -   3   O       0.025274       0.012987

     9   C  -   2   C       0.995224       0.977919
     9   C  -  15   H       0.964220       0.983402
     9   C  -  13   H       0.961170       0.983796
     9   C  -  11   H       0.960469       0.982630
     9   C  -   3   O       0.025274       0.012987

    10   H  -   8   C       0.960469       0.982630

    11   H  -   9   C       0.960469       0.982630

    12   H  -   8   C       0.961170       0.983796

    13   H  -   9   C       0.961170       0.983796

    14   H  -   8   C       0.964220       0.983402

    15   H  -   9   C       0.964220       0.983402


 Valency analysis:

   CEN ATOM   TOT.VALENCE
     1   C       3.937557
     2   C       3.928468
     3   O       1.906144
     4   H       0.880962
     5   H       0.982807
     6   H       0.980324
     7   H       0.980324
     8   C       3.940091
     9   C       3.940091
    10   H       0.980188
    11   H       0.980188
    12   H       0.981938
    13   H       0.981938
    14   H       0.984315
    15   H       0.984315

 Total charge composition:

   CEN ATOM         s          p       ELECTRONS ->P.CHARGE
     1   C       3.02815    3.37461      6.40276   -0.40276
     2   C       2.93022    2.81084      5.74106    0.25894
     3   O       3.63340    4.94656      8.57996   -0.57996
     4   H       0.65498                 0.65498    0.34502
     5   H       0.86888                 0.86888    0.13112
     6   H       0.85973                 0.85973    0.14027
     7   H       0.85973                 0.85973    0.14027
     8   C       3.03390    3.38295      6.41684   -0.41684
     9   C       3.03390    3.38295      6.41684   -0.41684
    10   H       0.85924                 0.85924    0.14076
    11   H       0.85924                 0.85924    0.14076
    12   H       0.86560                 0.86560    0.13440
    13   H       0.86560                 0.86560    0.13440
    14   H       0.87476                 0.87476    0.12524
    15   H       0.87476                 0.87476    0.12524

 Total charge composition, AO contributions:

   CEN ATOM SHL      SPHERICAL COMPONENTS
     1   C  1s       1.99123
     1   C  2s       1.03692
     1   C  2p       1.04010    1.16160    1.17291

     2   C  1s       1.99283
     2   C  2s       0.93740
     2   C  2p       1.01202    0.78632    1.01251

     3   O  1s       1.99716
     3   O  2s       1.63624
     3   O  2p       1.48266    1.50299    1.96091

     4   H  1s       0.65498

     5   H  1s       0.86888

     6   H  1s       0.85973

     7   H  1s       0.85973

     8   C  1s       1.99132
     8   C  2s       1.04257
     8   C  2p       1.14355    1.14364    1.09576

     9   C  1s       1.99132
     9   C  2s       1.04257
     9   C  2p       1.14355    1.14364    1.09576

    10   H  1s       0.85924

    11   H  1s       0.85924

    12   H  1s       0.86560

    13   H  1s       0.86560

    14   H  1s       0.87476

    15   H  1s       0.87476

 Summary of localized orbital composition:   [THRPRINT= 0.020]

   ORB  GRP  ORB.ENERGY      CENTERS/CHARGES
     1   1   -19.428495      O  3   2.000
     2   1   -10.475552      C  2   2.000
     3   1   -10.387199      C  8   2.000
     4   1   -10.387199      C  9   2.000
     5   1   -10.380553      C  1   2.000
     6   1    -0.860727      O  3   1.347   H  4   0.644
     7   1    -0.820759      O  3   1.286   C  2   0.697
     8   1    -0.670304      O  3   1.983
     9   1    -0.657639      C  9   1.007   C  2   0.978
    10   1    -0.657639      C  8   1.007   C  2   0.978
    11   1    -0.656894      C  2   0.989   C  1   0.988   (other: 0.022)
    12   1    -0.584934      C  8   1.130   H 12   0.857
    13   1    -0.584934      C  9   1.130   H 13   0.857
    14   1    -0.583085      C  9   1.121   H 15   0.868
    15   1    -0.583085      C  8   1.121   H 14   0.868
    16   1    -0.581122      C  1   1.125   H  5   0.862
    17   1    -0.578554      C  8   1.139   H 10   0.851
    18   1    -0.578554      C  9   1.139   H 11   0.851
    19   1    -0.573351      C  1   1.137   H  6   0.852
    20   1    -0.573351      C  1   1.137   H  7   0.852
    21   1    -0.401108      O  3   1.961   (other: 0.039)

 Localized orbitals saved to record      2200.2  (orbital set 4)


 **********************************************************************************************************************************
 DATASETS  * FILE   NREC   LENGTH (MB)   RECORD NAMES
              1      20     1151.61       500      610      700      900      950      970     1000      129      960     1100   
                                          VAR    BASINP    GEOM    SYMINP    ZMAT    AOBASIS   BASIS     P2S    ABASIS      S 
                                         1400     1410     1200     1210     1080     1600     1650     1300     1700     1800   
                                           T        V       H0       H01     AOSYM     SMH    MOLCAS    ERIS     OPER     GRID   

              2       5        5.06       700     1000      520     1800     2200   
                                         GEOM     BASIS   MCVARS    GRID      UKS  

 PROGRAMS   *        TOTAL      IBBA       UKS       INT
 CPU TIMES  *       282.44      0.07    261.71     20.51
 REAL TIME  *       413.45 SEC
 DISK USED  *         3.88 GB      
 **********************************************************************************************************************************
 Molecular orbitals read from record     2200.2  Type=UKS/LOCAL(IBO)  
 Occupation numbers read from record     2200.2  Type=UKS/LOCAL(IBO)  
 Orbital energies read from record       2200.2  Type=UKS/LOCAL(IBO)  
 Redundancy group numbers read from rec  2200.2  Type=UKS/BETA (state 1.1)

 IBBA/aug-cc-pVDZ energy=      0.000000000000

        UKS-SCF 
   -233.53377415
 **********************************************************************************************************************************
 Molpro calculation terminated
