
 Primary working directories    : /local
 Secondary working directories  : /local
 Wavefunction directory         : /local/
 Main file repository           : /local/

 SHA1      : b4a5b34a9e711420743f49e6833241d17c61fb3c
 NAME      : 2099.9.b4a5b34
 ARCHNAME  : linux/x86_64_openmp
 FC        : /cm/shared/languages/GCC-6.1/bin/gfortran
 BLASLIB   : -lblas
 id        : simonbennie

 Nodes     nprocs
 node44-015    1

 Using customized tuning parameters: mindgm=1; mindgv=20; mindgc=4; mindgr=1; noblas=0; minvec=7
 default implementation of scratch files=df  

 memory,500,m
 geomtyp=xyz
 nosym
 noorient
 geometry={
 C         -1.53233        0.02247        0.00000
 C         -0.00192        0.01421        0.00000
 O          0.37239        1.40356        0.00000
 H          1.34248        1.44036        0.00000
 H         -1.92991       -0.99819        0.00000
 H         -1.90797        0.54382       -0.88653
 H         -1.90797        0.54382        0.88653
 C          0.54303       -0.66466       -1.26580
 C          0.54303       -0.66466        1.26580
 H          0.17836       -0.14752       -2.15943
 H          0.17836       -0.14752        2.15943
 H          0.23752       -1.71600       -1.32280
 H          0.23752       -1.71600        1.32280
 H          1.64084       -0.63767       -1.28032
 H          1.64084       -0.63767        1.28032
 }
 basis={ default,tzvp }
 {uks,MM05-2X,direct;wf,42,1,0}
 {ibba,bonds=1}

 Variables initialized (895), CPU time= 0.00 sec
 Commands  initialized (725), CPU time= 0.02 sec, 591 directives.
 Default parameters read. Elapsed time= 0.08 sec

 Checking input...
 Passed
1


                                         ***  PROGRAM SYSTEM MOLPRO  ***
                                       Copyright, TTI GmbH Stuttgart, 2015
                                    Version 2099.9 linked May 26 2017 16:03:21


 **********************************************************************************************************************************
 LABEL *                                                                                 
  64 bit serial version                                                                  DATE: 12-Jun-17          TIME: 19:34:18  
 **********************************************************************************************************************************

 SHA1:             b4a5b34a9e711420743f49e6833241d17c61fb3c
 **********************************************************************************************************************************
 SETTING GEOMTYP        =    XYZ

 Variable memory set to  500000000 words,  buffer space 

 ZSYMEL=NOSYM

 SETTING BASIS          =    TZVP


 Recomputing integrals since basis changed


 Using spherical harmonics

 Library entry C      S def2-TZVP            selected for orbital group  1
 Library entry C      P def2-TZVP            selected for orbital group  1
 Library entry C      D def2-TZVP            selected for orbital group  1
 Library entry C      F def2-TZVP            selected for orbital group  1
 Library entry O      S def2-TZVP            selected for orbital group  2
 Library entry O      P def2-TZVP            selected for orbital group  2
 Library entry O      D def2-TZVP            selected for orbital group  2
 Library entry O      F def2-TZVP            selected for orbital group  2
 Library entry H      S def2-TZVP            selected for orbital group  3
 Library entry H      P def2-TZVP            selected for orbital group  3


 PROGRAM * SEWARD (Integral evaluation for generally contracted gaussian basis sets)     Author: Roland Lindh, 1990

 Geometry written to block  1 of record 700


 Point group  C1  



 ATOMIC COORDINATES

 NR  ATOM    CHARGE       X              Y              Z

   1  C       6.00   -2.895684032    0.042462146    0.000000000
   2  C       6.00   -0.003628274    0.026853008    0.000000000
   3  O       8.00    0.703715112    2.652343999    0.000000000
   4  H       1.00    2.536919528    2.721885921    0.000000000
   5  H       1.00   -3.647001345   -1.886305720    0.000000000
   6  H       1.00   -3.605540754    1.027670861   -1.675298901
   7  H       1.00   -3.605540754    1.027670861    1.675298901
   8  C       6.00    1.026177977   -1.256025366   -2.392015328
   9  C       6.00    1.026177977   -1.256025366    2.392015328
  10  H       1.00    0.337051552   -0.278772398   -4.080731285
  11  H       1.00    0.337051552   -0.278772398    4.080731285
  12  H       1.00    0.448847749   -3.242770030   -2.499729718
  13  H       1.00    0.448847749   -3.242770030    2.499729718
  14  H       1.00    3.100738214   -1.205021658   -2.419454152
  15  H       1.00    3.100738214   -1.205021658    2.419454152

 Bond lengths in Bohr (Angstrom)

 1-2  2.892097881  1-5  2.069933136  1-6  2.069096224  1-7  2.069096224  2-3  2.719106031
     ( 1.530432290)     ( 1.095361444)     ( 1.094918569)     ( 1.094918569)     ( 1.438888946)

  2- 8  2.903104402   2- 9  2.903104402   3- 4  1.834522965   8-10  2.069222119   8-12  2.071730422
       ( 1.536256691)       ( 1.536256691)       ( 0.970787746)       ( 1.094985190)       ( 1.096312526)

  8-14  2.075368508   9-11  2.069222119   9-13  2.071730422   9-15  2.075368508
       ( 1.098237719)       ( 1.094985190)       ( 1.096312526)       ( 1.098237719)

 Bond angles

  1-2-3  104.76902697   1-2-8  110.92255387   1-2-9  110.92255387   2-1-5  110.97328220

  2- 1- 6  110.22090701   2- 1- 7  110.22090701   2- 3- 4  107.25071562   2- 8-10  110.21836376

  2- 8-12  111.57747468   2- 8-14  110.77023896   2- 9-11  110.21836376   2- 9-13  111.57747468

  2- 9-15  110.77023896   3- 2- 8  109.53648747   3- 2- 9  109.53648747   5- 1- 6  108.61190457

  5- 1- 7  108.61190457   6- 1- 7  108.12870271   8- 2- 9  110.96453384  10- 8-12  108.52192632

 10- 8-14  108.08997829  11- 9-13  108.52192632  11- 9-15  108.08997829  12- 8-14  107.54424578

 13- 9-15  107.54424578

 NUCLEAR CHARGE:                   42
 NUMBER OF PRIMITIVE AOS:         335
 NUMBER OF SYMMETRY AOS:          310
 NUMBER OF CONTRACTIONS:          215   ( 215A   )
 NUMBER OF CORE ORBITALS:           5   (   5A   )
 NUMBER OF VALENCE ORBITALS:       30   (  30A   )


 NUCLEAR REPULSION ENERGY  198.77359127


 Eigenvalues of metric

         1 0.262E-03 0.510E-03 0.539E-03 0.594E-03 0.697E-03 0.755E-03 0.210E-02 0.239E-02


 Contracted 2-electron integrals neglected if value below      1.0D-11
 AO integral compression algorithm  1   Integral accuracy      1.0D-11

     977.797 MB (compressed) written to integral file ( 41.7%)


 NUMBER OF SORTED TWO-ELECTRON INTEGRALS:  269595810.     BUFFER LENGTH:  32768
 NUMBER OF SEGMENTS:  17  SEGMENT LENGTH:   15999762      RECORD LENGTH: 524288

 Memory used in sort:      16.56 MW

 SORT1 READ   292827432. AND WROTE   238500613. INTEGRALS IN    690 RECORDS. CPU TIME:     3.35 SEC, REAL TIME:     6.48 SEC
 SORT2 READ   238500613. AND WROTE   269595810. INTEGRALS IN   3730 RECORDS. CPU TIME:     5.48 SEC, REAL TIME:    15.65 SEC

 FILE SIZES:   FILE 1:  1009.7 MBYTE,  FILE 4:  2894.1 MBYTE,   TOTAL:   3903.8 MBYTE

 OPERATOR DM      FOR CENTER  0  COORDINATES:    0.000000    0.000000    0.000000


 **********************************************************************************************************************************
 DATASETS  * FILE   NREC   LENGTH (MB)   RECORD NAMES
              1      19      926.27       500      610      700      900      950      970     1000      129      960     1100   
                                          VAR    BASINP    GEOM    SYMINP    ZMAT    AOBASIS   BASIS     P2S    ABASIS      S 
                                         1400     1410     1200     1210     1080     1600     1650     1300     1700   
                                           T        V       H0       H01     AOSYM     SMH    MOLCAS    ERIS     OPER   

 PROGRAMS   *        TOTAL       INT
 CPU TIMES  *        24.85     24.70
 REAL TIME  *        59.13 SEC
 DISK USED  *         3.90 GB      
 **********************************************************************************************************************************

 Density functional group MM05-2X=M052XX+M052XC
 Functional: M052XX(Automatically generated (new) M052XX)                      Gradient terms: 2
 Functional: M052XC(Automatically generated (new) M052XC)                      Gradient terms: 2
 Use grid at  1800.2


 Exact exchange will be calculated, factor:  0.5600

 Functional: M052XX                    Factor:  0.4400
 Functional: M052XC                    Factor:  1.0000

 Generated new metagrid on record  1800.2 with target accuracy 1.0D-06 and 54596 points in CPU time    1.6
 Computed new grid on record 1800.1 in CPU time    1.8
  339049 words reserved for DFT integration

 PROGRAM * UKS-SCF (Unrestricted Kohn-Sham)     Authors: W. Meyer, H.-J. Werner, P.J. Knowles, 1993

 NUMBER OF ELECTRONS:      21+   21-    SPACE SYMMETRY=1    SPIN SYMMETRY: Singlet 
 CONVERGENCE THRESHOLDS:    1.00E-05 (Density)    1.00E-06 (Energy)
 MAX. NUMBER OF ITERATIONS:       60
 INTERPOLATION TYPE:            DIIS
 INTERPOLATION STEPS:              2 (START)      1 (STEP)
 LEVEL SHIFTS:                 -0.20 (ALPHA)  -0.20 (BETA) 



 Use fine grid record 1800.2 for energy threshold  1.0D-06
 Orbital guess generated from atomic densities. Full valence occupancy:   21

 Molecular orbital dump at record        2200.2

 Initial alpha occupation  21
 Initial beta  occupation  21

 ITERATION    DDIFF          GRAD             ENERGY        2-EL.EN.            DIPOLE MOMENTS         DIIS
    1      0.000D+00      0.000D+00      -233.59204679    595.504835    0.71086   -0.84552    0.00000    0
    2      0.320D-02      0.246D-02      -233.71352073    583.174325    0.33523   -0.52739    0.00000    1
    3      0.901D-03      0.986D-03      -233.72740345    585.722168    0.38540   -0.58263    0.00000    2
    4      0.443D-03      0.212D-03      -233.72890221    585.592238    0.36975   -0.54694    0.00000    3
    5      0.344D-03      0.105D-03      -233.72940699    585.553339    0.36176   -0.54923    0.00000    4
    6      0.194D-03      0.292D-04      -233.72945997    585.538826    0.35873   -0.54624    0.00000    5
    7      0.540D-04      0.547D-05      -233.72946221    585.532907    0.35810   -0.54657    0.00000    6
    8      0.973D-05      0.136D-05      -233.72946232    585.535496    0.35804   -0.54654    0.00000    6
    9      0.269D-05      0.598D-06      -233.72946233    585.534797    0.35795   -0.54652    0.00000    6

 Final alpha occupancy:  21
 Final beta  occupancy:  21

 !UKS STATE 1.1 Energy               -233.729462329610
 Nuclear energy                       198.77359127
 One-electron energy                 -709.45781803
 Two-electron energy                  292.76739854
 Density functional                   -15.81263411     M052XX=-32.50423544 M052XC= -1.51077052
 Virial quotient                       -1.00566736
 !UKS STATE 1.1 Dipole moment           0.35794598    -0.54651521     0.00000000
 Dipole moment /Debye                   0.90974834    -1.38901211     0.00000000

 Orbital energies for positive spin:

         1.1          2.1          3.1          4.1          5.1          6.1          7.1          8.1          9.1         10.1
    -19.659159   -10.623543   -10.553122   -10.553110   -10.547324    -1.138651    -0.895040    -0.792518    -0.791214    -0.656796

        11.1         12.1         13.1         14.1         15.1         16.1         17.1         18.1         19.1         20.1
     -0.570474    -0.531399    -0.528198    -0.488138    -0.471468    -0.448748    -0.435788    -0.427632    -0.419002    -0.386359

        21.1         22.1         23.1
     -0.348288     0.061123     0.111231

 Orbital energies for negative spin:

         1.1          2.1          3.1          4.1          5.1          6.1          7.1          8.1          9.1         10.1
    -19.659156   -10.623545   -10.553121   -10.553109   -10.547323    -1.138645    -0.895040    -0.792518    -0.791213    -0.656795

        11.1         12.1         13.1         14.1         15.1         16.1         17.1         18.1         19.1         20.1
     -0.570472    -0.531399    -0.528198    -0.488137    -0.471467    -0.448747    -0.435789    -0.427629    -0.419001    -0.386357

        21.1         22.1         23.1
     -0.348283     0.061126     0.111234

 HOMO    -21.1    -0.348283 =      -9.4773eV
 LUMO     22.1     0.061123 =       1.6633eV
 LUMO-HOMO         0.409406 =      11.1405eV

 EXPECTATION VALUE OF S**2:             0.00000000

 Occupation number threshold for canonical orbitals:  1.999000 (occupied),  0.001000 (virtual)

 Number of pseudo-canonical orbitals per symmetry:   21
 Number of active natural orbitals per symmetry:      0

 Natural orbitals saved to record    2200.2 (Orbital set 3)

 Orbital spaces for UNO-CAS (Min. occupation: 0.020  Max. occupation: 1.980):

 Closed:       21
 Active:        0


 **********************************************************************************************************************************
 DATASETS  * FILE   NREC   LENGTH (MB)   RECORD NAMES
              1      20      928.02       500      610      700      900      950      970     1000      129      960     1100   
                                          VAR    BASINP    GEOM    SYMINP    ZMAT    AOBASIS   BASIS     P2S    ABASIS      S 
                                         1400     1410     1200     1210     1080     1600     1650     1300     1700     1800   
                                           T        V       H0       H01     AOSYM     SMH    MOLCAS    ERIS     OPER     GRID   

              2       5        4.89       700     1000      520     1800     2200   
                                         GEOM     BASIS   MCVARS    GRID      UKS  

 PROGRAMS   *        TOTAL       UKS       INT
 CPU TIMES  *       307.29    282.44     24.70
 REAL TIME  *       343.51 SEC
 DISK USED  *         3.90 GB      
 **********************************************************************************************************************************


 PROGRAM * Intrinsic Basis Bonding Analysis (IBBA)          Author: G. Knizia

 Molecular orbitals read from record     2200.2  Type=UKS/ALPHA (state 1.1)
 Fock matrix read from record            2200.2  Type=UKS/TOTAL (state 1.1)
 Orbital energies read from record       2200.2  Type=UKS/ALPHA (state 1.1)
 Density matrix read from record         2200.2  Type=UKS/CHARGE (state 1.1)

 Number of core orbitals:           5 (   5 )
 Number of closed-shell orbitals:  16 (  16 )

 Basis set MINAO-AUTO-PP generated.      Number of basis functions:   35 

 Polarized AO type:                A = (O Ot + (1-O)(1-Ot)) P12
 Orthogonalization method:         Symmetric (Loewdin)
 Localization functional:          L = sum[A,i] <i|n_A|i>^4 -> max

 Localization group 1:  21 orbitals, occupancy  2.000
 Iterative localization: IB/PM,    7 iter; Final gradient 0.21E-08

 Bond order analysis:       [THRPRINT= 0.020]

   CEN ATOM   CEN ATOM     WIBERG.BO      RENORM.BO
     1   C  -   2   C       0.995976       0.993047
     1   C  -   5   H       0.963628       0.987814
     1   C  -   6   H       0.958684       0.983201
     1   C  -   7   H       0.958684       0.983201

     2   C  -   1   C       0.995976       0.993047
     2   C  -   9   C       0.995013       0.976894
     2   C  -   8   C       0.995013       0.976894
     2   C  -   3   O       0.932515       0.952876

     3   O  -   2   C       0.932515       0.952876
     3   O  -   4   H       0.863523       0.978411
     3   O  -   9   C       0.025473       0.013091
     3   O  -   8   C       0.025473       0.013091

     4   H  -   3   O       0.863523       0.978411

     5   H  -   1   C       0.963628       0.987814

     6   H  -   1   C       0.958684       0.983201

     7   H  -   1   C       0.958684       0.983201

     8   C  -   2   C       0.995013       0.976894
     8   C  -  14   H       0.963218       0.983705
     8   C  -  12   H       0.959951       0.983998
     8   C  -  10   H       0.959160       0.983136
     8   C  -   3   O       0.025473       0.013091

     9   C  -   2   C       0.995013       0.976894
     9   C  -  15   H       0.963218       0.983705
     9   C  -  13   H       0.959951       0.983998
     9   C  -  11   H       0.959160       0.983136
     9   C  -   3   O       0.025473       0.013091

    10   H  -   8   C       0.959160       0.983136

    11   H  -   9   C       0.959160       0.983136

    12   H  -   8   C       0.959951       0.983998

    13   H  -   9   C       0.959951       0.983998

    14   H  -   8   C       0.963218       0.983705

    15   H  -   9   C       0.963218       0.983705


 Valency analysis:

   CEN ATOM   TOT.VALENCE
     1   C       3.932899
     2   C       3.928806
     3   O       1.907786
     4   H       0.881424
     5   H       0.981576
     6   H       0.978386
     7   H       0.978386
     8   C       3.935747
     9   C       3.935747
    10   H       0.978349
    11   H       0.978349
    12   H       0.980365
    13   H       0.980365
    14   H       0.982915
    15   H       0.982915

 Total charge composition:

   CEN ATOM         s          p       ELECTRONS ->P.CHARGE
     1   C       3.03466    3.38517      6.41983   -0.41983
     2   C       2.93597    2.81001      5.74597    0.25403
     3   O       3.63328    4.94499      8.57827   -0.57827
     4   H       0.65565                 0.65565    0.34435
     5   H       0.86426                 0.86426    0.13574
     6   H       0.85298                 0.85298    0.14702
     7   H       0.85298                 0.85298    0.14702
     8   C       3.04012    3.39288      6.43300   -0.43300
     9   C       3.04012    3.39288      6.43300   -0.43300
    10   H       0.85286                 0.85286    0.14714
    11   H       0.85286                 0.85286    0.14714
    12   H       0.85987                 0.85987    0.14013
    13   H       0.85987                 0.85987    0.14013
    14   H       0.86929                 0.86929    0.13071
    15   H       0.86929                 0.86929    0.13071

 Total charge composition, AO contributions:

   CEN ATOM SHL      SPHERICAL COMPONENTS
     1   C  1s       1.99086
     1   C  2s       1.04380
     1   C  2p       1.03954    1.16594    1.17969

     2   C  1s       1.99251
     2   C  2s       0.94345
     2   C  2p       1.01140    0.78580    1.01281

     3   O  1s       1.99703
     3   O  2s       1.63625
     3   O  2p       1.48213    1.50224    1.96062

     4   H  1s       0.65565

     5   H  1s       0.86426

     6   H  1s       0.85298

     7   H  1s       0.85298

     8   C  1s       1.99096
     8   C  2s       1.04916
     8   C  2p       1.14781    1.14776    1.09731

     9   C  1s       1.99096
     9   C  2s       1.04916
     9   C  2p       1.14781    1.14776    1.09731

    10   H  1s       0.85286

    11   H  1s       0.85286

    12   H  1s       0.85987

    13   H  1s       0.85987

    14   H  1s       0.86929

    15   H  1s       0.86929

 Summary of localized orbital composition:   [THRPRINT= 0.020]

   ORB  GRP  ORB.ENERGY      CENTERS/CHARGES
     1   1   -19.495938      O  3   2.000
     2   1   -10.528325      C  2   2.000
     3   1   -10.434423      C  9   2.000
     4   1   -10.434423      C  8   2.000
     5   1   -10.427784      C  1   2.000
     6   1    -0.861136      O  3   1.346   H  4   0.645
     7   1    -0.818178      O  3   1.286   C  2   0.698
     8   1    -0.668639      O  3   1.983
     9   1    -0.656716      C  8   1.006   C  2   0.980
    10   1    -0.656716      C  9   1.006   C  2   0.980
    11   1    -0.655421      C  2   0.990   C  1   0.988   (other: 0.022)
    12   1    -0.586257      C  8   1.136   H 12   0.851
    13   1    -0.586257      C  9   1.136   H 13   0.851
    14   1    -0.584259      C  8   1.126   H 14   0.863
    15   1    -0.584259      C  9   1.126   H 15   0.863
    16   1    -0.581222      C  1   1.130   H  5   0.857
    17   1    -0.580469      C  8   1.145   H 10   0.845
    18   1    -0.580469      C  9   1.145   H 11   0.845
    19   1    -0.575491      C  1   1.144   H  7   0.845
    20   1    -0.575491      C  1   1.144   H  6   0.845
    21   1    -0.394027      O  3   1.961   (other: 0.039)

 Localized orbitals saved to record      2200.2  (orbital set 4)


 **********************************************************************************************************************************
 DATASETS  * FILE   NREC   LENGTH (MB)   RECORD NAMES
              1      20      928.02       500      610      700      900      950      970     1000      129      960     1100   
                                          VAR    BASINP    GEOM    SYMINP    ZMAT    AOBASIS   BASIS     P2S    ABASIS      S 
                                         1400     1410     1200     1210     1080     1600     1650     1300     1700     1800   
                                           T        V       H0       H01     AOSYM     SMH    MOLCAS    ERIS     OPER     GRID   

              2       5        5.27       700     1000      520     1800     2200   
                                         GEOM     BASIS   MCVARS    GRID      UKS  

 PROGRAMS   *        TOTAL      IBBA       UKS       INT
 CPU TIMES  *       307.36      0.07    282.44     24.70
 REAL TIME  *       343.68 SEC
 DISK USED  *         3.90 GB      
 **********************************************************************************************************************************
 Molecular orbitals read from record     2200.2  Type=UKS/LOCAL(IBO)  
 Occupation numbers read from record     2200.2  Type=UKS/LOCAL(IBO)  
 Orbital energies read from record       2200.2  Type=UKS/LOCAL(IBO)  
 Redundancy group numbers read from rec  2200.2  Type=UKS/BETA (state 1.1)

 IBBA/TZVP energy=      0.000000000000

        UKS-SCF 
   -233.72946233
 **********************************************************************************************************************************
 Molpro calculation terminated
