
 Primary working directories    : /tmp/sb13343
 Secondary working directories  : /tmp/sb13343
 Wavefunction directory         : /panfs/panasas01/chem/sb13343/wfu/
 Main file repository           : /tmp/sb13343/

 SHA1      : b4a5b34a9e711420743f49e6833241d17c61fb3c
 NAME      : 2099.9.b4a5b34
 ARCHNAME  : linux/x86_64_openmp
 FC        : /cm/shared/languages/GCC-6.1/bin/gfortran
 BLASLIB   : -lblas
 id        : simonbennie

 Nodes     nprocs
 node32-002    1

 Using customized tuning parameters: mindgm=1; mindgv=20; mindgc=4; mindgr=1; noblas=0; minvec=7
 default implementation of scratch files=df  

 memory,500,m
 geomtyp=xyz
 nosym
 noorient
 geometry={
 C         -1.53233        0.02247        0.00000
 C         -0.00192        0.01421        0.00000
 O          0.37239        1.40356        0.00000
 H          1.34248        1.44036        0.00000
 H         -1.92991       -0.99819        0.00000
 H         -1.90797        0.54382       -0.88653
 H         -1.90797        0.54382        0.88653
 C          0.54303       -0.66466       -1.26580
 C          0.54303       -0.66466        1.26580
 H          0.17836       -0.14752       -2.15943
 H          0.17836       -0.14752        2.15943
 H          0.23752       -1.71600       -1.32280
 H          0.23752       -1.71600        1.32280
 H          1.64084       -0.63767       -1.28032
 H          1.64084       -0.63767        1.28032
 }
 basis={ default,sto-3g }
 {uks,VWN80,direct;wf,42,1,0}
 {ibba,bonds=1}

 Variables initialized (895), CPU time= 0.00 sec
 Commands  initialized (725), CPU time= 0.02 sec, 591 directives.
 Default parameters read. Elapsed time= 0.12 sec

 Checking input...
 Passed
1


                                         ***  PROGRAM SYSTEM MOLPRO  ***
                                       Copyright, TTI GmbH Stuttgart, 2015
                                    Version 2099.9 linked May 26 2017 16:03:21


 **********************************************************************************************************************************
 LABEL *                                                                                 
  64 bit serial version                                                                  DATE: 09-Jun-17          TIME: 03:22:54  
 **********************************************************************************************************************************

 SHA1:             b4a5b34a9e711420743f49e6833241d17c61fb3c
 **********************************************************************************************************************************
 SETTING GEOMTYP        =    XYZ

 Variable memory set to  500000000 words,  buffer space 

 ZSYMEL=NOSYM

 SETTING BASIS          =    STO-3G


 Recomputing integrals since basis changed


 Using spherical harmonics

 Library entry C      S STO-3G               selected for orbital group  1
 Library entry C      P STO-3G               selected for orbital group  1
 Library entry O      S STO-3G               selected for orbital group  2
 Library entry O      P STO-3G               selected for orbital group  2
 Library entry H      S STO-3G               selected for orbital group  3


 PROGRAM * SEWARD (Integral evaluation for generally contracted gaussian basis sets)     Author: Roland Lindh, 1990

 Geometry written to block  1 of record 700


 Point group  C1  



 ATOMIC COORDINATES

 NR  ATOM    CHARGE       X              Y              Z

   1  C       6.00   -2.895684032    0.042462146    0.000000000
   2  C       6.00   -0.003628274    0.026853008    0.000000000
   3  O       8.00    0.703715112    2.652343999    0.000000000
   4  H       1.00    2.536919528    2.721885921    0.000000000
   5  H       1.00   -3.647001345   -1.886305720    0.000000000
   6  H       1.00   -3.605540754    1.027670861   -1.675298901
   7  H       1.00   -3.605540754    1.027670861    1.675298901
   8  C       6.00    1.026177977   -1.256025366   -2.392015328
   9  C       6.00    1.026177977   -1.256025366    2.392015328
  10  H       1.00    0.337051552   -0.278772398   -4.080731285
  11  H       1.00    0.337051552   -0.278772398    4.080731285
  12  H       1.00    0.448847749   -3.242770030   -2.499729718
  13  H       1.00    0.448847749   -3.242770030    2.499729718
  14  H       1.00    3.100738214   -1.205021658   -2.419454152
  15  H       1.00    3.100738214   -1.205021658    2.419454152

 Bond lengths in Bohr (Angstrom)

 1-2  2.892097881  1-5  2.069933136  1-6  2.069096224  1-7  2.069096224  2-3  2.719106031
     ( 1.530432290)     ( 1.095361444)     ( 1.094918569)     ( 1.094918569)     ( 1.438888946)

  2- 8  2.903104402   2- 9  2.903104402   3- 4  1.834522965   8-10  2.069222119   8-12  2.071730422
       ( 1.536256691)       ( 1.536256691)       ( 0.970787746)       ( 1.094985190)       ( 1.096312526)

  8-14  2.075368508   9-11  2.069222119   9-13  2.071730422   9-15  2.075368508
       ( 1.098237719)       ( 1.094985190)       ( 1.096312526)       ( 1.098237719)

 Bond angles

  1-2-3  104.76902697   1-2-8  110.92255387   1-2-9  110.92255387   2-1-5  110.97328220

  2- 1- 6  110.22090701   2- 1- 7  110.22090701   2- 3- 4  107.25071562   2- 8-10  110.21836376

  2- 8-12  111.57747468   2- 8-14  110.77023896   2- 9-11  110.21836376   2- 9-13  111.57747468

  2- 9-15  110.77023896   3- 2- 8  109.53648747   3- 2- 9  109.53648747   5- 1- 6  108.61190457

  5- 1- 7  108.61190457   6- 1- 7  108.12870271   8- 2- 9  110.96453384  10- 8-12  108.52192632

 10- 8-14  108.08997829  11- 9-13  108.52192632  11- 9-15  108.08997829  12- 8-14  107.54424578

 13- 9-15  107.54424578

 NUCLEAR CHARGE:                   42
 NUMBER OF PRIMITIVE AOS:         105
 NUMBER OF SYMMETRY AOS:          105
 NUMBER OF CONTRACTIONS:           35   (  35A   )
 NUMBER OF CORE ORBITALS:           5   (   5A   )
 NUMBER OF VALENCE ORBITALS:       30   (  30A   )


 NUCLEAR REPULSION ENERGY  198.77359127


 Eigenvalues of metric

         1 0.207E+00 0.227E+00 0.228E+00 0.304E+00 0.354E+00 0.360E+00 0.361E+00 0.363E+00


 Contracted 2-electron integrals neglected if value below      1.0D-11
 AO integral compression algorithm  1   Integral accuracy      1.0D-11

     1.573 MB (compressed) written to integral file ( 87.8%)


 NUMBER OF SORTED TWO-ELECTRON INTEGRALS:     198765.     BUFFER LENGTH:  32768
 NUMBER OF SEGMENTS:   1  SEGMENT LENGTH:     198765      RECORD LENGTH: 524288

 Memory used in sort:       0.76 MW

 SORT1 READ      224962. AND WROTE      188577. INTEGRALS IN      1 RECORDS. CPU TIME:     0.00 SEC, REAL TIME:     0.01 SEC
 SORT2 READ      188577. AND WROTE      198765. INTEGRALS IN      6 RECORDS. CPU TIME:     0.03 SEC, REAL TIME:     0.04 SEC

 FILE SIZES:   FILE 1:    31.8 MBYTE,  FILE 4:     4.2 MBYTE,   TOTAL:     36.0 MBYTE

 OPERATOR DM      FOR CENTER  0  COORDINATES:    0.000000    0.000000    0.000000


 **********************************************************************************************************************************
 DATASETS  * FILE   NREC   LENGTH (MB)   RECORD NAMES
              1      19       31.10       500      610      700      900      950      970     1000      129      960     1100   
                                          VAR    BASINP    GEOM    SYMINP    ZMAT    AOBASIS   BASIS     P2S    ABASIS      S 
                                         1400     1410     1200     1210     1080     1600     1650     1300     1700   
                                           T        V       H0       H01     AOSYM     SMH    MOLCAS    ERIS     OPER   

 PROGRAMS   *        TOTAL       INT
 CPU TIMES  *         0.61      0.46
 REAL TIME  *         2.08 SEC
 DISK USED  *        36.55 MB      
 **********************************************************************************************************************************

 Density functional group VWN80=VWN5
 Functional: VWN5(Automatically generated (new) VWN5)                          Gradient terms: 0
 Use grid at  1800.2

 Functional: VWN5                      Factor:  1.0000

 Generated new metagrid on record  1800.2 with target accuracy 1.0D-06 and 53396 points in CPU time    1.7
 Computed new grid on record 1800.1 in CPU time    1.9
   19034 words reserved for DFT integration

 PROGRAM * UKS-SCF (Unrestricted Kohn-Sham)     Authors: W. Meyer, H.-J. Werner, P.J. Knowles, 1993

 NUMBER OF ELECTRONS:      21+   21-    SPACE SYMMETRY=1    SPIN SYMMETRY: Singlet 
 CONVERGENCE THRESHOLDS:    1.00E-05 (Density)    1.00E-06 (Energy)
 MAX. NUMBER OF ITERATIONS:       60
 INTERPOLATION TYPE:            DIIS
 INTERPOLATION STEPS:              2 (START)      1 (STEP)
 LEVEL SHIFTS:                 -0.20 (ALPHA)  -0.20 (BETA) 



 Use fine grid record 1800.2 for energy threshold  1.0D-06
 Orbital guess generated from atomic densities. Full valence occupancy:   21

 Molecular orbital dump at record        2200.2

 Initial alpha occupation  21
 Initial beta  occupation  21

 ITERATION    DDIFF          GRAD             ENERGY        2-EL.EN.            DIPOLE MOMENTS         DIIS
    1      0.000D+00      0.000D+00      -199.33278545    623.132227    0.38835    0.15646    0.00000    0
    2      0.376D-01      0.128D-01      -199.42519426    613.308751    0.14946   -0.00712    0.00000    1
    3      0.116D-01      0.577D-02      -199.44665207    615.828367    0.16632    0.11721    0.00000    2
    4      0.103D-02      0.529D-03      -199.44686458    615.920229    0.17942    0.09390    0.00000    3
    5      0.592D-03      0.158D-03      -199.44690362    615.886052    0.17642    0.10363    0.00000    4
    6      0.270D-03      0.529D-04      -199.44690857    615.889343    0.17682    0.10493    0.00000    5
    7      0.665D-04      0.262D-04      -199.44690908    615.887379    0.17685    0.10462    0.00000    6
    8      0.189D-04      0.513D-05      -199.44690911    615.887177    0.17681    0.10481    0.00000    6
    9      0.348D-05      0.803D-06      -199.44690911    615.887201    0.17682    0.10480    0.00000    6
   10      0.143D-05      0.490D-06      -199.44690911    615.887216    0.17681    0.10480    0.00000    7

 Final alpha occupancy:  21
 Final beta  occupancy:  21

 !UKS STATE 1.1 Energy               -199.446909111269
 Nuclear energy                       198.77359127
 One-electron energy                 -703.51031812
 Two-electron energy                  307.94360811
 Density functional                    -2.65379037     VWN5=-2.65379037
 Virial quotient                       -0.89429639
 !UKS STATE 1.1 Dipole moment           0.17681196     0.10479761     0.00000000
 Dipole moment /Debye                   0.44938175     0.26635150     0.00000000

 Orbital energies for positive spin:

         1.1          2.1          3.1          4.1          5.1          6.1          7.1          8.1          9.1         10.1
    -15.815832    -7.741969    -7.735360    -7.728121    -7.725682    -0.328862    -0.182280    -0.117997    -0.114940     0.018146

        11.1         12.1         13.1         14.1         15.1         16.1         17.1         18.1         19.1         20.1
      0.059204     0.080008     0.086975     0.134207     0.138573     0.166553     0.180140     0.206956     0.212776     0.406264

        21.1         22.1         23.1
      0.499116     0.748530     0.795571

 Orbital energies for negative spin:

         1.1          2.1          3.1          4.1          5.1          6.1          7.1          8.1          9.1         10.1
    -15.815832    -7.741969    -7.735360    -7.728121    -7.725682    -0.328862    -0.182280    -0.117997    -0.114940     0.018146

        11.1         12.1         13.1         14.1         15.1         16.1         17.1         18.1         19.1         20.1
      0.059204     0.080008     0.086975     0.134207     0.138573     0.166553     0.180140     0.206956     0.212776     0.406264

        21.1         22.1         23.1
      0.499116     0.748530     0.795571

 HOMO     21.1     0.499116 =      13.5816eV
 LUMO     22.1     0.748530 =      20.3685eV
 LUMO-HOMO         0.249414 =       6.7869eV

 EXPECTATION VALUE OF S**2:             0.00000000

 Natural orbitals saved to record    2200.2 (Orbital set 3)

 Orbital spaces for UNO-CAS (Min. occupation: 0.020  Max. occupation: 1.980):

 Closed:       21
 Active:        0


 **********************************************************************************************************************************
 DATASETS  * FILE   NREC   LENGTH (MB)   RECORD NAMES
              1      20       32.81       500      610      700      900      950      970     1000      129      960     1100   
                                          VAR    BASINP    GEOM    SYMINP    ZMAT    AOBASIS   BASIS     P2S    ABASIS      S 
                                         1400     1410     1200     1210     1080     1600     1650     1300     1700     1800   
                                           T        V       H0       H01     AOSYM     SMH    MOLCAS    ERIS     OPER     GRID   

              2       5        3.05       700     1000      520     1800     2200   
                                         GEOM     BASIS   MCVARS    GRID      UKS  

 PROGRAMS   *        TOTAL       UKS       INT
 CPU TIMES  *         5.23      4.62      0.46
 REAL TIME  *        10.28 SEC
 DISK USED  *        36.55 MB      
 **********************************************************************************************************************************


 PROGRAM * Intrinsic Basis Bonding Analysis (IBBA)          Author: G. Knizia

 Molecular orbitals read from record     2200.2  Type=UKS/ALPHA (state 1.1)
 Fock matrix read from record            2200.2  Type=UKS/TOTAL (state 1.1)
 Orbital energies read from record       2200.2  Type=UKS/ALPHA (state 1.1)
 Density matrix read from record         2200.2  Type=UKS/CHARGE (state 1.1)

 Number of core orbitals:           5 (   5 )
 Number of closed-shell orbitals:  16 (  16 )

 Basis set MINAO-AUTO-PP generated.      Number of basis functions:   35 

 Polarized AO type:                A = (O Ot + (1-O)(1-Ot)) P12
 Orthogonalization method:         Symmetric (Loewdin)
 Localization functional:          L = sum[A,i] <i|n_A|i>^4 -> max

 Localization group 1:  21 orbitals, occupancy  2.000
 Iterative localization: IB/PM,    7 iter; Final gradient 0.84E-08

 Bond order analysis:       [THRPRINT= 0.020]

   CEN ATOM   CEN ATOM     WIBERG.BO      RENORM.BO
     1   C  -   2   C       0.972977       0.976824
     1   C  -   5   H       0.970758       0.984395
     1   C  -   6   H       0.969034       0.981632
     1   C  -   7   H       0.969034       0.981632

     2   C  -   3   O       1.055849       1.008884
     2   C  -   1   C       0.972977       0.976824
     2   C  -   8   C       0.963245       0.936608
     2   C  -   9   C       0.963245       0.936608

     3   O  -   2   C       1.055849       1.008884
     3   O  -   4   H       0.974254       0.975324
     3   O  -   9   C       0.048145       0.025174
     3   O  -   8   C       0.048145       0.025174

     4   H  -   3   O       0.974254       0.975324

     5   H  -   1   C       0.970758       0.984395

     6   H  -   1   C       0.969034       0.981632

     7   H  -   1   C       0.969034       0.981632

     8   C  -  10   H       0.969507       0.980862
     8   C  -  14   H       0.968733       0.980397
     8   C  -  12   H       0.967823       0.977686
     8   C  -   2   C       0.963245       0.936608
     8   C  -   3   O       0.048145       0.025174

     9   C  -  11   H       0.969507       0.980862
     9   C  -  15   H       0.968733       0.980397
     9   C  -  13   H       0.967823       0.977686
     9   C  -   2   C       0.963245       0.936608
     9   C  -   3   O       0.048145       0.025174

    10   H  -   8   C       0.969507       0.980862

    11   H  -   9   C       0.969507       0.980862

    12   H  -   8   C       0.967823       0.977686

    13   H  -   9   C       0.967823       0.977686

    14   H  -   8   C       0.968733       0.980397

    15   H  -   9   C       0.968733       0.980397


 Valency analysis:

   CEN ATOM   TOT.VALENCE
     1   C       3.952199
     2   C       3.979111
     3   O       2.205265
     4   H       0.997172
     5   H       0.996183
     6   H       0.996127
     7   H       0.996127
     8   C       3.952951
     9   C       3.952951
    10   H       0.996681
    11   H       0.996681
    12   H       0.996497
    13   H       0.996497
    14   H       0.997050
    15   H       0.997050

 Total charge composition:

   CEN ATOM         s          p       ELECTRONS ->P.CHARGE
     1   C       2.88705    3.31604      6.20309   -0.20309
     2   C       2.87654    3.06541      5.94194    0.05806
     3   O       3.60564    4.39474      8.00038   -0.00038
     4   H       0.94683                 0.94683    0.05317
     5   H       0.93822                 0.93822    0.06178
     6   H       0.93777                 0.93777    0.06223
     7   H       0.93777                 0.93777    0.06223
     8   C       2.89334    3.32477      6.21811   -0.21811
     9   C       2.89334    3.32477      6.21811   -0.21811
    10   H       0.94239                 0.94239    0.05761
    11   H       0.94239                 0.94239    0.05761
    12   H       0.94082                 0.94082    0.05918
    13   H       0.94082                 0.94082    0.05918
    14   H       0.94569                 0.94569    0.05431
    15   H       0.94569                 0.94569    0.05431

 Total charge composition, AO contributions:

   CEN ATOM SHL      SPHERICAL COMPONENTS
     1   C  1s       1.99809
     1   C  2s       0.88895
     1   C  2p       1.07178    1.12206    1.12220

     2   C  1s       1.99847
     2   C  2s       0.87807
     2   C  2p       1.04580    0.96948    1.05012

     3   O  1s       1.99893
     3   O  2s       1.60671
     3   O  2p       1.20795    1.27180    1.91499

     4   H  1s       0.94683

     5   H  1s       0.93822

     6   H  1s       0.93777

     7   H  1s       0.93777

     8   C  1s       1.99814
     8   C  2s       0.89520
     8   C  2p       1.11118    1.11460    1.09900

     9   C  1s       1.99814
     9   C  2s       0.89520
     9   C  2p       1.11118    1.11460    1.09900

    10   H  1s       0.94239

    11   H  1s       0.94239

    12   H  1s       0.94082

    13   H  1s       0.94082

    14   H  1s       0.94569

    15   H  1s       0.94569

 Summary of localized orbital composition:   [THRPRINT= 0.020]

   ORB  GRP  ORB.ENERGY      CENTERS/CHARGES
     1   1   -15.712026      O  3   2.000
     2   1    -7.663404      C  2   2.000
     3   1    -7.653364      C  1   2.000
     4   1    -7.644800      C  8   2.000
     5   1    -7.644800      C  9   2.000
     6   1    -0.086399      O  3   1.050   H  4   0.939
     7   1    -0.054630      O  3   1.046   C  2   0.931   (other: 0.023)
     8   1     0.010678      C  1   0.996   C  2   0.974   (other: 0.031)
     9   1     0.020157      C  8   1.011   C  2   0.969   (other: 0.020)
    10   1     0.020157      C  9   1.011   C  2   0.969   (other: 0.020)
    11   1     0.041596      C  1   1.060   H  5   0.929
    12   1     0.041909      C  1   1.061   H  7   0.928
    13   1     0.041909      C  1   1.061   H  6   0.928
    14   1     0.042312      C  9   1.052   H 15   0.936
    15   1     0.042312      C  8   1.052   H 14   0.936
    16   1     0.043945      C  8   1.057   H 10   0.933
    17   1     0.043945      C  9   1.057   H 11   0.933
    18   1     0.046866      C  8   1.059   H 12   0.930
    19   1     0.046866      C  9   1.059   H 13   0.930
    20   1     0.233777      O  3   1.975   (other: 0.025)
    21   1     0.480880      O  3   1.915   C  2   0.039   C  8   0.021   C  9   0.021

 Localized orbitals saved to record      2200.2  (orbital set 4)


 **********************************************************************************************************************************
 DATASETS  * FILE   NREC   LENGTH (MB)   RECORD NAMES
              1      20       32.81       500      610      700      900      950      970     1000      129      960     1100   
                                          VAR    BASINP    GEOM    SYMINP    ZMAT    AOBASIS   BASIS     P2S    ABASIS      S 
                                         1400     1410     1200     1210     1080     1600     1650     1300     1700     1800   
                                           T        V       H0       H01     AOSYM     SMH    MOLCAS    ERIS     OPER     GRID   

              2       5        3.06       700     1000      520     1800     2200   
                                         GEOM     BASIS   MCVARS    GRID      UKS  

 PROGRAMS   *        TOTAL      IBBA       UKS       INT
 CPU TIMES  *         5.26      0.03      4.62      0.46
 REAL TIME  *        10.43 SEC
 DISK USED  *        36.55 MB      
 **********************************************************************************************************************************
 Molecular orbitals read from record     2200.2  Type=UKS/LOCAL(IBO)  
 Occupation numbers read from record     2200.2  Type=UKS/LOCAL(IBO)  
 Orbital energies read from record       2200.2  Type=UKS/LOCAL(IBO)  
 Redundancy group numbers read from rec  2200.2  Type=UKS/BETA (state 1.1)

 IBBA/STO-3G energy=      0.000000000000

        UKS-SCF 
   -199.44690911
 **********************************************************************************************************************************
 Molpro calculation terminated
