
 Primary working directories    : /local
 Secondary working directories  : /local
 Wavefunction directory         : /local/
 Main file repository           : /local/

 SHA1      : b4a5b34a9e711420743f49e6833241d17c61fb3c
 NAME      : 2099.9.b4a5b34
 ARCHNAME  : linux/x86_64_openmp
 FC        : /cm/shared/languages/GCC-6.1/bin/gfortran
 BLASLIB   : -lblas
 id        : simonbennie

 Nodes     nprocs
 node35-036    1

 Using customized tuning parameters: mindgm=1; mindgv=20; mindgc=4; mindgr=1; noblas=0; minvec=7
 default implementation of scratch files=df  

 memory,500,m
 geomtyp=xyz
 nosym
 noorient
 geometry={
 C         -1.53233        0.02247        0.00000
 C         -0.00192        0.01421        0.00000
 O          0.37239        1.40356        0.00000
 H          1.34248        1.44036        0.00000
 H         -1.92991       -0.99819        0.00000
 H         -1.90797        0.54382       -0.88653
 H         -1.90797        0.54382        0.88653
 C          0.54303       -0.66466       -1.26580
 C          0.54303       -0.66466        1.26580
 H          0.17836       -0.14752       -2.15943
 H          0.17836       -0.14752        2.15943
 H          0.23752       -1.71600       -1.32280
 H          0.23752       -1.71600        1.32280
 H          1.64084       -0.63767       -1.28032
 H          1.64084       -0.63767        1.28032
 }
 basis={ default,tzvp }
 {uks,PBEREV,direct;wf,42,1,0}
 {ibba,bonds=1}

 Variables initialized (895), CPU time= 0.00 sec
 Commands  initialized (725), CPU time= 0.02 sec, 591 directives.
 Default parameters read. Elapsed time= 0.09 sec

 Checking input...
 Passed
1


                                         ***  PROGRAM SYSTEM MOLPRO  ***
                                       Copyright, TTI GmbH Stuttgart, 2015
                                    Version 2099.9 linked May 26 2017 16:03:21


 **********************************************************************************************************************************
 LABEL *                                                                                 
  64 bit serial version                                                                  DATE: 12-Jun-17          TIME: 19:42:59  
 **********************************************************************************************************************************

 SHA1:             b4a5b34a9e711420743f49e6833241d17c61fb3c
 **********************************************************************************************************************************
 SETTING GEOMTYP        =    XYZ

 Variable memory set to  500000000 words,  buffer space 

 ZSYMEL=NOSYM

 SETTING BASIS          =    TZVP


 Recomputing integrals since basis changed


 Using spherical harmonics

 Library entry C      S def2-TZVP            selected for orbital group  1
 Library entry C      P def2-TZVP            selected for orbital group  1
 Library entry C      D def2-TZVP            selected for orbital group  1
 Library entry C      F def2-TZVP            selected for orbital group  1
 Library entry O      S def2-TZVP            selected for orbital group  2
 Library entry O      P def2-TZVP            selected for orbital group  2
 Library entry O      D def2-TZVP            selected for orbital group  2
 Library entry O      F def2-TZVP            selected for orbital group  2
 Library entry H      S def2-TZVP            selected for orbital group  3
 Library entry H      P def2-TZVP            selected for orbital group  3


 PROGRAM * SEWARD (Integral evaluation for generally contracted gaussian basis sets)     Author: Roland Lindh, 1990

 Geometry written to block  1 of record 700


 Point group  C1  



 ATOMIC COORDINATES

 NR  ATOM    CHARGE       X              Y              Z

   1  C       6.00   -2.895684032    0.042462146    0.000000000
   2  C       6.00   -0.003628274    0.026853008    0.000000000
   3  O       8.00    0.703715112    2.652343999    0.000000000
   4  H       1.00    2.536919528    2.721885921    0.000000000
   5  H       1.00   -3.647001345   -1.886305720    0.000000000
   6  H       1.00   -3.605540754    1.027670861   -1.675298901
   7  H       1.00   -3.605540754    1.027670861    1.675298901
   8  C       6.00    1.026177977   -1.256025366   -2.392015328
   9  C       6.00    1.026177977   -1.256025366    2.392015328
  10  H       1.00    0.337051552   -0.278772398   -4.080731285
  11  H       1.00    0.337051552   -0.278772398    4.080731285
  12  H       1.00    0.448847749   -3.242770030   -2.499729718
  13  H       1.00    0.448847749   -3.242770030    2.499729718
  14  H       1.00    3.100738214   -1.205021658   -2.419454152
  15  H       1.00    3.100738214   -1.205021658    2.419454152

 Bond lengths in Bohr (Angstrom)

 1-2  2.892097881  1-5  2.069933136  1-6  2.069096224  1-7  2.069096224  2-3  2.719106031
     ( 1.530432290)     ( 1.095361444)     ( 1.094918569)     ( 1.094918569)     ( 1.438888946)

  2- 8  2.903104402   2- 9  2.903104402   3- 4  1.834522965   8-10  2.069222119   8-12  2.071730422
       ( 1.536256691)       ( 1.536256691)       ( 0.970787746)       ( 1.094985190)       ( 1.096312526)

  8-14  2.075368508   9-11  2.069222119   9-13  2.071730422   9-15  2.075368508
       ( 1.098237719)       ( 1.094985190)       ( 1.096312526)       ( 1.098237719)

 Bond angles

  1-2-3  104.76902697   1-2-8  110.92255387   1-2-9  110.92255387   2-1-5  110.97328220

  2- 1- 6  110.22090701   2- 1- 7  110.22090701   2- 3- 4  107.25071562   2- 8-10  110.21836376

  2- 8-12  111.57747468   2- 8-14  110.77023896   2- 9-11  110.21836376   2- 9-13  111.57747468

  2- 9-15  110.77023896   3- 2- 8  109.53648747   3- 2- 9  109.53648747   5- 1- 6  108.61190457

  5- 1- 7  108.61190457   6- 1- 7  108.12870271   8- 2- 9  110.96453384  10- 8-12  108.52192632

 10- 8-14  108.08997829  11- 9-13  108.52192632  11- 9-15  108.08997829  12- 8-14  107.54424578

 13- 9-15  107.54424578

 NUCLEAR CHARGE:                   42
 NUMBER OF PRIMITIVE AOS:         335
 NUMBER OF SYMMETRY AOS:          310
 NUMBER OF CONTRACTIONS:          215   ( 215A   )
 NUMBER OF CORE ORBITALS:           5   (   5A   )
 NUMBER OF VALENCE ORBITALS:       30   (  30A   )


 NUCLEAR REPULSION ENERGY  198.77359127


 Eigenvalues of metric

         1 0.262E-03 0.510E-03 0.539E-03 0.594E-03 0.697E-03 0.755E-03 0.210E-02 0.239E-02


 Contracted 2-electron integrals neglected if value below      1.0D-11
 AO integral compression algorithm  1   Integral accuracy      1.0D-11

     977.797 MB (compressed) written to integral file ( 41.7%)


 NUMBER OF SORTED TWO-ELECTRON INTEGRALS:  269595810.     BUFFER LENGTH:  32768
 NUMBER OF SEGMENTS:  17  SEGMENT LENGTH:   15999762      RECORD LENGTH: 524288

 Memory used in sort:      16.56 MW

 SORT1 READ   292827432. AND WROTE   238500613. INTEGRALS IN    690 RECORDS. CPU TIME:     3.96 SEC, REAL TIME:    44.21 SEC
 SORT2 READ   238500613. AND WROTE   269595810. INTEGRALS IN   3730 RECORDS. CPU TIME:     6.49 SEC, REAL TIME:    56.31 SEC

 FILE SIZES:   FILE 1:  1009.7 MBYTE,  FILE 4:  2894.1 MBYTE,   TOTAL:   3903.8 MBYTE

 OPERATOR DM      FOR CENTER  0  COORDINATES:    0.000000    0.000000    0.000000


 **********************************************************************************************************************************
 DATASETS  * FILE   NREC   LENGTH (MB)   RECORD NAMES
              1      19      926.27       500      610      700      900      950      970     1000      129      960     1100   
                                          VAR    BASINP    GEOM    SYMINP    ZMAT    AOBASIS   BASIS     P2S    ABASIS      S 
                                         1400     1410     1200     1210     1080     1600     1650     1300     1700   
                                           T        V       H0       H01     AOSYM     SMH    MOLCAS    ERIS     OPER   

 PROGRAMS   *        TOTAL       INT
 CPU TIMES  *        28.22     28.08
 REAL TIME  *       138.70 SEC
 DISK USED  *         3.90 GB      
 **********************************************************************************************************************************

 Density functional group PBEREV=PBEXREV+PBEC
 Functional: PBEXREV(Automatically generated (new) PBEXREV)                    Gradient terms: 1
 Functional: PBEC(Automatically generated (new) PBEC)                          Gradient terms: 1
 Use grid at  1800.2

 Functional: PBEXREV                   Factor:  1.0000
 Functional: PBEC                      Factor:  1.0000

 Generated new metagrid on record  1800.2 with target accuracy 1.0D-06 and 54596 points in CPU time    1.7
 Computed new grid on record 1800.1 in CPU time    1.9
  175219 words reserved for DFT integration

 PROGRAM * UKS-SCF (Unrestricted Kohn-Sham)     Authors: W. Meyer, H.-J. Werner, P.J. Knowles, 1993

 NUMBER OF ELECTRONS:      21+   21-    SPACE SYMMETRY=1    SPIN SYMMETRY: Singlet 
 CONVERGENCE THRESHOLDS:    1.00E-05 (Density)    1.00E-06 (Energy)
 MAX. NUMBER OF ITERATIONS:       60
 INTERPOLATION TYPE:            DIIS
 INTERPOLATION STEPS:              2 (START)      1 (STEP)
 LEVEL SHIFTS:                 -0.20 (ALPHA)  -0.20 (BETA) 



 Use fine grid record 1800.2 for energy threshold  1.0D-06
 Orbital guess generated from atomic densities. Full valence occupancy:   21

 Molecular orbital dump at record        2200.2

 Initial alpha occupation  21
 Initial beta  occupation  21

 ITERATION    DDIFF          GRAD             ENERGY        2-EL.EN.            DIPOLE MOMENTS         DIIS
    1      0.000D+00      0.000D+00      -233.39727878    639.930043    0.69445   -0.74888    0.00000    0
    2      0.545D-02      0.353D-02      -233.61748419    614.750882    0.19426   -0.40601    0.00000    1
    3      0.185D-02      0.202D-02      -233.68414572    622.379666    0.36358   -0.53232    0.00000    2
    4      0.421D-03      0.270D-03      -233.68541974    622.216079    0.34906   -0.47481    0.00000    3
    5      0.474D-03      0.112D-03      -233.68586161    622.083368    0.34463   -0.47406    0.00000    4
    6      0.409D-03      0.343D-04      -233.68594465    622.047595    0.34211   -0.46405    0.00000    5
    7      0.893D-04      0.126D-04      -233.68594984    622.011232    0.34012   -0.46314    0.00000    6
    8      0.403D-04      0.721D-05      -233.68595137    622.024637    0.33999   -0.46363    0.00000    7
    9      0.121D-04      0.844D-06      -233.68595143    622.023779    0.34005   -0.46323    0.00000    6
   10      0.286D-05      0.275D-06      -233.68595143    622.023544    0.33992   -0.46341    0.00000    7
   11      0.620D-06      0.125D-06      -233.68595143    622.023952    0.33995   -0.46338    0.00000    7

 Final alpha occupancy:  21
 Final beta  occupancy:  21

 !UKS STATE 1.1 Energy               -233.685951433950
 Nuclear energy                       198.77359127
 One-electron energy                 -709.47936981
 Two-electron energy                  311.01197600
 Density functional                   -33.99214890     PBEXREV=-32.62592805 PBEC= -1.36622084
 Virial quotient                       -1.00439002
 !UKS STATE 1.1 Dipole moment           0.33994899    -0.46338148     0.00000000
 Dipole moment /Debye                   0.86400756    -1.17772111     0.00000000

 Orbital energies for positive spin:

         1.1          2.1          3.1          4.1          5.1          6.1          7.1          8.1          9.1         10.1
    -18.752150    -9.949741    -9.881964    -9.881960    -9.877321    -0.929029    -0.714267    -0.623871    -0.623183    -0.511294

        11.1         12.1         13.1         14.1         15.1         16.1         17.1         18.1         19.1         20.1
     -0.437106    -0.401438    -0.398767    -0.363575    -0.350498    -0.334509    -0.321455    -0.309270    -0.303234    -0.275490

        21.1         22.1         23.1
     -0.221186     0.003421     0.047615

 Orbital energies for negative spin:

         1.1          2.1          3.1          4.1          5.1          6.1          7.1          8.1          9.1         10.1
    -18.752149    -9.949741    -9.881963    -9.881959    -9.877320    -0.929028    -0.714267    -0.623870    -0.623182    -0.511293

        11.1         12.1         13.1         14.1         15.1         16.1         17.1         18.1         19.1         20.1
     -0.437105    -0.401438    -0.398767    -0.363575    -0.350497    -0.334509    -0.321455    -0.309270    -0.303234    -0.275489

        21.1         22.1         23.1
     -0.221185     0.003420     0.047615

 HOMO    -21.1    -0.221185 =      -6.0188eV
 LUMO    -22.1     0.003420 =       0.0931eV
 LUMO-HOMO         0.224606 =       6.1118eV

 EXPECTATION VALUE OF S**2:             0.00000000

 Occupation number threshold for canonical orbitals:  1.999000 (occupied),  0.001000 (virtual)

 Number of pseudo-canonical orbitals per symmetry:   21
 Number of active natural orbitals per symmetry:      0

 Natural orbitals saved to record    2200.2 (Orbital set 3)

 Orbital spaces for UNO-CAS (Min. occupation: 0.020  Max. occupation: 1.980):

 Closed:       21
 Active:        0


 **********************************************************************************************************************************
 DATASETS  * FILE   NREC   LENGTH (MB)   RECORD NAMES
              1      20      928.02       500      610      700      900      950      970     1000      129      960     1100   
                                          VAR    BASINP    GEOM    SYMINP    ZMAT    AOBASIS   BASIS     P2S    ABASIS      S 
                                         1400     1410     1200     1210     1080     1600     1650     1300     1700     1800   
                                           T        V       H0       H01     AOSYM     SMH    MOLCAS    ERIS     OPER     GRID   

              2       5        4.89       700     1000      520     1800     2200   
                                         GEOM     BASIS   MCVARS    GRID      UKS  

 PROGRAMS   *        TOTAL       UKS       INT
 CPU TIMES  *       103.61     75.39     28.08
 REAL TIME  *       216.61 SEC
 DISK USED  *         3.90 GB      
 **********************************************************************************************************************************


 PROGRAM * Intrinsic Basis Bonding Analysis (IBBA)          Author: G. Knizia

 Molecular orbitals read from record     2200.2  Type=UKS/ALPHA (state 1.1)
 Fock matrix read from record            2200.2  Type=UKS/TOTAL (state 1.1)
 Orbital energies read from record       2200.2  Type=UKS/ALPHA (state 1.1)
 Density matrix read from record         2200.2  Type=UKS/CHARGE (state 1.1)

 Number of core orbitals:           5 (   5 )
 Number of closed-shell orbitals:  16 (  16 )

 Basis set MINAO-AUTO-PP generated.      Number of basis functions:   35 

 Polarized AO type:                A = (O Ot + (1-O)(1-Ot)) P12
 Orthogonalization method:         Symmetric (Loewdin)
 Localization functional:          L = sum[A,i] <i|n_A|i>^4 -> max

 Localization group 1:  21 orbitals, occupancy  2.000
 Iterative localization: IB/PM,    7 iter; Final gradient 0.17E-08

 Bond order analysis:       [THRPRINT= 0.020]

   CEN ATOM   CEN ATOM     WIBERG.BO      RENORM.BO
     1   C  -   2   C       0.996368       0.993156
     1   C  -   5   H       0.960951       0.986150
     1   C  -   6   H       0.956195       0.979789
     1   C  -   7   H       0.956195       0.979789

     2   C  -   1   C       0.996368       0.993156
     2   C  -   9   C       0.994762       0.973529
     2   C  -   8   C       0.994762       0.973529
     2   C  -   3   O       0.938949       0.946279

     3   O  -   2   C       0.938949       0.946279
     3   O  -   4   H       0.863069       0.973995
     3   O  -   8   C       0.030478       0.015570
     3   O  -   9   C       0.030478       0.015570

     4   H  -   3   O       0.863069       0.973995

     5   H  -   1   C       0.960951       0.986150

     6   H  -   1   C       0.956195       0.979789

     7   H  -   1   C       0.956195       0.979789

     8   C  -   2   C       0.994762       0.973529
     8   C  -  14   H       0.960436       0.980610
     8   C  -  10   H       0.956838       0.979690
     8   C  -  12   H       0.956129       0.978800
     8   C  -   3   O       0.030478       0.015570

     9   C  -   2   C       0.994762       0.973529
     9   C  -  15   H       0.960436       0.980610
     9   C  -  11   H       0.956838       0.979690
     9   C  -  13   H       0.956129       0.978800
     9   C  -   3   O       0.030478       0.015570

    10   H  -   8   C       0.956838       0.979690

    11   H  -   9   C       0.956838       0.979690

    12   H  -   8   C       0.956129       0.978800

    13   H  -   9   C       0.956129       0.978800

    14   H  -   8   C       0.960436       0.980610

    15   H  -   9   C       0.960436       0.980610


 Valency analysis:

   CEN ATOM   TOT.VALENCE
     1   C       3.934611
     2   C       3.935361
     3   O       1.937451
     4   H       0.884523
     5   H       0.980858
     6   H       0.978447
     7   H       0.978447
     8   C       3.937323
     9   C       3.937323
    10   H       0.978533
    11   H       0.978533
    12   H       0.980331
    13   H       0.980331
    14   H       0.982629
    15   H       0.982629

 Total charge composition:

   CEN ATOM         s          p       ELECTRONS ->P.CHARGE
     1   C       3.04780    3.37686      6.42466   -0.42466
     2   C       2.94323    2.81018      5.75341    0.24659
     3   O       3.65411    4.90090      8.55501   -0.55501
     4   H       0.66018                 0.66018    0.33982
     5   H       0.86165                 0.86165    0.13835
     6   H       0.85319                 0.85319    0.14681
     7   H       0.85319                 0.85319    0.14681
     8   C       3.05460    3.38332      6.43792   -0.43792
     9   C       3.05460    3.38332      6.43792   -0.43792
    10   H       0.85348                 0.85348    0.14652
    11   H       0.85348                 0.85348    0.14652
    12   H       0.85975                 0.85975    0.14025
    13   H       0.85975                 0.85975    0.14025
    14   H       0.86820                 0.86820    0.13180
    15   H       0.86820                 0.86820    0.13180

 Total charge composition, AO contributions:

   CEN ATOM SHL      SPHERICAL COMPONENTS
     1   C  1s       1.99128
     1   C  2s       1.05652
     1   C  2p       1.03900    1.16281    1.17505

     2   C  1s       1.99290
     2   C  2s       0.95033
     2   C  2p       1.00682    0.79329    1.01007

     3   O  1s       1.99719
     3   O  2s       1.65692
     3   O  2p       1.46728    1.48267    1.95095

     4   H  1s       0.66018

     5   H  1s       0.86165

     6   H  1s       0.85319

     7   H  1s       0.85319

     8   C  1s       1.99138
     8   C  2s       1.06322
     8   C  2p       1.14473    1.14423    1.09436

     9   C  1s       1.99138
     9   C  2s       1.06322
     9   C  2p       1.14473    1.14423    1.09436

    10   H  1s       0.85348

    11   H  1s       0.85348

    12   H  1s       0.85975

    13   H  1s       0.85975

    14   H  1s       0.86820

    15   H  1s       0.86820

 Summary of localized orbital composition:   [THRPRINT= 0.020]

   ORB  GRP  ORB.ENERGY      CENTERS/CHARGES
     1   1   -18.597301      O  3   2.000
     2   1    -9.860083      C  2   2.000
     3   1    -9.769511      C  9   2.000
     4   1    -9.769511      C  8   2.000
     5   1    -9.764081      C  1   2.000
     6   1    -0.693828      O  3   1.342   H  4   0.647
     7   1    -0.651913      O  3   1.277   C  2   0.703
     8   1    -0.517818      C  8   1.007   C  2   0.976
     9   1    -0.517818      C  9   1.007   C  2   0.976
    10   1    -0.517717      C  1   0.991   C  2   0.984   (other: 0.025)
    11   1    -0.512274      O  3   1.980
    12   1    -0.453286      C  9   1.136   H 13   0.849
    13   1    -0.453286      C  8   1.136   H 12   0.849
    14   1    -0.451769      C  8   1.127   H 14   0.860
    15   1    -0.451769      C  9   1.127   H 15   0.860
    16   1    -0.449503      C  1   1.131   H  5   0.854
    17   1    -0.447548      C  9   1.144   H 11   0.845
    18   1    -0.447548      C  8   1.144   H 10   0.845
    19   1    -0.443396      C  1   1.143   H  6   0.845
    20   1    -0.443396      C  1   1.143   H  7   0.845
    21   1    -0.247881      O  3   1.951   (other: 0.049)

 Localized orbitals saved to record      2200.2  (orbital set 4)


 **********************************************************************************************************************************
 DATASETS  * FILE   NREC   LENGTH (MB)   RECORD NAMES
              1      20      928.02       500      610      700      900      950      970     1000      129      960     1100   
                                          VAR    BASINP    GEOM    SYMINP    ZMAT    AOBASIS   BASIS     P2S    ABASIS      S 
                                         1400     1410     1200     1210     1080     1600     1650     1300     1700     1800   
                                           T        V       H0       H01     AOSYM     SMH    MOLCAS    ERIS     OPER     GRID   

              2       5        5.27       700     1000      520     1800     2200   
                                         GEOM     BASIS   MCVARS    GRID      UKS  

 PROGRAMS   *        TOTAL      IBBA       UKS       INT
 CPU TIMES  *       103.68      0.06     75.39     28.08
 REAL TIME  *       216.84 SEC
 DISK USED  *         3.90 GB      
 **********************************************************************************************************************************
 Molecular orbitals read from record     2200.2  Type=UKS/LOCAL(IBO)  
 Occupation numbers read from record     2200.2  Type=UKS/LOCAL(IBO)  
 Orbital energies read from record       2200.2  Type=UKS/LOCAL(IBO)  
 Redundancy group numbers read from rec  2200.2  Type=UKS/BETA (state 1.1)

 IBBA/TZVP energy=      0.000000000000

        UKS-SCF 
   -233.68595143
 **********************************************************************************************************************************
 Molpro calculation terminated
