
 Primary working directories    : /tmp/sb13343
 Secondary working directories  : /tmp/sb13343
 Wavefunction directory         : /panfs/panasas01/chem/sb13343/wfu/
 Main file repository           : /tmp/sb13343/

 SHA1      : b4a5b34a9e711420743f49e6833241d17c61fb3c
 NAME      : 2099.9.b4a5b34
 ARCHNAME  : linux/x86_64_openmp
 FC        : /cm/shared/languages/GCC-6.1/bin/gfortran
 BLASLIB   : -lblas
 id        : simonbennie

 Nodes     nprocs
 node32-002    1

 Using customized tuning parameters: mindgm=1; mindgv=20; mindgc=4; mindgr=1; noblas=0; minvec=7
 default implementation of scratch files=df  

 memory,500,m
 geomtyp=xyz
 nosym
 noorient
 geometry={
 C          0.00000        0.00000        0.00000
 C          0.00000        0.00000        1.53307
 O          1.40344        0.00000        1.86307
 C          1.76314        0.00000        3.22887
 H         -1.02289        0.00000       -0.39176
 H          0.51995       -0.88625       -0.37815
 H          0.51995        0.88625       -0.37815
 H          2.85677        0.00000        3.25413
 H          1.40708       -0.89217        3.76475
 H          1.40708        0.89217        3.76475
 C         -0.69252       -1.26694        2.06222
 C         -0.69252        1.26694        2.06222
 H         -0.15366       -2.16088        1.72982
 H         -0.15366        2.16088        1.72982
 H         -1.72011       -1.32515        1.68649
 H         -1.72011        1.32515        1.68649
 H         -0.74365       -1.28188        3.15638
 H         -0.74365        1.28188        3.15638
 }
 basis={ default,sto-3g }
 {ks,MM06-HF,direct;wf,50,1,0}
 {ibba,bonds=1}

 Variables initialized (895), CPU time= 0.00 sec
 Commands  initialized (725), CPU time= 0.02 sec, 591 directives.
 Default parameters read. Elapsed time= 0.12 sec

 Checking input...
 Passed
1


                                         ***  PROGRAM SYSTEM MOLPRO  ***
                                       Copyright, TTI GmbH Stuttgart, 2015
                                    Version 2099.9 linked May 26 2017 16:03:21


 **********************************************************************************************************************************
 LABEL *                                                                                 
  64 bit serial version                                                                  DATE: 09-Jun-17          TIME: 01:38:37  
 **********************************************************************************************************************************

 SHA1:             b4a5b34a9e711420743f49e6833241d17c61fb3c
 **********************************************************************************************************************************
 SETTING GEOMTYP        =    XYZ

 Variable memory set to  500000000 words,  buffer space 

 ZSYMEL=NOSYM

 SETTING BASIS          =    STO-3G


 Recomputing integrals since basis changed


 Using spherical harmonics

 Library entry C      S STO-3G               selected for orbital group  1
 Library entry C      P STO-3G               selected for orbital group  1
 Library entry O      S STO-3G               selected for orbital group  2
 Library entry O      P STO-3G               selected for orbital group  2
 Library entry H      S STO-3G               selected for orbital group  4


 PROGRAM * SEWARD (Integral evaluation for generally contracted gaussian basis sets)     Author: Roland Lindh, 1990

 Geometry written to block  1 of record 700


 Point group  C1  



 ATOMIC COORDINATES

 NR  ATOM    CHARGE       X              Y              Z

   1  C       6.00    0.000000000    0.000000000    0.000000000
   2  C       6.00    0.000000000    0.000000000    2.897082430
   3  O       8.00    2.652117232    0.000000000    3.520692051
   4  C       6.00    3.331851719    0.000000000    6.101679992
   5  H       1.00   -1.932981956    0.000000000   -0.740319107
   6  H       1.00    0.982563098   -1.674769778   -0.714599934
   7  H       1.00    0.982563098    1.674769778   -0.714599934
   8  H       1.00    5.398512901    0.000000000    6.149414474
   9  H       1.00    2.658995835   -1.685956957    7.114346427
  10  H       1.00    2.658995835    1.685956957    7.114346427
  11  C       6.00   -1.308673136   -2.394169616    3.897031009
  12  C       6.00   -1.308673136    2.394169616    3.897031009
  13  H       1.00   -0.290375316   -4.083471388    3.268886045
  14  H       1.00   -0.290375316    4.083471388    3.268886045
  15  H       1.00   -3.250536804   -2.504170574    3.187004212
  16  H       1.00   -3.250536804    2.504170574    3.187004212
  17  H       1.00   -1.405294833   -2.422402125    5.964693745
  18  H       1.00   -1.405294833    2.422402125    5.964693745

 Bond lengths in Bohr (Angstrom)

 1-2  2.897082430  1-5  2.069901355  1-6  2.069042560  1-7  2.069042560  2-3  2.724447609
     ( 1.533070000)     ( 1.095344626)     ( 1.094890171)     ( 1.094890171)     ( 1.441715587)

  2-11  2.905954351   2-12  2.905954351   3- 4  2.668995640   4- 8  2.067212379   4- 9  2.078624355
       ( 1.537764818)       ( 1.537764818)       ( 1.412371669)       ( 1.093921681)       ( 1.099960639)

  4-10  2.078624355  11-13  2.070081404  11-15  2.070524757  11-17  2.070111596  12-14  2.070081404
       ( 1.099960639)       ( 1.095439904)       ( 1.095674516)       ( 1.095455880)       ( 1.095439904)

 12-16  2.070524757  12-18  2.070111596
       ( 1.095674516)       ( 1.095455880)

 Bond angles

  1- 2- 3  103.23196371   1- 2-11  110.12706952   1- 2-12  110.12706952   2- 1- 5  110.95650426

  2- 1- 6  110.20481748   2- 1- 7  110.20481748   2- 3- 4  117.98647004   2-11-13  110.26679927

  2-11-15  110.37287188   2-11-17  112.08316935   2-12-14  110.26679927   2-12-16  110.37287188

  2-12-18  112.08316935   3- 2-11  111.07703285   3- 2-12  111.07703285   3- 4- 8  106.07765410

  3- 4- 9  112.87219182   3- 4-10  112.87219182   5- 1- 6  108.65976572   5- 1- 7  108.65976572

  6- 1- 7  108.08288210   8- 4- 9  108.20190897   8- 4-10  108.20190897   9- 4-10  108.40564999

 11- 2-12  110.95103964  13-11-15  108.29648994  13-11-17  108.35544687  14-12-16  108.29648994

 14-12-18  108.35544687  15-11-17  107.33851825  16-12-18  107.33851825

 NUCLEAR CHARGE:                   50
 NUMBER OF PRIMITIVE AOS:         126
 NUMBER OF SYMMETRY AOS:          126
 NUMBER OF CONTRACTIONS:           42   (  42A   )
 NUMBER OF CORE ORBITALS:           6   (   6A   )
 NUMBER OF VALENCE ORBITALS:       36   (  36A   )


 NUCLEAR REPULSION ENERGY  270.15500869


 Eigenvalues of metric

         1 0.207E+00 0.226E+00 0.228E+00 0.234E+00 0.307E+00 0.355E+00 0.359E+00 0.362E+00


 Contracted 2-electron integrals neglected if value below      1.0D-11
 AO integral compression algorithm  1   Integral accuracy      1.0D-11

     2.884 MB (compressed) written to integral file ( 84.3%)


 NUMBER OF SORTED TWO-ELECTRON INTEGRALS:     408156.     BUFFER LENGTH:  32768
 NUMBER OF SEGMENTS:   1  SEGMENT LENGTH:     408156      RECORD LENGTH: 524288

 Memory used in sort:       0.97 MW

 SORT1 READ      453477. AND WROTE      382834. INTEGRALS IN      2 RECORDS. CPU TIME:     0.01 SEC, REAL TIME:     0.04 SEC
 SORT2 READ      382834. AND WROTE      408156. INTEGRALS IN     11 RECORDS. CPU TIME:     0.04 SEC, REAL TIME:     0.06 SEC

 FILE SIZES:   FILE 1:    33.2 MBYTE,  FILE 4:     8.4 MBYTE,   TOTAL:     41.6 MBYTE

 OPERATOR DM      FOR CENTER  0  COORDINATES:    0.000000    0.000000    0.000000


 **********************************************************************************************************************************
 DATASETS  * FILE   NREC   LENGTH (MB)   RECORD NAMES
              1      19       31.98       500      610      700      900      950      970     1000      129      960     1100   
                                          VAR    BASINP    GEOM    SYMINP    ZMAT    AOBASIS   BASIS     P2S    ABASIS      S 
                                         1400     1410     1200     1210     1080     1600     1650     1300     1700   
                                           T        V       H0       H01     AOSYM     SMH    MOLCAS    ERIS     OPER   

 PROGRAMS   *        TOTAL       INT
 CPU TIMES  *         0.90      0.75
 REAL TIME  *         2.96 SEC
 DISK USED  *        42.19 MB      
 **********************************************************************************************************************************

 Density functional group MM06-HF=M06HFX+M06HFC
 Functional: M06HFX(Automatically generated (new) M06HFX)                      Gradient terms: 2
 Functional: M06HFC(Automatically generated (new) M06HFC)                      Gradient terms: 2
 Use grid at  1800.2


 Exact exchange will be calculated, factor:  1.0000

 Functional: M06HFX                    Factor:  1.0000
 Functional: M06HFC                    Factor:  1.0000

 Generated new metagrid on record  1800.2 with target accuracy 1.0D-06 and 66012 points in CPU time    2.0
 Computed new grid on record 1800.1 in CPU time    2.3
   70110 words reserved for DFT integration

 PROGRAM * RKS-SCF (Restricted closed shell Kohn-Sham)     Authors: W. Meyer, H.-J. Werner, P.J. Knowles, 1993

 NUMBER OF ELECTRONS:      25+   25-    SPACE SYMMETRY=1    SPIN SYMMETRY: Singlet 
 CONVERGENCE THRESHOLDS:    1.00E-05 (Density)    1.00E-06 (Energy)
 MAX. NUMBER OF ITERATIONS:       60
 INTERPOLATION TYPE:            DIIS
 INTERPOLATION STEPS:              2 (START)      1 (STEP)
 LEVEL SHIFTS:                  0.00 (CLOSED)  0.00 (OPEN) 



 Use fine grid record 1800.2 for energy threshold  1.0D-06
 Orbital guess generated from atomic densities. Full valence occupancy:   25

 Molecular orbital dump at record        2100.2

 Initial occupancy:  25

 ITERATION    DDIFF          GRAD             ENERGY        2-EL.EN.            DIPOLE MOMENTS         DIIS   ORB.
    1      0.000D+00      0.000D+00      -269.41721012    740.988792   -0.95666   -0.00000    0.77329    0    start
    2      0.000D+00      0.208D-01      -269.66920265    722.905835   -0.16854   -0.00000    0.08275    1    diag
    3      0.454D-01      0.546D-02      -269.68560064    726.098942   -0.32993   -0.00000    0.26065    2    diag
    4      0.951D-02      0.706D-03      -269.68600850    726.123817   -0.33683   -0.00000    0.25797    3    diag
    5      0.178D-02      0.270D-03      -269.68606301    726.089184   -0.33903   -0.00000    0.26082    4    diag
    6      0.577D-03      0.505D-04      -269.68606610    726.092497   -0.33799   -0.00000    0.26002    5    diag
    7      0.166D-03      0.187D-04      -269.68606646    726.091103   -0.33841   -0.00000    0.26006    6    diag
    8      0.575D-04      0.330D-05      -269.68606648    726.091169   -0.33839   -0.00000    0.26003    7    diag
    9      0.129D-04      0.525D-06      -269.68606648    726.091153   -0.33839   -0.00000    0.26003    8    diag
   10      0.160D-05      0.101D-06      -269.68606648    726.091154   -0.33839   -0.00000    0.26003    0    orth

 Final occupancy:  25

 !RKS STATE 1.1 Energy               -269.686066480830
 Nuclear energy                       270.15500869
 One-electron energy                 -901.07163867
 Two-electron energy                  363.04557677
 SCF exchange energy                  -38.58845557     Factor= 1.0000
 Density functional                    -1.81501327     M06HFX= 0.00177804 M06HFC=-1.81679132
 Virial quotient                       -1.01658487
 !RKS STATE 1.1 Dipole moment          -0.33838868    -0.00000000     0.26002659
 Dipole moment /Debye                  -0.86004189    -0.00000000     0.66087839

 Orbital energies:

         1.1          2.1          3.1          4.1          5.1          6.1          7.1          8.1          9.1         10.1
    -19.935846   -10.843614   -10.831797   -10.789435   -10.789366   -10.788409    -1.209453    -0.958674    -0.851165    -0.846724

        11.1         12.1         13.1         14.1         15.1         16.1         17.1         18.1         19.1         20.1
     -0.818010    -0.673185    -0.599118    -0.583321    -0.575755    -0.552941    -0.528055    -0.506978    -0.497374    -0.481640

        21.1         22.1         23.1         24.1         25.1         26.1         27.1
     -0.475012    -0.441854    -0.425754    -0.359116    -0.327832     0.431113     0.496650

 HOMO     25.1    -0.327832 =      -8.9208eV
 LUMO     26.1     0.431113 =      11.7312eV
 LUMO-HOMO         0.758945 =      20.6519eV


 **********************************************************************************************************************************
 DATASETS  * FILE   NREC   LENGTH (MB)   RECORD NAMES
              1      20       34.09       500      610      700      900      950      970     1000      129      960     1100   
                                          VAR    BASINP    GEOM    SYMINP    ZMAT    AOBASIS   BASIS     P2S    ABASIS      S 
                                         1400     1410     1200     1210     1080     1600     1650     1300     1700     1800   
                                           T        V       H0       H01     AOSYM     SMH    MOLCAS    ERIS     OPER     GRID   

              2       5        3.09       700     1000      520     1800     2100   
                                         GEOM     BASIS   MCVARS    GRID      RKS  

 PROGRAMS   *        TOTAL        KS       INT
 CPU TIMES  *        17.35     16.45      0.75
 REAL TIME  *        28.25 SEC
 DISK USED  *        42.19 MB      
 **********************************************************************************************************************************


 PROGRAM * Intrinsic Basis Bonding Analysis (IBBA)          Author: G. Knizia

 Molecular orbitals read from record     2100.2  Type=RKS/CANONICAL (state 1.1)
 Fock matrix read from record            2100.2  Type=RKS/TOTAL (state 1.1)
 Orbital energies read from record       2100.2  Type=RKS/CANONICAL (state 1.1)
 Density matrix read from record         2100.2  Type=RKS/CHARGE (state 1.1)

 Number of core orbitals:           6 (   6 )
 Number of closed-shell orbitals:  19 (  19 )

 Basis set MINAO-AUTO-PP generated.      Number of basis functions:   42 

 Polarized AO type:                A = (O Ot + (1-O)(1-Ot)) P12
 Orthogonalization method:         Symmetric (Loewdin)
 Localization functional:          L = sum[A,i] <i|n_A|i>^4 -> max

 Localization group 1:  25 orbitals, occupancy  2.000
 Iterative localization: IB/PM,    7 iter; Final gradient 0.24E-08

 Bond order analysis:       [THRPRINT= 0.020]

   CEN ATOM   CEN ATOM     WIBERG.BO      RENORM.BO
     1   C  -   2   C       0.989787       0.990257
     1   C  -   5   H       0.969441       0.991444
     1   C  -   7   H       0.965356       0.989607
     1   C  -   6   H       0.965356       0.989607

     2   C  -  11   C       0.989803       0.974036
     2   C  -  12   C       0.989803       0.974036
     2   C  -   1   C       0.989787       0.990257
     2   C  -   3   O       0.977932       0.968051

     3   O  -   4   C       1.007787       1.006980
     3   O  -   2   C       0.977932       0.968051

     4   C  -   3   O       1.007787       1.006980
     4   C  -   9   H       0.964342       0.965792
     4   C  -  10   H       0.964342       0.965792
     4   C  -   8   H       0.959453       0.981516

     5   H  -   1   C       0.969441       0.991444

     6   H  -   1   C       0.965356       0.989607

     7   H  -   1   C       0.965356       0.989607

     8   H  -   4   C       0.959453       0.981516

     9   H  -   4   C       0.964342       0.965792

    10   H  -   4   C       0.964342       0.965792

    11   C  -   2   C       0.989803       0.974036
    11   C  -  17   H       0.967949       0.988731
    11   C  -  15   H       0.967453       0.992129
    11   C  -  13   H       0.965953       0.989712

    12   C  -   2   C       0.989803       0.974036
    12   C  -  18   H       0.967949       0.988731
    12   C  -  16   H       0.967453       0.992129
    12   C  -  14   H       0.965953       0.989712

    13   H  -  11   C       0.965953       0.989712

    14   H  -  12   C       0.965953       0.989712

    15   H  -  11   C       0.967453       0.992129

    16   H  -  12   C       0.967453       0.992129

    17   H  -  11   C       0.967949       0.988731

    18   H  -  12   C       0.967949       0.988731


 Valency analysis:

   CEN ATOM   TOT.VALENCE
     1   C       3.931671
     2   C       3.975654
     3   O       2.101741
     4   C       3.915056
     5   H       0.984949
     6   H       0.982611
     7   H       0.982611
     8   H       0.981298
     9   H       0.987976
    10   H       0.987976
    11   C       3.933282
    12   C       3.933282
    13   H       0.983138
    14   H       0.983138
    15   H       0.983866
    16   H       0.983866
    17   H       0.985365
    18   H       0.985365

 Total charge composition:

   CEN ATOM         s          p       ELECTRONS ->P.CHARGE
     1   C       2.97333    3.39644      6.36977   -0.36977
     2   C       2.93652    2.95418      5.89070    0.10930
     3   O       3.63304    4.58532      8.21836   -0.21836
     4   C       2.98076    3.27270      6.25346   -0.25346
     5   H       0.87732                 0.87732    0.12268
     6   H       0.86813                 0.86813    0.13187
     7   H       0.86813                 0.86813    0.13187
     8   H       0.86324                 0.86324    0.13676
     9   H       0.89035                 0.89035    0.10965
    10   H       0.89035                 0.89035    0.10965
    11   C       2.97390    3.40905      6.38295   -0.38295
    12   C       2.97390    3.40905      6.38295   -0.38295
    13   H       0.87015                 0.87015    0.12985
    14   H       0.87015                 0.87015    0.12985
    15   H       0.87298                 0.87298    0.12702
    16   H       0.87298                 0.87298    0.12702
    17   H       0.87903                 0.87903    0.12097
    18   H       0.87903                 0.87903    0.12097

 Total charge composition, AO contributions:

   CEN ATOM SHL      SPHERICAL COMPONENTS
     1   C  1s       1.99115
     1   C  2s       0.98218
     1   C  2p       1.16931    1.17893    1.04820

     2   C  1s       1.99264
     2   C  2s       0.94388
     2   C  2p       0.88829    1.02969    1.03620

     3   O  1s       1.99727
     3   O  2s       1.63577
     3   O  2p       1.31053    1.94563    1.32916

     4   C  1s       1.99173
     4   C  2s       0.98903
     4   C  2p       1.16721    1.16803    0.93746

     5   H  1s       0.87732

     6   H  1s       0.86813

     7   H  1s       0.86813

     8   H  1s       0.86324

     9   H  1s       0.89035

    10   H  1s       0.89035

    11   C  1s       1.99120
    11   C  2s       0.98269
    11   C  2p       1.15232    1.10091    1.15582

    12   C  1s       1.99120
    12   C  2s       0.98269
    12   C  2p       1.15232    1.10091    1.15582

    13   H  1s       0.87015

    14   H  1s       0.87015

    15   H  1s       0.87298

    16   H  1s       0.87298

    17   H  1s       0.87903

    18   H  1s       0.87903

 Summary of localized orbital composition:   [THRPRINT= 0.020]

   ORB  GRP  ORB.ENERGY      CENTERS/CHARGES
     1   1   -19.749467      O  3   2.000
     2   1   -10.745250      C  2   2.000
     3   1   -10.719026      C  4   2.000
     4   1   -10.672112      C 12   2.000
     5   1   -10.672112      C 11   2.000
     6   1   -10.670492      C  1   2.000
     7   1    -0.846399      O  3   1.139   C  4   0.854
     8   1    -0.809674      O  3   1.147   C  2   0.834
     9   1    -0.748633      O  3   1.978   (other: 0.022)
    10   1    -0.684737      C 11   0.995   C  2   0.992
    11   1    -0.684737      C 12   0.995   C  2   0.992
    12   1    -0.683039      C  2   1.002   C  1   0.977   (other: 0.021)
    13   1    -0.648106      C  4   1.120   H  9   0.879
    14   1    -0.648106      C  4   1.120   H 10   0.879
    15   1    -0.646804      C  4   1.136   H  8   0.855
    16   1    -0.633303      C 12   1.119   H 18   0.873
    17   1    -0.633303      C 11   1.119   H 17   0.873
    18   1    -0.630989      C 12   1.124   H 16   0.867
    19   1    -0.630989      C 11   1.124   H 15   0.867
    20   1    -0.629992      C  1   1.121   H  5   0.871
    21   1    -0.629778      C 12   1.128   H 14   0.864
    22   1    -0.629778      C 11   1.128   H 13   0.864
    23   1    -0.625227      C  1   1.130   H  6   0.862
    24   1    -0.625227      C  1   1.130   H  7   0.862
    25   1    -0.393148      O  3   1.946   (other: 0.054)

 Localized orbitals saved to record      2100.2  (orbital set 2)


 **********************************************************************************************************************************
 DATASETS  * FILE   NREC   LENGTH (MB)   RECORD NAMES
              1      20       34.09       500      610      700      900      950      970     1000      129      960     1100   
                                          VAR    BASINP    GEOM    SYMINP    ZMAT    AOBASIS   BASIS     P2S    ABASIS      S 
                                         1400     1410     1200     1210     1080     1600     1650     1300     1700     1800   
                                           T        V       H0       H01     AOSYM     SMH    MOLCAS    ERIS     OPER     GRID   

              2       5        3.11       700     1000      520     1800     2100   
                                         GEOM     BASIS   MCVARS    GRID      RKS  

 PROGRAMS   *        TOTAL      IBBA        KS       INT
 CPU TIMES  *        17.40      0.04     16.45      0.75
 REAL TIME  *        28.49 SEC
 DISK USED  *        42.19 MB      
 **********************************************************************************************************************************
 Molecular orbitals read from record     2100.2  Type=RKS/LOCAL(IBO)  
 Occupation numbers read from record     2100.2  Type=RKS/LOCAL(IBO)  
 Orbital energies read from record       2100.2  Type=RKS/LOCAL(IBO)  
 Redundancy group numbers read from rec  2100.2  Type=RKS/LOCAL(IBO)  

 IBBA/STO-3G energy=      0.000000000000

        KS-SCF  
   -269.68606648
 **********************************************************************************************************************************
 Molpro calculation terminated
