
 Primary working directories    : /tmp/sb13343
 Secondary working directories  : /tmp/sb13343
 Wavefunction directory         : /panfs/panasas01/chem/sb13343/wfu/
 Main file repository           : /tmp/sb13343/

 SHA1      : b4a5b34a9e711420743f49e6833241d17c61fb3c
 NAME      : 2099.9.b4a5b34
 ARCHNAME  : linux/x86_64_openmp
 FC        : /cm/shared/languages/GCC-6.1/bin/gfortran
 BLASLIB   : -lblas
 id        : simonbennie

 Nodes     nprocs
 node32-019    1

 Using customized tuning parameters: mindgm=1; mindgv=20; mindgc=4; mindgr=1; noblas=0; minvec=7
 default implementation of scratch files=df  

 memory,500,m
 geomtyp=xyz
 nosym
 noorient
 geometry={
 C          0.00000        0.00000        0.00000
 H          0.00000        0.00000        1.10056
 C          1.46209        0.00000       -0.46855
 C         -0.73105       -1.26621       -0.46855
 C         -0.73105        1.26621       -0.46855
 H          1.52118        0.00000       -1.56505
 H         -0.76059       -1.31738       -1.56505
 H         -0.76059        1.31738       -1.56505
 H          1.99755        0.88622       -0.10723
 H          1.99755       -0.88622       -0.10723
 H         -0.23129       -2.17304       -0.10723
 H         -1.76626       -1.28682       -0.10723
 H         -1.76626        1.28682       -0.10723
 H         -0.23129        2.17304       -0.10723
 }
 basis={ default,svp }
 {uks,M06,direct;wf,34,1,0}
 {ibba,bonds=1}

 Variables initialized (895), CPU time= 0.00 sec
 Commands  initialized (725), CPU time= 0.02 sec, 591 directives.
 Default parameters read. Elapsed time= 0.08 sec

 Checking input...
 Passed
1


                                         ***  PROGRAM SYSTEM MOLPRO  ***
                                       Copyright, TTI GmbH Stuttgart, 2015
                                    Version 2099.9 linked May 26 2017 16:03:21


 **********************************************************************************************************************************
 LABEL *                                                                                 
  64 bit serial version                                                                  DATE: 09-Jun-17          TIME: 00:17:01  
 **********************************************************************************************************************************

 SHA1:             b4a5b34a9e711420743f49e6833241d17c61fb3c
 **********************************************************************************************************************************
 SETTING GEOMTYP        =    XYZ

 Variable memory set to  500000000 words,  buffer space 

 ZSYMEL=NOSYM

 SETTING BASIS          =    SVP


 Recomputing integrals since basis changed


 Using spherical harmonics

 Library entry C      S def2-SVP             selected for orbital group  1
 Library entry C      P def2-SVP             selected for orbital group  1
 Library entry C      D def2-SVP             selected for orbital group  1
 Library entry H      S def2-SVP             selected for orbital group  2
 Library entry H      P def2-SVP             selected for orbital group  2


 PROGRAM * SEWARD (Integral evaluation for generally contracted gaussian basis sets)     Author: Roland Lindh, 1990

 Geometry written to block  1 of record 700


 Point group  C1  



 ATOMIC COORDINATES

 NR  ATOM    CHARGE       X              Y              Z

   1  C       6.00    0.000000000    0.000000000    0.000000000
   2  H       1.00    0.000000000    0.000000000    2.079756984
   3  C       6.00    2.762949669    0.000000000   -0.885431176
   4  C       6.00   -1.381484283   -2.392790116   -0.885431176
   5  C       6.00   -1.381484283    2.392790116   -0.885431176
   6  H       1.00    2.874613586    0.000000000   -2.957515871
   7  H       1.00   -1.437306793   -2.489487402   -2.957515871
   8  H       1.00   -1.437306793    2.489487402   -2.957515871
   9  H       1.00    3.774822420    1.674713086   -0.202635332
  10  H       1.00    3.774822420   -1.674713086   -0.202635332
  11  H       1.00   -0.437074755   -4.106450458   -0.202635332
  12  H       1.00   -3.337747665   -2.431737372   -0.202635332
  13  H       1.00   -3.337747665    2.431737372   -0.202635332
  14  H       1.00   -0.437074755    4.106450458   -0.202635332

 Bond lengths in Bohr (Angstrom)

 1-2  2.079756984  1-3  2.901358172  1-4  2.901367218  1-5  2.901367218  3-6  2.075091279
     ( 1.100560000)     ( 1.535332625)     ( 1.535337412)     ( 1.535337412)     ( 1.098091015)

  3- 9  2.072380406   3-10  2.072380406   4- 7  2.075090722   4-11  2.072378172   4-12  2.072364222
       ( 1.096656483)       ( 1.096656483)       ( 1.098090721)       ( 1.096655301)       ( 1.096647919)

  5- 8  2.075090722   5-13  2.072364222   5-14  2.072378172
       ( 1.098090721)       ( 1.096647919)       ( 1.096655301)

 Bond angles

  1- 3- 6  110.85354902   1- 3- 9  111.37220114   1- 3-10  111.37220114   1- 4- 7  110.85320625

  1- 4-11  111.37204414   1- 4-12  111.37216555   1- 5- 8  110.85320625   1- 5-13  111.37216555

  1- 5-14  111.37204414   2- 1- 3  107.76888332   2- 1- 4  107.76882608   2- 1- 5  107.76882608

  3-1-4  111.11870751   3-1-5  111.11870751   4-1-5  111.11845005   6-3-9  107.62119374

  6- 3-10  107.62119374   7- 4-11  107.62125572   7- 4-12  107.62162102   8- 5-13  107.62162102

  8- 5-14  107.62125572   9- 3-10  107.82352924  11- 4-12  107.82360822  13- 5-14  107.82360822

 NUCLEAR CHARGE:                   34
 NUMBER OF PRIMITIVE AOS:         170
 NUMBER OF SYMMETRY AOS:          166
 NUMBER OF CONTRACTIONS:          106   ( 106A   )
 NUMBER OF CORE ORBITALS:           4   (   4A   )
 NUMBER OF VALENCE ORBITALS:       26   (  26A   )


 NUCLEAR REPULSION ENERGY  134.07051350


 Eigenvalues of metric

         1 0.225E-02 0.614E-02 0.614E-02 0.233E-01 0.256E-01 0.268E-01 0.268E-01 0.277E-01


 Contracted 2-electron integrals neglected if value below      1.0D-11
 AO integral compression algorithm  1   Integral accuracy      1.0D-11

     64.750 MB (compressed) written to integral file ( 46.7%)


 NUMBER OF SORTED TWO-ELECTRON INTEGRALS:   16082956.     BUFFER LENGTH:  32768
 NUMBER OF SEGMENTS:   2  SEGMENT LENGTH:   15997996      RECORD LENGTH: 524288

 Memory used in sort:      16.56 MW

 SORT1 READ    17384690. AND WROTE    14795173. INTEGRALS IN     44 RECORDS. CPU TIME:     0.23 SEC, REAL TIME:     0.49 SEC
 SORT2 READ    14795173. AND WROTE    16082956. INTEGRALS IN    247 RECORDS. CPU TIME:     0.43 SEC, REAL TIME:     0.54 SEC

 FILE SIZES:   FILE 1:    95.4 MBYTE,  FILE 4:   184.6 MBYTE,   TOTAL:    279.9 MBYTE

 OPERATOR DM      FOR CENTER  0  COORDINATES:    0.000000    0.000000    0.000000


 **********************************************************************************************************************************
 DATASETS  * FILE   NREC   LENGTH (MB)   RECORD NAMES
              1      19       87.57       500      610      700      900      950      970     1000      129      960     1100   
                                          VAR    BASINP    GEOM    SYMINP    ZMAT    AOBASIS   BASIS     P2S    ABASIS      S 
                                         1400     1410     1200     1210     1080     1600     1650     1300     1700   
                                           T        V       H0       H01     AOSYM     SMH    MOLCAS    ERIS     OPER   

 PROGRAMS   *        TOTAL       INT
 CPU TIMES  *         2.82      2.68
 REAL TIME  *         3.79 SEC
 DISK USED  *       280.45 MB      
 **********************************************************************************************************************************

 Density functional group M06=XC-M06
 Functional: XC-M06(via MFM 1.6)                                               Gradient terms: 1
 Use grid at  1800.2


 Exact exchange will be calculated, factor:  0.2700

 Functional: XC-M06                    Factor:  1.0000

 Generated new metagrid on record  1800.2 with target accuracy 1.0D-06 and 45620 points in CPU time    1.1
 Computed new grid on record 1800.1 in CPU time    1.3
   88342 words reserved for DFT integration

 PROGRAM * UKS-SCF (Unrestricted Kohn-Sham)     Authors: W. Meyer, H.-J. Werner, P.J. Knowles, 1993

 NUMBER OF ELECTRONS:      17+   17-    SPACE SYMMETRY=1    SPIN SYMMETRY: Singlet 
 CONVERGENCE THRESHOLDS:    1.00E-05 (Density)    1.00E-06 (Energy)
 MAX. NUMBER OF ITERATIONS:       60
 INTERPOLATION TYPE:            DIIS
 INTERPOLATION STEPS:              2 (START)      1 (STEP)
 LEVEL SHIFTS:                 -0.20 (ALPHA)  -0.20 (BETA) 



 Use fine grid record 1800.2 for energy threshold  1.0D-06
 Orbital guess generated from atomic densities. Full valence occupancy:   17

 Molecular orbital dump at record        2200.2

 Initial alpha occupation  17
 Initial beta  occupation  17

 ITERATION    DDIFF          GRAD             ENERGY        2-EL.EN.            DIPOLE MOMENTS         DIIS
    1      0.000D+00      0.000D+00      -158.01385831    417.713716   -0.00026   -0.00000   -0.01597    0
    2      0.107D-01      0.526D-02      -158.17635217    402.544273   -0.01494   -0.00000   -0.01585    1
    3      0.318D-02      0.200D-02      -158.19683113    405.964429   -0.00929   -0.00000    0.02878    2
    4      0.939D-03      0.232D-03      -158.19751319    405.799904   -0.01001   -0.00000    0.02732    3
    5      0.535D-03      0.966D-04      -158.19766251    405.763209   -0.01041   -0.00000    0.02887    4
    6      0.243D-03      0.320D-04      -158.19767949    405.739106   -0.01055   -0.00000    0.03048    5
    7      0.441D-04      0.737D-05      -158.19768016    405.741038   -0.01064   -0.00000    0.02894    6
    8      0.119D-04      0.172D-05      -158.19768021    405.740736   -0.01064   -0.00000    0.02946    6
    9      0.405D-05      0.500D-06      -158.19768021    405.740947   -0.01064   -0.00000    0.02932    6
   10      0.689D-06      0.922D-07      -158.19768021    405.740778   -0.01064   -0.00000    0.02933    6

 Final alpha occupancy:  17
 Final beta  occupancy:  17

 !UKS STATE 1.1 Energy               -158.197680214165
 Nuclear energy                       134.07051350
 One-electron energy                 -476.41771029
 Two-electron energy                  202.87038886
 Density functional                   -18.72087228     XC-M06=-18.72087228
 Virial quotient                       -1.01378416
 !UKS STATE 1.1 Dipole moment          -0.01063897    -0.00000000     0.02932664
 Dipole moment /Debye                  -0.02703981    -0.00000000     0.07453599

 Orbital energies for positive spin:

         1.1          2.1          3.1          4.1          5.1          6.1          7.1          8.1          9.1         10.1
    -10.248377   -10.233602   -10.233582   -10.233502    -0.802071    -0.681438    -0.681353    -0.559989    -0.467768    -0.436726

        11.1         12.1         13.1         14.1         15.1         16.1         17.1         18.1         19.1
     -0.436704    -0.388875    -0.388611    -0.368706    -0.337388    -0.336782    -0.327242     0.060462     0.102224

 Orbital energies for negative spin:

         1.1          2.1          3.1          4.1          5.1          6.1          7.1          8.1          9.1         10.1
    -10.248377   -10.233602   -10.233582   -10.233502    -0.802071    -0.681438    -0.681353    -0.559989    -0.467768    -0.436726

        11.1         12.1         13.1         14.1         15.1         16.1         17.1         18.1         19.1
     -0.436704    -0.388875    -0.388611    -0.368706    -0.337388    -0.336782    -0.327242     0.060462     0.102224

 HOMO     17.1    -0.327242 =      -8.9047eV
 LUMO     18.1     0.060462 =       1.6453eV
 LUMO-HOMO         0.387704 =      10.5500eV

 EXPECTATION VALUE OF S**2:            -0.00000000

 Natural orbitals saved to record    2200.2 (Orbital set 3)

 Orbital spaces for UNO-CAS (Min. occupation: 0.020  Max. occupation: 1.980):

 Closed:       17
 Active:        0


 **********************************************************************************************************************************
 DATASETS  * FILE   NREC   LENGTH (MB)   RECORD NAMES
              1      20       89.03       500      610      700      900      950      970     1000      129      960     1100   
                                          VAR    BASINP    GEOM    SYMINP    ZMAT    AOBASIS   BASIS     P2S    ABASIS      S 
                                         1400     1410     1200     1210     1080     1600     1650     1300     1700     1800   
                                           T        V       H0       H01     AOSYM     SMH    MOLCAS    ERIS     OPER     GRID   

              2       5        3.45       700     1000      520     1800     2200   
                                         GEOM     BASIS   MCVARS    GRID      UKS  

 PROGRAMS   *        TOTAL       UKS       INT
 CPU TIMES  *        46.56     43.74      2.68
 REAL TIME  *        48.48 SEC
 DISK USED  *       280.45 MB      
 **********************************************************************************************************************************


 PROGRAM * Intrinsic Basis Bonding Analysis (IBBA)          Author: G. Knizia

 Molecular orbitals read from record     2200.2  Type=UKS/ALPHA (state 1.1)
 Fock matrix read from record            2200.2  Type=UKS/TOTAL (state 1.1)
 Orbital energies read from record       2200.2  Type=UKS/ALPHA (state 1.1)
 Density matrix read from record         2200.2  Type=UKS/CHARGE (state 1.1)

 Number of core orbitals:           4 (   4 )
 Number of closed-shell orbitals:  13 (  13 )

 Basis set MINAO-AUTO-PP generated.      Number of basis functions:   30 

 Polarized AO type:                A = (O Ot + (1-O)(1-Ot)) P12
 Orthogonalization method:         Symmetric (Loewdin)
 Localization functional:          L = sum[A,i] <i|n_A|i>^4 -> max

 Localization group 1:  17 orbitals, occupancy  2.000
 Iterative localization: IB/PM,    7 iter; Final gradient 0.28E-08

 Bond order analysis:       [THRPRINT= 0.020]

   CEN ATOM   CEN ATOM     WIBERG.BO      RENORM.BO
     1   C  -   3   C       1.013379       1.009722
     1   C  -   4   C       1.013130       1.009567
     1   C  -   5   C       1.013130       1.009567
     1   C  -   2   H       0.934550       0.955319

     2   H  -   1   C       0.934550       0.955319

     3   C  -   1   C       1.013379       1.009722
     3   C  -   9   H       0.965678       0.984121
     3   C  -  10   H       0.965678       0.984121
     3   C  -   6   H       0.963903       0.979198

     4   C  -   1   C       1.013130       1.009567
     4   C  -  11   H       0.965737       0.984100
     4   C  -  12   H       0.965499       0.984306
     4   C  -   7   H       0.964025       0.979163

     5   C  -   1   C       1.013130       1.009567
     5   C  -  14   H       0.965737       0.984100
     5   C  -  13   H       0.965499       0.984306
     5   C  -   8   H       0.964025       0.979163

     6   H  -   3   C       0.963903       0.979198

     7   H  -   4   C       0.964025       0.979163

     8   H  -   5   C       0.964025       0.979163

     9   H  -   3   C       0.965678       0.984121

    10   H  -   3   C       0.965678       0.984121

    11   H  -   4   C       0.965737       0.984100

    12   H  -   4   C       0.965499       0.984306

    13   H  -   5   C       0.965499       0.984306

    14   H  -   5   C       0.965737       0.984100


 Valency analysis:

   CEN ATOM   TOT.VALENCE
     1   C       3.981499
     2   H       0.986835
     3   C       3.943229
     4   C       3.943217
     5   C       3.943217
     6   H       0.984737
     7   H       0.984856
     8   H       0.984856
     9   H       0.983705
    10   H       0.983705
    11   H       0.983820
    12   H       0.983444
    13   H       0.983444
    14   H       0.983820

 Total charge composition:

   CEN ATOM         s          p       ELECTRONS ->P.CHARGE
     1   C       2.94532    3.12256      6.06788   -0.06788
     2   H       0.88526                 0.88526    0.11474
     3   C       3.01927    3.37549      6.39477   -0.39477
     4   C       3.01916    3.37524      6.39439   -0.39439
     5   C       3.01916    3.37524      6.39439   -0.39439
     6   H       0.87646                 0.87646    0.12354
     7   H       0.87694                 0.87694    0.12306
     8   H       0.87694                 0.87694    0.12306
     9   H       0.87235                 0.87235    0.12765
    10   H       0.87235                 0.87235    0.12765
    11   H       0.87280                 0.87280    0.12720
    12   H       0.87133                 0.87133    0.12867
    13   H       0.87133                 0.87133    0.12867
    14   H       0.87280                 0.87280    0.12720

 Total charge composition, AO contributions:

   CEN ATOM SHL      SPHERICAL COMPONENTS
     1   C  1s       1.99192
     1   C  2s       0.95340
     1   C  2p       1.00786    1.00784    1.10685

     2   H  1s       0.88526

     3   C  1s       1.99132
     3   C  2s       1.02795
     3   C  2p       1.07171    1.15750    1.14629

     4   C  1s       1.99132
     4   C  2s       1.02783
     4   C  2p       1.13700    1.09252    1.14572

     5   C  1s       1.99132
     5   C  2s       1.02783
     5   C  2p       1.13700    1.09252    1.14572

     6   H  1s       0.87646

     7   H  1s       0.87694

     8   H  1s       0.87694

     9   H  1s       0.87235

    10   H  1s       0.87235

    11   H  1s       0.87280

    12   H  1s       0.87133

    13   H  1s       0.87133

    14   H  1s       0.87280

 Summary of localized orbital composition:   [THRPRINT= 0.020]

   ORB  GRP  ORB.ENERGY      CENTERS/CHARGES
     1   1   -10.145444      C  1   2.000
     2   1   -10.119821      C  5   2.000
     3   1   -10.119821      C  4   2.000
     4   1   -10.119717      C  3   2.000
     5   1    -0.562576      C  3   1.008   C  1   0.976
     6   1    -0.562288      C  5   1.007   C  1   0.977
     7   1    -0.562288      C  4   1.007   C  1   0.977
     8   1    -0.498698      C  5   1.127   H 13   0.864
     9   1    -0.498698      C  4   1.127   H 12   0.864
    10   1    -0.497753      C  4   1.122   H  7   0.870
    11   1    -0.497753      C  5   1.122   H  8   0.870
    12   1    -0.497721      C  3   1.122   H  6   0.869
    13   1    -0.497433      C  3   1.126   H  9   0.865
    14   1    -0.497433      C  3   1.126   H 10   0.865
    15   1    -0.497269      C  5   1.125   H 14   0.866
    16   1    -0.497269      C  4   1.125   H 11   0.866
    17   1    -0.490785      C  1   1.098   H  2   0.872   (other: 0.030)

 Localized orbitals saved to record      2200.2  (orbital set 4)


 **********************************************************************************************************************************
 DATASETS  * FILE   NREC   LENGTH (MB)   RECORD NAMES
              1      20       89.03       500      610      700      900      950      970     1000      129      960     1100   
                                          VAR    BASINP    GEOM    SYMINP    ZMAT    AOBASIS   BASIS     P2S    ABASIS      S 
                                         1400     1410     1200     1210     1080     1600     1650     1300     1700     1800   
                                           T        V       H0       H01     AOSYM     SMH    MOLCAS    ERIS     OPER     GRID   

              2       5        3.54       700     1000      520     1800     2200   
                                         GEOM     BASIS   MCVARS    GRID      UKS  

 PROGRAMS   *        TOTAL      IBBA       UKS       INT
 CPU TIMES  *        46.59      0.03     43.74      2.68
 REAL TIME  *        48.59 SEC
 DISK USED  *       280.45 MB      
 **********************************************************************************************************************************
 Molecular orbitals read from record     2200.2  Type=UKS/LOCAL(IBO)  
 Occupation numbers read from record     2200.2  Type=UKS/LOCAL(IBO)  
 Orbital energies read from record       2200.2  Type=UKS/LOCAL(IBO)  
 Redundancy group numbers read from rec  2200.2  Type=UKS/BETA (state 1.1)

 IBBA/SVP energy=      0.000000000000

        UKS-SCF 
   -158.19768021
 **********************************************************************************************************************************
 Molpro calculation terminated
