
 Primary working directories    : /local
 Secondary working directories  : /local
 Wavefunction directory         : /local/
 Main file repository           : /local/

 SHA1      : b4a5b34a9e711420743f49e6833241d17c61fb3c
 NAME      : 2099.9.b4a5b34
 ARCHNAME  : linux/x86_64_openmp
 FC        : /cm/shared/languages/GCC-6.1/bin/gfortran
 BLASLIB   : -lblas
 id        : simonbennie

 Nodes     nprocs
 node32-024    1

 Using customized tuning parameters: mindgm=1; mindgv=20; mindgc=4; mindgr=1; noblas=0; minvec=7
 default implementation of scratch files=df  

 memory,500,m
 geomtyp=xyz
 nosym
 noorient
 geometry={
 C         -1.53233        0.02247        0.00000
 C         -0.00192        0.01421        0.00000
 O          0.37239        1.40356        0.00000
 H          1.34248        1.44036        0.00000
 H         -1.92991       -0.99819        0.00000
 H         -1.90797        0.54382       -0.88653
 H         -1.90797        0.54382        0.88653
 C          0.54303       -0.66466       -1.26580
 C          0.54303       -0.66466        1.26580
 H          0.17836       -0.14752       -2.15943
 H          0.17836       -0.14752        2.15943
 H          0.23752       -1.71600       -1.32280
 H          0.23752       -1.71600        1.32280
 H          1.64084       -0.63767       -1.28032
 H          1.64084       -0.63767        1.28032
 }
 basis={ default,tzvp }
 {uks,PBE,direct;wf,42,1,0}
 {ibba,bonds=1}

 Variables initialized (895), CPU time= 0.00 sec
 Commands  initialized (725), CPU time= 0.01 sec, 591 directives.
 Default parameters read. Elapsed time= 0.08 sec

 Checking input...
 Passed
1


                                         ***  PROGRAM SYSTEM MOLPRO  ***
                                       Copyright, TTI GmbH Stuttgart, 2015
                                    Version 2099.9 linked May 26 2017 16:03:21


 **********************************************************************************************************************************
 LABEL *                                                                                 
  64 bit serial version                                                                  DATE: 12-Jun-17          TIME: 19:35:57  
 **********************************************************************************************************************************

 SHA1:             b4a5b34a9e711420743f49e6833241d17c61fb3c
 **********************************************************************************************************************************
 SETTING GEOMTYP        =    XYZ

 Variable memory set to  500000000 words,  buffer space 

 ZSYMEL=NOSYM

 SETTING BASIS          =    TZVP


 Recomputing integrals since basis changed


 Using spherical harmonics

 Library entry C      S def2-TZVP            selected for orbital group  1
 Library entry C      P def2-TZVP            selected for orbital group  1
 Library entry C      D def2-TZVP            selected for orbital group  1
 Library entry C      F def2-TZVP            selected for orbital group  1
 Library entry O      S def2-TZVP            selected for orbital group  2
 Library entry O      P def2-TZVP            selected for orbital group  2
 Library entry O      D def2-TZVP            selected for orbital group  2
 Library entry O      F def2-TZVP            selected for orbital group  2
 Library entry H      S def2-TZVP            selected for orbital group  3
 Library entry H      P def2-TZVP            selected for orbital group  3


 PROGRAM * SEWARD (Integral evaluation for generally contracted gaussian basis sets)     Author: Roland Lindh, 1990

 Geometry written to block  1 of record 700


 Point group  C1  



 ATOMIC COORDINATES

 NR  ATOM    CHARGE       X              Y              Z

   1  C       6.00   -2.895684032    0.042462146    0.000000000
   2  C       6.00   -0.003628274    0.026853008    0.000000000
   3  O       8.00    0.703715112    2.652343999    0.000000000
   4  H       1.00    2.536919528    2.721885921    0.000000000
   5  H       1.00   -3.647001345   -1.886305720    0.000000000
   6  H       1.00   -3.605540754    1.027670861   -1.675298901
   7  H       1.00   -3.605540754    1.027670861    1.675298901
   8  C       6.00    1.026177977   -1.256025366   -2.392015328
   9  C       6.00    1.026177977   -1.256025366    2.392015328
  10  H       1.00    0.337051552   -0.278772398   -4.080731285
  11  H       1.00    0.337051552   -0.278772398    4.080731285
  12  H       1.00    0.448847749   -3.242770030   -2.499729718
  13  H       1.00    0.448847749   -3.242770030    2.499729718
  14  H       1.00    3.100738214   -1.205021658   -2.419454152
  15  H       1.00    3.100738214   -1.205021658    2.419454152

 Bond lengths in Bohr (Angstrom)

 1-2  2.892097881  1-5  2.069933136  1-6  2.069096224  1-7  2.069096224  2-3  2.719106031
     ( 1.530432290)     ( 1.095361444)     ( 1.094918569)     ( 1.094918569)     ( 1.438888946)

  2- 8  2.903104402   2- 9  2.903104402   3- 4  1.834522965   8-10  2.069222119   8-12  2.071730422
       ( 1.536256691)       ( 1.536256691)       ( 0.970787746)       ( 1.094985190)       ( 1.096312526)

  8-14  2.075368508   9-11  2.069222119   9-13  2.071730422   9-15  2.075368508
       ( 1.098237719)       ( 1.094985190)       ( 1.096312526)       ( 1.098237719)

 Bond angles

  1-2-3  104.76902697   1-2-8  110.92255387   1-2-9  110.92255387   2-1-5  110.97328220

  2- 1- 6  110.22090701   2- 1- 7  110.22090701   2- 3- 4  107.25071562   2- 8-10  110.21836376

  2- 8-12  111.57747468   2- 8-14  110.77023896   2- 9-11  110.21836376   2- 9-13  111.57747468

  2- 9-15  110.77023896   3- 2- 8  109.53648747   3- 2- 9  109.53648747   5- 1- 6  108.61190457

  5- 1- 7  108.61190457   6- 1- 7  108.12870271   8- 2- 9  110.96453384  10- 8-12  108.52192632

 10- 8-14  108.08997829  11- 9-13  108.52192632  11- 9-15  108.08997829  12- 8-14  107.54424578

 13- 9-15  107.54424578

 NUCLEAR CHARGE:                   42
 NUMBER OF PRIMITIVE AOS:         335
 NUMBER OF SYMMETRY AOS:          310
 NUMBER OF CONTRACTIONS:          215   ( 215A   )
 NUMBER OF CORE ORBITALS:           5   (   5A   )
 NUMBER OF VALENCE ORBITALS:       30   (  30A   )


 NUCLEAR REPULSION ENERGY  198.77359127


 Eigenvalues of metric

         1 0.262E-03 0.510E-03 0.539E-03 0.594E-03 0.697E-03 0.755E-03 0.210E-02 0.239E-02


 Contracted 2-electron integrals neglected if value below      1.0D-11
 AO integral compression algorithm  1   Integral accuracy      1.0D-11

     977.797 MB (compressed) written to integral file ( 41.7%)


 NUMBER OF SORTED TWO-ELECTRON INTEGRALS:  269595810.     BUFFER LENGTH:  32768
 NUMBER OF SEGMENTS:  17  SEGMENT LENGTH:   15999762      RECORD LENGTH: 524288

 Memory used in sort:      16.56 MW

 SORT1 READ   292827432. AND WROTE   238500613. INTEGRALS IN    690 RECORDS. CPU TIME:     3.53 SEC, REAL TIME:    20.07 SEC
 SORT2 READ   238500613. AND WROTE   269595810. INTEGRALS IN   3730 RECORDS. CPU TIME:     5.58 SEC, REAL TIME:    20.39 SEC

 FILE SIZES:   FILE 1:  1009.7 MBYTE,  FILE 4:  2894.1 MBYTE,   TOTAL:   3903.8 MBYTE

 OPERATOR DM      FOR CENTER  0  COORDINATES:    0.000000    0.000000    0.000000


 **********************************************************************************************************************************
 DATASETS  * FILE   NREC   LENGTH (MB)   RECORD NAMES
              1      19      926.27       500      610      700      900      950      970     1000      129      960     1100   
                                          VAR    BASINP    GEOM    SYMINP    ZMAT    AOBASIS   BASIS     P2S    ABASIS      S 
                                         1400     1410     1200     1210     1080     1600     1650     1300     1700   
                                           T        V       H0       H01     AOSYM     SMH    MOLCAS    ERIS     OPER   

 PROGRAMS   *        TOTAL       INT
 CPU TIMES  *        26.24     26.09
 REAL TIME  *        69.43 SEC
 DISK USED  *         3.90 GB      
 **********************************************************************************************************************************

 Density functional group PBE=PBEX+PBEC
 Functional: PBEX(Automatically generated (new) PBEX)                          Gradient terms: 1
 Functional: PBEC(Automatically generated (new) PBEC)                          Gradient terms: 1
 Use grid at  1800.2

 Functional: PBEX                      Factor:  1.0000
 Functional: PBEC                      Factor:  1.0000

 Generated new metagrid on record  1800.2 with target accuracy 1.0D-06 and 54596 points in CPU time    1.6
 Computed new grid on record 1800.1 in CPU time    1.8
  175219 words reserved for DFT integration

 PROGRAM * UKS-SCF (Unrestricted Kohn-Sham)     Authors: W. Meyer, H.-J. Werner, P.J. Knowles, 1993

 NUMBER OF ELECTRONS:      21+   21-    SPACE SYMMETRY=1    SPIN SYMMETRY: Singlet 
 CONVERGENCE THRESHOLDS:    1.00E-05 (Density)    1.00E-06 (Energy)
 MAX. NUMBER OF ITERATIONS:       60
 INTERPOLATION TYPE:            DIIS
 INTERPOLATION STEPS:              2 (START)      1 (STEP)
 LEVEL SHIFTS:                 -0.20 (ALPHA)  -0.20 (BETA) 



 Use fine grid record 1800.2 for energy threshold  1.0D-06
 Orbital guess generated from atomic densities. Full valence occupancy:   21

 Molecular orbital dump at record        2200.2

 Initial alpha occupation  21
 Initial beta  occupation  21

 ITERATION    DDIFF          GRAD             ENERGY        2-EL.EN.            DIPOLE MOMENTS         DIIS
    1      0.000D+00      0.000D+00      -233.14649558    640.501025    0.70207   -0.76797    0.00000    0
    2      0.579D-02      0.365D-02      -233.37888063    614.282040    0.19268   -0.41822    0.00000    1
    3      0.195D-02      0.212D-02      -233.45265457    622.357643    0.36676   -0.54484    0.00000    2
    4      0.521D-03      0.281D-03      -233.45410794    622.071105    0.34858   -0.47622    0.00000    3
    5      0.419D-03      0.124D-03      -233.45452997    622.029872    0.34681   -0.48389    0.00000    4
    6      0.381D-03      0.317D-04      -233.45460556    622.002657    0.34477   -0.47317    0.00000    5
    7      0.836D-04      0.120D-04      -233.45461036    621.966596    0.34275   -0.47256    0.00000    6
    8      0.382D-04      0.690D-05      -233.45461177    621.979142    0.34261   -0.47313    0.00000    7
    9      0.115D-04      0.784D-06      -233.45461182    621.978485    0.34267   -0.47265    0.00000    6
   10      0.280D-05      0.263D-06      -233.45461183    621.977915    0.34253   -0.47284    0.00000    7
   11      0.671D-06      0.119D-06      -233.45461183    621.978403    0.34256   -0.47282    0.00000    7

 Final alpha occupancy:  21
 Final beta  occupancy:  21

 !UKS STATE 1.1 Energy               -233.454611825527
 Nuclear energy                       198.77359127
 One-electron energy                 -709.48450009
 Two-electron energy                  310.98920127
 Density functional                   -33.73290428     PBEX=-32.36705952 PBEC= -1.36584476
 Virial quotient                       -1.00473788
 !UKS STATE 1.1 Dipole moment           0.34255729    -0.47282252     0.00000000
 Dipole moment /Debye                   0.87063675    -1.20171625     0.00000000

 Orbital energies for positive spin:

         1.1          2.1          3.1          4.1          5.1          6.1          7.1          8.1          9.1         10.1
    -18.741625    -9.940376    -9.872117    -9.872112    -9.867320    -0.929209    -0.714563    -0.624210    -0.623506    -0.512638

        11.1         12.1         13.1         14.1         15.1         16.1         17.1         18.1         19.1         20.1
     -0.438935    -0.403487    -0.400804    -0.365231    -0.352058    -0.335858    -0.322352    -0.311033    -0.304800    -0.277536

        21.1         22.1         23.1
     -0.223712    -0.000431     0.044938

 Orbital energies for negative spin:

         1.1          2.1          3.1          4.1          5.1          6.1          7.1          8.1          9.1         10.1
    -18.741625    -9.940376    -9.872117    -9.872112    -9.867320    -0.929209    -0.714563    -0.624210    -0.623506    -0.512638

        11.1         12.1         13.1         14.1         15.1         16.1         17.1         18.1         19.1         20.1
     -0.438935    -0.403487    -0.400804    -0.365231    -0.352058    -0.335858    -0.322352    -0.311033    -0.304800    -0.277536

        21.1         22.1         23.1
     -0.223712    -0.000431     0.044938

 HOMO     21.1    -0.223712 =      -6.0875eV
 LUMO     22.1    -0.000431 =      -0.0117eV
 LUMO-HOMO         0.223280 =       6.0758eV

 EXPECTATION VALUE OF S**2:            -0.00000000

 Natural orbitals saved to record    2200.2 (Orbital set 3)

 Orbital spaces for UNO-CAS (Min. occupation: 0.020  Max. occupation: 1.980):

 Closed:       21
 Active:        0


 **********************************************************************************************************************************
 DATASETS  * FILE   NREC   LENGTH (MB)   RECORD NAMES
              1      20      928.02       500      610      700      900      950      970     1000      129      960     1100   
                                          VAR    BASINP    GEOM    SYMINP    ZMAT    AOBASIS   BASIS     P2S    ABASIS      S 
                                         1400     1410     1200     1210     1080     1600     1650     1300     1700     1800   
                                           T        V       H0       H01     AOSYM     SMH    MOLCAS    ERIS     OPER     GRID   

              2       5        4.89       700     1000      520     1800     2200   
                                         GEOM     BASIS   MCVARS    GRID      UKS  

 PROGRAMS   *        TOTAL       UKS       INT
 CPU TIMES  *       100.43     74.19     26.09
 REAL TIME  *       146.41 SEC
 DISK USED  *         3.90 GB      
 **********************************************************************************************************************************


 PROGRAM * Intrinsic Basis Bonding Analysis (IBBA)          Author: G. Knizia

 Molecular orbitals read from record     2200.2  Type=UKS/ALPHA (state 1.1)
 Fock matrix read from record            2200.2  Type=UKS/TOTAL (state 1.1)
 Orbital energies read from record       2200.2  Type=UKS/ALPHA (state 1.1)
 Density matrix read from record         2200.2  Type=UKS/CHARGE (state 1.1)

 Number of core orbitals:           5 (   5 )
 Number of closed-shell orbitals:  16 (  16 )

 Basis set MINAO-AUTO-PP generated.      Number of basis functions:   35 

 Polarized AO type:                A = (O Ot + (1-O)(1-Ot)) P12
 Orthogonalization method:         Symmetric (Loewdin)
 Localization functional:          L = sum[A,i] <i|n_A|i>^4 -> max

 Localization group 1:  21 orbitals, occupancy  2.000
 Iterative localization: IB/PM,    7 iter; Final gradient 0.15E-08

 Bond order analysis:       [THRPRINT= 0.020]

   CEN ATOM   CEN ATOM     WIBERG.BO      RENORM.BO
     1   C  -   2   C       0.996303       0.992865
     1   C  -   5   H       0.959675       0.986017
     1   C  -   6   H       0.954868       0.979659
     1   C  -   7   H       0.954868       0.979659

     2   C  -   1   C       0.996303       0.992865
     2   C  -   9   C       0.994834       0.973364
     2   C  -   8   C       0.994834       0.973364
     2   C  -   3   O       0.938576       0.944881

     3   O  -   2   C       0.938576       0.944881
     3   O  -   4   H       0.861622       0.973379
     3   O  -   8   C       0.030679       0.015690
     3   O  -   9   C       0.030679       0.015690

     4   H  -   3   O       0.861622       0.973379

     5   H  -   1   C       0.959675       0.986017

     6   H  -   1   C       0.954868       0.979659

     7   H  -   1   C       0.954868       0.979659

     8   C  -   2   C       0.994834       0.973364
     8   C  -  14   H       0.959171       0.980477
     8   C  -  10   H       0.955514       0.979548
     8   C  -  12   H       0.954813       0.978748
     8   C  -   3   O       0.030679       0.015690

     9   C  -   2   C       0.994834       0.973364
     9   C  -  15   H       0.959171       0.980477
     9   C  -  11   H       0.955514       0.979548
     9   C  -  13   H       0.954813       0.978748
     9   C  -   3   O       0.030679       0.015690

    10   H  -   8   C       0.955514       0.979548

    11   H  -   9   C       0.955514       0.979548

    12   H  -   8   C       0.954813       0.978748

    13   H  -   9   C       0.954813       0.978748

    14   H  -   8   C       0.959171       0.980477

    15   H  -   9   C       0.959171       0.980477


 Valency analysis:

   CEN ATOM   TOT.VALENCE
     1   C       3.931400
     2   C       3.935571
     3   O       1.936767
     4   H       0.883417
     5   H       0.980002
     6   H       0.977515
     7   H       0.977515
     8   C       3.934185
     9   C       3.934185
    10   H       0.977587
    11   H       0.977587
    12   H       0.979410
    13   H       0.979410
    14   H       0.981806
    15   H       0.981806

 Total charge composition:

   CEN ATOM         s          p       ELECTRONS ->P.CHARGE
     1   C       3.04610    3.38772      6.43382   -0.43382
     2   C       2.94040    2.81370      5.75410    0.24590
     3   O       3.65247    4.90422      8.55669   -0.55669
     4   H       0.65856                 0.65856    0.34144
     5   H       0.85859                 0.85859    0.14141
     6   H       0.85005                 0.85005    0.14995
     7   H       0.85005                 0.85005    0.14995
     8   C       3.05295    3.39421      6.44716   -0.44716
     9   C       3.05295    3.39421      6.44716   -0.44716
    10   H       0.85029                 0.85029    0.14971
    11   H       0.85029                 0.85029    0.14971
    12   H       0.85651                 0.85651    0.14349
    13   H       0.85651                 0.85651    0.14349
    14   H       0.86512                 0.86512    0.13488
    15   H       0.86512                 0.86512    0.13488

 Total charge composition, AO contributions:

   CEN ATOM SHL      SPHERICAL COMPONENTS
     1   C  1s       1.99141
     1   C  2s       1.05468
     1   C  2p       1.04104    1.16713    1.17955

     2   C  1s       1.99303
     2   C  2s       0.94738
     2   C  2p       1.00806    0.79443    1.01121

     3   O  1s       1.99722
     3   O  2s       1.65526
     3   O  2p       1.46955    1.48387    1.95080

     4   H  1s       0.65856

     5   H  1s       0.85859

     6   H  1s       0.85005

     7   H  1s       0.85005

     8   C  1s       1.99152
     8   C  2s       1.06143
     8   C  2p       1.14873    1.14828    1.09720

     9   C  1s       1.99152
     9   C  2s       1.06143
     9   C  2p       1.14873    1.14828    1.09720

    10   H  1s       0.85029

    11   H  1s       0.85029

    12   H  1s       0.85651

    13   H  1s       0.85651

    14   H  1s       0.86512

    15   H  1s       0.86512

 Summary of localized orbital composition:   [THRPRINT= 0.020]

   ORB  GRP  ORB.ENERGY      CENTERS/CHARGES
     1   1   -18.588063      O  3   2.000
     2   1    -9.851078      C  2   2.000
     3   1    -9.760091      C  8   2.000
     4   1    -9.760091      C  9   2.000
     5   1    -9.754518      C  1   2.000
     6   1    -0.695764      O  3   1.344   H  4   0.645
     7   1    -0.654464      O  3   1.277   C  2   0.703
     8   1    -0.519482      C  8   1.007   C  2   0.976
     9   1    -0.519482      C  9   1.007   C  2   0.976
    10   1    -0.519274      C  1   0.991   C  2   0.984   (other: 0.025)
    11   1    -0.510967      O  3   1.980
    12   1    -0.454249      C  9   1.139   H 13   0.846
    13   1    -0.454249      C  8   1.139   H 12   0.846
    14   1    -0.452828      C  8   1.130   H 14   0.857
    15   1    -0.452828      C  9   1.130   H 15   0.857
    16   1    -0.450349      C  1   1.134   H  5   0.851
    17   1    -0.448393      C  9   1.147   H 11   0.841
    18   1    -0.448393      C  8   1.147   H 10   0.841
    19   1    -0.444131      C  1   1.147   H  6   0.841
    20   1    -0.444131      C  1   1.147   H  7   0.841
    21   1    -0.250601      O  3   1.951   (other: 0.049)

 Localized orbitals saved to record      2200.2  (orbital set 4)


 **********************************************************************************************************************************
 DATASETS  * FILE   NREC   LENGTH (MB)   RECORD NAMES
              1      20      928.02       500      610      700      900      950      970     1000      129      960     1100   
                                          VAR    BASINP    GEOM    SYMINP    ZMAT    AOBASIS   BASIS     P2S    ABASIS      S 
                                         1400     1410     1200     1210     1080     1600     1650     1300     1700     1800   
                                           T        V       H0       H01     AOSYM     SMH    MOLCAS    ERIS     OPER     GRID   

              2       5        5.27       700     1000      520     1800     2200   
                                         GEOM     BASIS   MCVARS    GRID      UKS  

 PROGRAMS   *        TOTAL      IBBA       UKS       INT
 CPU TIMES  *       100.50      0.06     74.19     26.09
 REAL TIME  *       146.76 SEC
 DISK USED  *         3.90 GB      
 **********************************************************************************************************************************
 Molecular orbitals read from record     2200.2  Type=UKS/LOCAL(IBO)  
 Occupation numbers read from record     2200.2  Type=UKS/LOCAL(IBO)  
 Orbital energies read from record       2200.2  Type=UKS/LOCAL(IBO)  
 Redundancy group numbers read from rec  2200.2  Type=UKS/BETA (state 1.1)

 IBBA/TZVP energy=      0.000000000000

        UKS-SCF 
   -233.45461183
 **********************************************************************************************************************************
 Molpro calculation terminated
