
 Primary working directories    : /local
 Secondary working directories  : /local
 Wavefunction directory         : /local/
 Main file repository           : /local/

 SHA1      : b4a5b34a9e711420743f49e6833241d17c61fb3c
 NAME      : 2099.9.b4a5b34
 ARCHNAME  : linux/x86_64_openmp
 FC        : /cm/shared/languages/GCC-6.1/bin/gfortran
 BLASLIB   : -lblas
 id        : simonbennie

 Nodes     nprocs
 node33-038    1

 Using customized tuning parameters: mindgm=1; mindgv=20; mindgc=4; mindgr=1; noblas=0; minvec=7
 default implementation of scratch files=df  

 memory,500,m
 geomtyp=xyz
 nosym
 noorient
 geometry={
 C         -1.53233        0.02247        0.00000
 C         -0.00192        0.01421        0.00000
 O          0.37239        1.40356        0.00000
 H          1.34248        1.44036        0.00000
 H         -1.92991       -0.99819        0.00000
 H         -1.90797        0.54382       -0.88653
 H         -1.90797        0.54382        0.88653
 C          0.54303       -0.66466       -1.26580
 C          0.54303       -0.66466        1.26580
 H          0.17836       -0.14752       -2.15943
 H          0.17836       -0.14752        2.15943
 H          0.23752       -1.71600       -1.32280
 H          0.23752       -1.71600        1.32280
 H          1.64084       -0.63767       -1.28032
 H          1.64084       -0.63767        1.28032
 }
 basis={ default,avdz }
 {uks,B-LYP,direct;wf,42,1,0}
 {ibba,bonds=1}

 Variables initialized (895), CPU time= 0.01 sec
 Commands  initialized (725), CPU time= 0.01 sec, 591 directives.
 Default parameters read. Elapsed time= 0.08 sec

 Checking input...
 Passed
1


                                         ***  PROGRAM SYSTEM MOLPRO  ***
                                       Copyright, TTI GmbH Stuttgart, 2015
                                    Version 2099.9 linked May 26 2017 16:03:21


 **********************************************************************************************************************************
 LABEL *                                                                                 
  64 bit serial version                                                                  DATE: 12-Jun-17          TIME: 16:34:53  
 **********************************************************************************************************************************

 SHA1:             b4a5b34a9e711420743f49e6833241d17c61fb3c
 **********************************************************************************************************************************
 SETTING GEOMTYP        =    XYZ

 Variable memory set to  500000000 words,  buffer space 

 ZSYMEL=NOSYM

 SETTING BASIS          =    AVDZ


 Recomputing integrals since basis changed


 Using spherical harmonics

 Library entry C      S aug-cc-pVDZ          selected for orbital group  1
 Library entry C      P aug-cc-pVDZ          selected for orbital group  1
 Library entry C      D aug-cc-pVDZ          selected for orbital group  1
 Library entry O      S aug-cc-pVDZ          selected for orbital group  2
 Library entry O      P aug-cc-pVDZ          selected for orbital group  2
 Library entry O      D aug-cc-pVDZ          selected for orbital group  2
 Library entry H      S aug-cc-pVDZ          selected for orbital group  3
 Library entry H      P aug-cc-pVDZ          selected for orbital group  3


 PROGRAM * SEWARD (Integral evaluation for generally contracted gaussian basis sets)     Author: Roland Lindh, 1990

 Geometry written to block  1 of record 700


 Point group  C1  



 ATOMIC COORDINATES

 NR  ATOM    CHARGE       X              Y              Z

   1  C       6.00   -2.895684032    0.042462146    0.000000000
   2  C       6.00   -0.003628274    0.026853008    0.000000000
   3  O       8.00    0.703715112    2.652343999    0.000000000
   4  H       1.00    2.536919528    2.721885921    0.000000000
   5  H       1.00   -3.647001345   -1.886305720    0.000000000
   6  H       1.00   -3.605540754    1.027670861   -1.675298901
   7  H       1.00   -3.605540754    1.027670861    1.675298901
   8  C       6.00    1.026177977   -1.256025366   -2.392015328
   9  C       6.00    1.026177977   -1.256025366    2.392015328
  10  H       1.00    0.337051552   -0.278772398   -4.080731285
  11  H       1.00    0.337051552   -0.278772398    4.080731285
  12  H       1.00    0.448847749   -3.242770030   -2.499729718
  13  H       1.00    0.448847749   -3.242770030    2.499729718
  14  H       1.00    3.100738214   -1.205021658   -2.419454152
  15  H       1.00    3.100738214   -1.205021658    2.419454152

 Bond lengths in Bohr (Angstrom)

 1-2  2.892097881  1-5  2.069933136  1-6  2.069096224  1-7  2.069096224  2-3  2.719106031
     ( 1.530432290)     ( 1.095361444)     ( 1.094918569)     ( 1.094918569)     ( 1.438888946)

  2- 8  2.903104402   2- 9  2.903104402   3- 4  1.834522965   8-10  2.069222119   8-12  2.071730422
       ( 1.536256691)       ( 1.536256691)       ( 0.970787746)       ( 1.094985190)       ( 1.096312526)

  8-14  2.075368508   9-11  2.069222119   9-13  2.071730422   9-15  2.075368508
       ( 1.098237719)       ( 1.094985190)       ( 1.096312526)       ( 1.098237719)

 Bond angles

  1-2-3  104.76902697   1-2-8  110.92255387   1-2-9  110.92255387   2-1-5  110.97328220

  2- 1- 6  110.22090701   2- 1- 7  110.22090701   2- 3- 4  107.25071562   2- 8-10  110.21836376

  2- 8-12  111.57747468   2- 8-14  110.77023896   2- 9-11  110.21836376   2- 9-13  111.57747468

  2- 9-15  110.77023896   3- 2- 8  109.53648747   3- 2- 9  109.53648747   5- 1- 6  108.61190457

  5- 1- 7  108.61190457   6- 1- 7  108.12870271   8- 2- 9  110.96453384  10- 8-12  108.52192632

 10- 8-14  108.08997829  11- 9-13  108.52192632  11- 9-15  108.08997829  12- 8-14  107.54424578

 13- 9-15  107.54424578

 NUCLEAR CHARGE:                   42
 NUMBER OF PRIMITIVE AOS:         295
 NUMBER OF SYMMETRY AOS:          285
 NUMBER OF CONTRACTIONS:          205   ( 205A   )
 NUMBER OF CORE ORBITALS:           5   (   5A   )
 NUMBER OF VALENCE ORBITALS:       30   (  30A   )


 NUCLEAR REPULSION ENERGY  198.77359127


 Eigenvalues of metric

         1 0.151E-04 0.552E-04 0.579E-04 0.110E-03 0.111E-03 0.217E-03 0.237E-03 0.259E-03


 Contracted 2-electron integrals neglected if value below      1.0D-12
 AO integral compression algorithm  1   Integral accuracy      1.0D-12

     1203.503 MB (compressed) written to integral file ( 61.3%)


 NUMBER OF SORTED TWO-ELECTRON INTEGRALS:  222932170.     BUFFER LENGTH:  32768
 NUMBER OF SEGMENTS:  14  SEGMENT LENGTH:   15999503      RECORD LENGTH: 524288

 Memory used in sort:      16.56 MW

 SORT1 READ   245224724. AND WROTE   218324786. INTEGRALS IN    630 RECORDS. CPU TIME:     2.88 SEC, REAL TIME:     5.68 SEC
 SORT2 READ   218324786. AND WROTE   222932170. INTEGRALS IN   4591 RECORDS. CPU TIME:     4.41 SEC, REAL TIME:    10.42 SEC

 FILE SIZES:   FILE 1:  1235.3 MBYTE,  FILE 4:  2642.4 MBYTE,   TOTAL:   3877.7 MBYTE

 OPERATOR DM      FOR CENTER  0  COORDINATES:    0.000000    0.000000    0.000000


 **********************************************************************************************************************************
 DATASETS  * FILE   NREC   LENGTH (MB)   RECORD NAMES
              1      19     1149.90       500      610      700      900      950      970     1000      129      960     1100   
                                          VAR    BASINP    GEOM    SYMINP    ZMAT    AOBASIS   BASIS     P2S    ABASIS      S 
                                         1400     1410     1200     1210     1080     1600     1650     1300     1700   
                                           T        V       H0       H01     AOSYM     SMH    MOLCAS    ERIS     OPER   

 PROGRAMS   *        TOTAL       INT
 CPU TIMES  *        18.80     18.66
 REAL TIME  *        51.46 SEC
 DISK USED  *         3.88 GB      
 **********************************************************************************************************************************

 Density functional group B-LYP=B88+LYP
 Functional: B88(Automatically generated (new) B88)                            Gradient terms: 1
 Functional: LYP(Automatically generated (new) LYP)                            Gradient terms: 1
 Use grid at  1800.2

 Functional: B88                       Factor:  1.0000
 Functional: LYP                       Factor:  1.0000

 Generated new metagrid on record  1800.2 with target accuracy 1.0D-06 and 53396 points in CPU time    1.6
 Computed new grid on record 1800.1 in CPU time    1.7
  167289 words reserved for DFT integration

 PROGRAM * UKS-SCF (Unrestricted Kohn-Sham)     Authors: W. Meyer, H.-J. Werner, P.J. Knowles, 1993

 NUMBER OF ELECTRONS:      21+   21-    SPACE SYMMETRY=1    SPIN SYMMETRY: Singlet 
 CONVERGENCE THRESHOLDS:    1.00E-05 (Density)    1.00E-06 (Energy)
 MAX. NUMBER OF ITERATIONS:       60
 INTERPOLATION TYPE:            DIIS
 INTERPOLATION STEPS:              2 (START)      1 (STEP)
 LEVEL SHIFTS:                 -0.20 (ALPHA)  -0.20 (BETA) 



 Use fine grid record 1800.2 for energy threshold  1.0D-06
 Orbital guess generated from atomic densities. Full valence occupancy:   35

 Molecular orbital dump at record        2200.2

 Initial alpha occupation  21
 Initial beta  occupation  21

 ITERATION    DDIFF          GRAD             ENERGY        2-EL.EN.            DIPOLE MOMENTS         DIIS
    1      0.000D+00      0.000D+00      -233.26850425    639.745059    0.69802   -0.77570    0.00000    0
    2      0.259D-01      0.374D-02      -233.50374793    613.768833    0.15984   -0.46547    0.00000    1
    3      0.995D-02      0.211D-02      -233.57696726    621.850417    0.34558   -0.58861    0.00000    2
    4      0.179D-02      0.296D-03      -233.57859310    621.474691    0.32308   -0.52335    0.00000    3
    5      0.121D-02      0.123D-03      -233.57907423    621.391799    0.31991   -0.53259    0.00000    4
    6      0.839D-03      0.333D-04      -233.57916598    621.368842    0.31828   -0.52603    0.00000    5
    7      0.216D-03      0.143D-04      -233.57917402    621.325365    0.31605   -0.52594    0.00000    6
    8      0.998D-04      0.744D-05      -233.57917605    621.335702    0.31576   -0.52683    0.00000    7
    9      0.287D-04      0.107D-05      -233.57917617    621.333696    0.31583   -0.52616    0.00000    7
   10      0.101D-04      0.380D-06      -233.57917618    621.334813    0.31568   -0.52641    0.00000    7
   11      0.289D-05      0.158D-06      -233.57917618    621.334007    0.31570   -0.52636    0.00000    7
   12      0.185D-05      0.705D-07      -233.57917618    621.334297    0.31570   -0.52635    0.00000    7

 Final alpha occupancy:  21
 Final beta  occupancy:  21

 !UKS STATE 1.1 Energy               -233.579176179111
 Nuclear energy                       198.77359127
 One-electron energy                 -709.10596605
 Two-electron energy                  310.66714862
 Density functional                   -33.91395002     B88=-32.54179225 LYP= -1.37215778
 Virial quotient                       -1.00618143
 !UKS STATE 1.1 Dipole moment           0.31569719    -0.52634669     0.00000000
 Dipole moment /Debye                   0.80236966    -1.33775222     0.00000000

 Orbital energies for positive spin:

         1.1          2.1          3.1          4.1          5.1          6.1          7.1          8.1          9.1         10.1
    -18.794051    -9.977492    -9.914254    -9.914227    -9.909390    -0.927655    -0.710302    -0.620613    -0.619890    -0.509815

        11.1         12.1         13.1         14.1         15.1         16.1         17.1         18.1         19.1         20.1
     -0.435628    -0.400043    -0.397247    -0.363186    -0.349903    -0.334290    -0.320798    -0.309515    -0.303121    -0.276483

        21.1         22.1         23.1
     -0.223585    -0.028482    -0.001567

 Orbital energies for negative spin:

         1.1          2.1          3.1          4.1          5.1          6.1          7.1          8.1          9.1         10.1
    -18.794051    -9.977492    -9.914254    -9.914227    -9.909390    -0.927655    -0.710302    -0.620613    -0.619890    -0.509815

        11.1         12.1         13.1         14.1         15.1         16.1         17.1         18.1         19.1         20.1
     -0.435628    -0.400043    -0.397247    -0.363186    -0.349903    -0.334290    -0.320798    -0.309515    -0.303121    -0.276483

        21.1         22.1         23.1
     -0.223585    -0.028482    -0.001567

 HOMO     21.1    -0.223585 =      -6.0841eV
 LUMO     22.1    -0.028482 =      -0.7750eV
 LUMO-HOMO         0.195103 =       5.3090eV

 EXPECTATION VALUE OF S**2:            -0.00000000

 Natural orbitals saved to record    2200.2 (Orbital set 3)

 Orbital spaces for UNO-CAS (Min. occupation: 0.020  Max. occupation: 1.980):

 Closed:       21
 Active:        0


 **********************************************************************************************************************************
 DATASETS  * FILE   NREC   LENGTH (MB)   RECORD NAMES
              1      20     1151.61       500      610      700      900      950      970     1000      129      960     1100   
                                          VAR    BASINP    GEOM    SYMINP    ZMAT    AOBASIS   BASIS     P2S    ABASIS      S 
                                         1400     1410     1200     1210     1080     1600     1650     1300     1700     1800   
                                           T        V       H0       H01     AOSYM     SMH    MOLCAS    ERIS     OPER     GRID   

              2       5        4.72       700     1000      520     1800     2200   
                                         GEOM     BASIS   MCVARS    GRID      UKS  

 PROGRAMS   *        TOTAL       UKS       INT
 CPU TIMES  *       102.94     84.15     18.66
 REAL TIME  *       138.82 SEC
 DISK USED  *         3.88 GB      
 **********************************************************************************************************************************


 PROGRAM * Intrinsic Basis Bonding Analysis (IBBA)          Author: G. Knizia

 Molecular orbitals read from record     2200.2  Type=UKS/ALPHA (state 1.1)
 Fock matrix read from record            2200.2  Type=UKS/TOTAL (state 1.1)
 Orbital energies read from record       2200.2  Type=UKS/ALPHA (state 1.1)
 Density matrix read from record         2200.2  Type=UKS/CHARGE (state 1.1)

 Number of core orbitals:           5 (   5 )
 Number of closed-shell orbitals:  16 (  16 )

 Basis set MINAO-AUTO-PP generated.      Number of basis functions:   35 

 Polarized AO type:                A = (O Ot + (1-O)(1-Ot)) P12
 Orthogonalization method:         Symmetric (Loewdin)
 Localization functional:          L = sum[A,i] <i|n_A|i>^4 -> max

 Localization group 1:  21 orbitals, occupancy  2.000
 Iterative localization: IB/PM,    7 iter; Final gradient 0.19E-08

 Bond order analysis:       [THRPRINT= 0.020]

   CEN ATOM   CEN ATOM     WIBERG.BO      RENORM.BO
     1   C  -   2   C       0.996283       0.993996
     1   C  -   5   H       0.962257       0.986211
     1   C  -   6   H       0.957618       0.980053
     1   C  -   7   H       0.957618       0.980053

     2   C  -   1   C       0.996283       0.993996
     2   C  -   9   C       0.995077       0.974949
     2   C  -   8   C       0.995077       0.974949
     2   C  -   3   O       0.933947       0.946240

     3   O  -   2   C       0.933947       0.946240
     3   O  -   4   H       0.862412       0.973150
     3   O  -   9   C       0.030018       0.015350
     3   O  -   8   C       0.030018       0.015350

     4   H  -   3   O       0.862412       0.973150

     5   H  -   1   C       0.962257       0.986211

     6   H  -   1   C       0.957618       0.980053

     7   H  -   1   C       0.957618       0.980053

     8   C  -   2   C       0.995077       0.974949
     8   C  -  14   H       0.961595       0.980931
     8   C  -  10   H       0.958181       0.979851
     8   C  -  12   H       0.957448       0.979068
     8   C  -   3   O       0.030018       0.015350

     9   C  -   2   C       0.995077       0.974949
     9   C  -  15   H       0.961595       0.980931
     9   C  -  11   H       0.958181       0.979851
     9   C  -  13   H       0.957448       0.979068
     9   C  -   3   O       0.030018       0.015350

    10   H  -   8   C       0.958181       0.979851

    11   H  -   9   C       0.958181       0.979851

    12   H  -   8   C       0.957448       0.979068

    13   H  -   9   C       0.957448       0.979068

    14   H  -   8   C       0.961595       0.980931

    15   H  -   9   C       0.961595       0.980931


 Valency analysis:

   CEN ATOM   TOT.VALENCE
     1   C       3.937909
     2   C       3.931065
     3   O       1.929860
     4   H       0.884296
     5   H       0.982184
     6   H       0.979701
     7   H       0.979701
     8   C       3.940452
     9   C       3.940452
    10   H       0.979755
    11   H       0.979755
    12   H       0.981584
    13   H       0.981584
    14   H       0.983666
    15   H       0.983666

 Total charge composition:

   CEN ATOM         s          p       ELECTRONS ->P.CHARGE
     1   C       3.04305    3.36774      6.41079   -0.41079
     2   C       2.94142    2.80407      5.74550    0.25450
     3   O       3.65439    4.91068      8.56507   -0.56507
     4   H       0.65985                 0.65985    0.34015
     5   H       0.86652                 0.86652    0.13348
     6   H       0.85752                 0.85752    0.14248
     7   H       0.85752                 0.85752    0.14248
     8   C       3.05023    3.37417      6.42441   -0.42441
     9   C       3.05023    3.37417      6.42441   -0.42441
    10   H       0.85771                 0.85771    0.14229
    11   H       0.85771                 0.85771    0.14229
    12   H       0.86429                 0.86429    0.13571
    13   H       0.86429                 0.86429    0.13571
    14   H       0.87219                 0.87219    0.12781
    15   H       0.87219                 0.87219    0.12781

 Total charge composition, AO contributions:

   CEN ATOM SHL      SPHERICAL COMPONENTS
     1   C  1s       1.99140
     1   C  2s       1.05165
     1   C  2p       1.03608    1.15937    1.17229

     2   C  1s       1.99300
     2   C  2s       0.94842
     2   C  2p       1.00695    0.78655    1.01057

     3   O  1s       1.99720
     3   O  2s       1.65719
     3   O  2p       1.46872    1.48999    1.95197

     4   H  1s       0.65985

     5   H  1s       0.86652

     6   H  1s       0.85752

     7   H  1s       0.85752

     8   C  1s       1.99150
     8   C  2s       1.05874
     8   C  2p       1.14189    1.14096    1.09132

     9   C  1s       1.99150
     9   C  2s       1.05874
     9   C  2p       1.14189    1.14096    1.09132

    10   H  1s       0.85771

    11   H  1s       0.85771

    12   H  1s       0.86429

    13   H  1s       0.86429

    14   H  1s       0.87219

    15   H  1s       0.87219

 Summary of localized orbital composition:   [THRPRINT= 0.020]

   ORB  GRP  ORB.ENERGY      CENTERS/CHARGES
     1   1   -18.639020      O  3   2.000
     2   1    -9.887798      C  2   2.000
     3   1    -9.802147      C  8   2.000
     4   1    -9.802147      C  9   2.000
     5   1    -9.796554      C  1   2.000
     6   1    -0.694330      O  3   1.343   H  4   0.647
     7   1    -0.653584      O  3   1.285   C  2   0.696
     8   1    -0.515905      C  9   1.007   C  2   0.977
     9   1    -0.515905      C  8   1.007   C  2   0.977
    10   1    -0.515635      C  1   0.990   C  2   0.985   (other: 0.025)
    11   1    -0.510325      O  3   1.981
    12   1    -0.452024      C  8   1.131   H 12   0.854
    13   1    -0.452024      C  9   1.131   H 13   0.854
    14   1    -0.450220      C  9   1.123   H 15   0.865
    15   1    -0.450220      C  8   1.123   H 14   0.865
    16   1    -0.448132      C  1   1.126   H  5   0.859
    17   1    -0.445972      C  8   1.140   H 10   0.849
    18   1    -0.445972      C  9   1.140   H 11   0.849
    19   1    -0.441701      C  1   1.139   H  7   0.849
    20   1    -0.441701      C  1   1.139   H  6   0.849
    21   1    -0.250152      O  3   1.952   (other: 0.048)

 Localized orbitals saved to record      2200.2  (orbital set 4)


 **********************************************************************************************************************************
 DATASETS  * FILE   NREC   LENGTH (MB)   RECORD NAMES
              1      20     1151.61       500      610      700      900      950      970     1000      129      960     1100   
                                          VAR    BASINP    GEOM    SYMINP    ZMAT    AOBASIS   BASIS     P2S    ABASIS      S 
                                         1400     1410     1200     1210     1080     1600     1650     1300     1700     1800   
                                           T        V       H0       H01     AOSYM     SMH    MOLCAS    ERIS     OPER     GRID   

              2       5        5.06       700     1000      520     1800     2200   
                                         GEOM     BASIS   MCVARS    GRID      UKS  

 PROGRAMS   *        TOTAL      IBBA       UKS       INT
 CPU TIMES  *       103.01      0.07     84.15     18.66
 REAL TIME  *       138.99 SEC
 DISK USED  *         3.88 GB      
 **********************************************************************************************************************************
 Molecular orbitals read from record     2200.2  Type=UKS/LOCAL(IBO)  
 Occupation numbers read from record     2200.2  Type=UKS/LOCAL(IBO)  
 Orbital energies read from record       2200.2  Type=UKS/LOCAL(IBO)  
 Redundancy group numbers read from rec  2200.2  Type=UKS/BETA (state 1.1)

 IBBA/aug-cc-pVDZ energy=      0.000000000000

        UKS-SCF 
   -233.57917618
 **********************************************************************************************************************************
 Molpro calculation terminated
