
 Primary working directories    : /local
 Secondary working directories  : /local
 Wavefunction directory         : /local/
 Main file repository           : /local/

 SHA1      : b4a5b34a9e711420743f49e6833241d17c61fb3c
 NAME      : 2099.9.b4a5b34
 ARCHNAME  : linux/x86_64_openmp
 FC        : /cm/shared/languages/GCC-6.1/bin/gfortran
 BLASLIB   : -lblas
 id        : simonbennie

 Nodes     nprocs
 node35-036    1

 Using customized tuning parameters: mindgm=1; mindgv=20; mindgc=4; mindgr=1; noblas=0; minvec=7
 default implementation of scratch files=df  

 memory,500,m
 geomtyp=xyz
 nosym
 noorient
 geometry={
 C         -1.53233        0.02247        0.00000
 C         -0.00192        0.01421        0.00000
 O          0.37239        1.40356        0.00000
 H          1.34248        1.44036        0.00000
 H         -1.92991       -0.99819        0.00000
 H         -1.90797        0.54382       -0.88653
 H         -1.90797        0.54382        0.88653
 C          0.54303       -0.66466       -1.26580
 C          0.54303       -0.66466        1.26580
 H          0.17836       -0.14752       -2.15943
 H          0.17836       -0.14752        2.15943
 H          0.23752       -1.71600       -1.32280
 H          0.23752       -1.71600        1.32280
 H          1.64084       -0.63767       -1.28032
 H          1.64084       -0.63767        1.28032
 }
 basis={ default,tzvp }
 {uks,PW91,direct;wf,42,1,0}
 {ibba,bonds=1}

 Variables initialized (895), CPU time= 0.00 sec
 Commands  initialized (725), CPU time= 0.01 sec, 591 directives.
 Default parameters read. Elapsed time= 1.79 sec

 Checking input...
 Passed
1


                                         ***  PROGRAM SYSTEM MOLPRO  ***
                                       Copyright, TTI GmbH Stuttgart, 2015
                                    Version 2099.9 linked May 26 2017 16:03:21


 **********************************************************************************************************************************
 LABEL *                                                                                 
  64 bit serial version                                                                  DATE: 12-Jun-17          TIME: 19:42:59  
 **********************************************************************************************************************************

 SHA1:             b4a5b34a9e711420743f49e6833241d17c61fb3c
 **********************************************************************************************************************************
 SETTING GEOMTYP        =    XYZ

 Variable memory set to  500000000 words,  buffer space 

 ZSYMEL=NOSYM

 SETTING BASIS          =    TZVP


 Recomputing integrals since basis changed


 Using spherical harmonics

 Library entry C      S def2-TZVP            selected for orbital group  1
 Library entry C      P def2-TZVP            selected for orbital group  1
 Library entry C      D def2-TZVP            selected for orbital group  1
 Library entry C      F def2-TZVP            selected for orbital group  1
 Library entry O      S def2-TZVP            selected for orbital group  2
 Library entry O      P def2-TZVP            selected for orbital group  2
 Library entry O      D def2-TZVP            selected for orbital group  2
 Library entry O      F def2-TZVP            selected for orbital group  2
 Library entry H      S def2-TZVP            selected for orbital group  3
 Library entry H      P def2-TZVP            selected for orbital group  3


 PROGRAM * SEWARD (Integral evaluation for generally contracted gaussian basis sets)     Author: Roland Lindh, 1990

 Geometry written to block  1 of record 700


 Point group  C1  



 ATOMIC COORDINATES

 NR  ATOM    CHARGE       X              Y              Z

   1  C       6.00   -2.895684032    0.042462146    0.000000000
   2  C       6.00   -0.003628274    0.026853008    0.000000000
   3  O       8.00    0.703715112    2.652343999    0.000000000
   4  H       1.00    2.536919528    2.721885921    0.000000000
   5  H       1.00   -3.647001345   -1.886305720    0.000000000
   6  H       1.00   -3.605540754    1.027670861   -1.675298901
   7  H       1.00   -3.605540754    1.027670861    1.675298901
   8  C       6.00    1.026177977   -1.256025366   -2.392015328
   9  C       6.00    1.026177977   -1.256025366    2.392015328
  10  H       1.00    0.337051552   -0.278772398   -4.080731285
  11  H       1.00    0.337051552   -0.278772398    4.080731285
  12  H       1.00    0.448847749   -3.242770030   -2.499729718
  13  H       1.00    0.448847749   -3.242770030    2.499729718
  14  H       1.00    3.100738214   -1.205021658   -2.419454152
  15  H       1.00    3.100738214   -1.205021658    2.419454152

 Bond lengths in Bohr (Angstrom)

 1-2  2.892097881  1-5  2.069933136  1-6  2.069096224  1-7  2.069096224  2-3  2.719106031
     ( 1.530432290)     ( 1.095361444)     ( 1.094918569)     ( 1.094918569)     ( 1.438888946)

  2- 8  2.903104402   2- 9  2.903104402   3- 4  1.834522965   8-10  2.069222119   8-12  2.071730422
       ( 1.536256691)       ( 1.536256691)       ( 0.970787746)       ( 1.094985190)       ( 1.096312526)

  8-14  2.075368508   9-11  2.069222119   9-13  2.071730422   9-15  2.075368508
       ( 1.098237719)       ( 1.094985190)       ( 1.096312526)       ( 1.098237719)

 Bond angles

  1-2-3  104.76902697   1-2-8  110.92255387   1-2-9  110.92255387   2-1-5  110.97328220

  2- 1- 6  110.22090701   2- 1- 7  110.22090701   2- 3- 4  107.25071562   2- 8-10  110.21836376

  2- 8-12  111.57747468   2- 8-14  110.77023896   2- 9-11  110.21836376   2- 9-13  111.57747468

  2- 9-15  110.77023896   3- 2- 8  109.53648747   3- 2- 9  109.53648747   5- 1- 6  108.61190457

  5- 1- 7  108.61190457   6- 1- 7  108.12870271   8- 2- 9  110.96453384  10- 8-12  108.52192632

 10- 8-14  108.08997829  11- 9-13  108.52192632  11- 9-15  108.08997829  12- 8-14  107.54424578

 13- 9-15  107.54424578

 NUCLEAR CHARGE:                   42
 NUMBER OF PRIMITIVE AOS:         335
 NUMBER OF SYMMETRY AOS:          310
 NUMBER OF CONTRACTIONS:          215   ( 215A   )
 NUMBER OF CORE ORBITALS:           5   (   5A   )
 NUMBER OF VALENCE ORBITALS:       30   (  30A   )


 NUCLEAR REPULSION ENERGY  198.77359127


 Eigenvalues of metric

         1 0.262E-03 0.510E-03 0.539E-03 0.594E-03 0.697E-03 0.755E-03 0.210E-02 0.239E-02


 Contracted 2-electron integrals neglected if value below      1.0D-11
 AO integral compression algorithm  1   Integral accuracy      1.0D-11

     977.797 MB (compressed) written to integral file ( 41.7%)


 NUMBER OF SORTED TWO-ELECTRON INTEGRALS:  269595810.     BUFFER LENGTH:  32768
 NUMBER OF SEGMENTS:  17  SEGMENT LENGTH:   15999762      RECORD LENGTH: 524288

 Memory used in sort:      16.56 MW

 SORT1 READ   292827432. AND WROTE   238500613. INTEGRALS IN    690 RECORDS. CPU TIME:     3.79 SEC, REAL TIME:    42.68 SEC
 SORT2 READ   238500613. AND WROTE   269595810. INTEGRALS IN   3730 RECORDS. CPU TIME:     6.61 SEC, REAL TIME:    47.22 SEC

 FILE SIZES:   FILE 1:  1009.7 MBYTE,  FILE 4:  2894.1 MBYTE,   TOTAL:   3903.8 MBYTE

 OPERATOR DM      FOR CENTER  0  COORDINATES:    0.000000    0.000000    0.000000


 **********************************************************************************************************************************
 DATASETS  * FILE   NREC   LENGTH (MB)   RECORD NAMES
              1      19      926.27       500      610      700      900      950      970     1000      129      960     1100   
                                          VAR    BASINP    GEOM    SYMINP    ZMAT    AOBASIS   BASIS     P2S    ABASIS      S 
                                         1400     1410     1200     1210     1080     1600     1650     1300     1700   
                                           T        V       H0       H01     AOSYM     SMH    MOLCAS    ERIS     OPER   

 PROGRAMS   *        TOTAL       INT
 CPU TIMES  *        28.02     27.88
 REAL TIME  *       136.79 SEC
 DISK USED  *         3.90 GB      
 **********************************************************************************************************************************

 Density functional group PW91=PW91X+PW91C
 Functional: PW91X(Automatically generated (new) PW91X)                        Gradient terms: 1
 Functional: PW91C(Automatically generated (new) PW91C)                        Gradient terms: 1
 Use grid at  1800.2

 Functional: PW91X                     Factor:  1.0000
 Functional: PW91C                     Factor:  1.0000

 Generated new metagrid on record  1800.2 with target accuracy 1.0D-06 and 54596 points in CPU time    1.7
 Computed new grid on record 1800.1 in CPU time    1.9
  175219 words reserved for DFT integration

 PROGRAM * UKS-SCF (Unrestricted Kohn-Sham)     Authors: W. Meyer, H.-J. Werner, P.J. Knowles, 1993

 NUMBER OF ELECTRONS:      21+   21-    SPACE SYMMETRY=1    SPIN SYMMETRY: Singlet 
 CONVERGENCE THRESHOLDS:    1.00E-05 (Density)    1.00E-06 (Energy)
 MAX. NUMBER OF ITERATIONS:       60
 INTERPOLATION TYPE:            DIIS
 INTERPOLATION STEPS:              2 (START)      1 (STEP)
 LEVEL SHIFTS:                 -0.20 (ALPHA)  -0.20 (BETA) 



 Use fine grid record 1800.2 for energy threshold  1.0D-06
 Orbital guess generated from atomic densities. Full valence occupancy:   21

 Molecular orbital dump at record        2200.2

 Initial alpha occupation  21
 Initial beta  occupation  21

 ITERATION    DDIFF          GRAD             ENERGY        2-EL.EN.            DIPOLE MOMENTS         DIIS
    1      0.000D+00      0.000D+00      -233.34245333    641.052373    0.70542   -0.78319    0.00000    0
    2      0.583D-02      0.373D-02      -233.58232297    614.185953    0.18986   -0.41146    0.00000    1
    3      0.202D-02      0.219D-02      -233.66016320    622.503539    0.36824   -0.54824    0.00000    2
    4      0.506D-03      0.293D-03      -233.66166420    622.273332    0.35106   -0.48145    0.00000    3
    5      0.465D-03      0.122D-03      -233.66209548    622.196492    0.34784   -0.48589    0.00000    4
    6      0.385D-03      0.324D-04      -233.66216919    622.175174    0.34561   -0.47599    0.00000    5
    7      0.819D-04      0.123D-04      -233.66217408    622.139706    0.34366   -0.47535    0.00000    6
    8      0.399D-04      0.691D-05      -233.66217553    622.152383    0.34348   -0.47595    0.00000    7
    9      0.120D-04      0.814D-06      -233.66217558    622.151694    0.34355   -0.47550    0.00000    6
   10      0.286D-05      0.269D-06      -233.66217558    622.151279    0.34341   -0.47569    0.00000    7
   11      0.648D-06      0.121D-06      -233.66217559    622.151719    0.34344   -0.47567    0.00000    7

 Final alpha occupancy:  21
 Final beta  occupancy:  21

 !UKS STATE 1.1 Energy               -233.662175585095
 Nuclear energy                       198.77359127
 One-electron energy                 -709.55714515
 Two-electron energy                  311.07585934
 Density functional                   -33.95448104     PW91X=-32.49994346 PW91C= -1.45453758
 Virial quotient                       -1.00501037
 !UKS STATE 1.1 Dipole moment           0.34344173    -0.47566935     0.00000000
 Dipole moment /Debye                   0.87288462    -1.20895171     0.00000000

 Orbital energies for positive spin:

         1.1          2.1          3.1          4.1          5.1          6.1          7.1          8.1          9.1         10.1
    -18.755696    -9.952824    -9.884769    -9.884764    -9.879924    -0.930309    -0.715943    -0.625882    -0.625139    -0.514398

        11.1         12.1         13.1         14.1         15.1         16.1         17.1         18.1         19.1         20.1
     -0.440841    -0.405459    -0.402811    -0.367393    -0.354298    -0.338089    -0.324698    -0.313247    -0.307087    -0.279708

        21.1         22.1         23.1
     -0.226135    -0.004820     0.040195

 Orbital energies for negative spin:

         1.1          2.1          3.1          4.1          5.1          6.1          7.1          8.1          9.1         10.1
    -18.755696    -9.952824    -9.884768    -9.884764    -9.879923    -0.930308    -0.715942    -0.625882    -0.625139    -0.514398

        11.1         12.1         13.1         14.1         15.1         16.1         17.1         18.1         19.1         20.1
     -0.440841    -0.405458    -0.402811    -0.367393    -0.354298    -0.338089    -0.324698    -0.313247    -0.307087    -0.279707

        21.1         22.1         23.1
     -0.226134    -0.004821     0.040194

 HOMO    -21.1    -0.226134 =      -6.1534eV
 LUMO    -22.1    -0.004821 =      -0.1312eV
 LUMO-HOMO         0.221314 =       6.0223eV

 EXPECTATION VALUE OF S**2:             0.00000000

 Occupation number threshold for canonical orbitals:  1.999000 (occupied),  0.001000 (virtual)

 Number of pseudo-canonical orbitals per symmetry:   21
 Number of active natural orbitals per symmetry:      0

 Natural orbitals saved to record    2200.2 (Orbital set 3)

 Orbital spaces for UNO-CAS (Min. occupation: 0.020  Max. occupation: 1.980):

 Closed:       21
 Active:        0


 **********************************************************************************************************************************
 DATASETS  * FILE   NREC   LENGTH (MB)   RECORD NAMES
              1      20      928.02       500      610      700      900      950      970     1000      129      960     1100   
                                          VAR    BASINP    GEOM    SYMINP    ZMAT    AOBASIS   BASIS     P2S    ABASIS      S 
                                         1400     1410     1200     1210     1080     1600     1650     1300     1700     1800   
                                           T        V       H0       H01     AOSYM     SMH    MOLCAS    ERIS     OPER     GRID   

              2       5        4.89       700     1000      520     1800     2200   
                                         GEOM     BASIS   MCVARS    GRID      UKS  

 PROGRAMS   *        TOTAL       UKS       INT
 CPU TIMES  *       103.58     75.56     27.88
 REAL TIME  *       218.12 SEC
 DISK USED  *         3.90 GB      
 **********************************************************************************************************************************


 PROGRAM * Intrinsic Basis Bonding Analysis (IBBA)          Author: G. Knizia

 Molecular orbitals read from record     2200.2  Type=UKS/ALPHA (state 1.1)
 Fock matrix read from record            2200.2  Type=UKS/TOTAL (state 1.1)
 Orbital energies read from record       2200.2  Type=UKS/ALPHA (state 1.1)
 Density matrix read from record         2200.2  Type=UKS/CHARGE (state 1.1)

 Number of core orbitals:           5 (   5 )
 Number of closed-shell orbitals:  16 (  16 )

 Basis set MINAO-AUTO-PP generated.      Number of basis functions:   35 

 Polarized AO type:                A = (O Ot + (1-O)(1-Ot)) P12
 Orthogonalization method:         Symmetric (Loewdin)
 Localization functional:          L = sum[A,i] <i|n_A|i>^4 -> max

 Localization group 1:  21 orbitals, occupancy  2.000
 Iterative localization: IB/PM,    7 iter; Final gradient 0.14E-08

 Bond order analysis:       [THRPRINT= 0.020]

   CEN ATOM   CEN ATOM     WIBERG.BO      RENORM.BO
     1   C  -   2   C       0.996267       0.992938
     1   C  -   5   H       0.959830       0.986054
     1   C  -   6   H       0.955028       0.979772
     1   C  -   7   H       0.955028       0.979772

     2   C  -   1   C       0.996267       0.992938
     2   C  -   9   C       0.994844       0.973536
     2   C  -   8   C       0.994844       0.973536
     2   C  -   3   O       0.937942       0.945117

     3   O  -   2   C       0.937942       0.945117
     3   O  -   4   H       0.861339       0.973463
     3   O  -   8   C       0.030540       0.015619
     3   O  -   9   C       0.030540       0.015619

     4   H  -   3   O       0.861339       0.973463

     5   H  -   1   C       0.959830       0.986054

     6   H  -   1   C       0.955028       0.979772

     7   H  -   1   C       0.955028       0.979772

     8   C  -   2   C       0.994844       0.973536
     8   C  -  14   H       0.959332       0.980577
     8   C  -  10   H       0.955663       0.979654
     8   C  -  12   H       0.954976       0.978866
     8   C  -   3   O       0.030540       0.015619

     9   C  -   2   C       0.994844       0.973536
     9   C  -  15   H       0.959332       0.980577
     9   C  -  11   H       0.955663       0.979654
     9   C  -  13   H       0.954976       0.978866
     9   C  -   3   O       0.030540       0.015619

    10   H  -   8   C       0.955663       0.979654

    11   H  -   9   C       0.955663       0.979654

    12   H  -   8   C       0.954976       0.978866

    13   H  -   9   C       0.954976       0.978866

    14   H  -   8   C       0.959332       0.980577

    15   H  -   9   C       0.959332       0.980577


 Valency analysis:

   CEN ATOM   TOT.VALENCE
     1   C       3.931516
     2   C       3.934910
     3   O       1.935185
     4   H       0.883039
     5   H       0.980083
     6   H       0.977567
     7   H       0.977567
     8   C       3.934299
     9   C       3.934299
    10   H       0.977634
    11   H       0.977634
    12   H       0.979464
    13   H       0.979464
    14   H       0.981864
    15   H       0.981864

 Total charge composition:

   CEN ATOM         s          p       ELECTRONS ->P.CHARGE
     1   C       3.04568    3.38730      6.43298   -0.43298
     2   C       2.94003    2.81331      5.75335    0.24665
     3   O       3.65213    4.90653      8.55866   -0.55866
     4   H       0.65800                 0.65800    0.34200
     5   H       0.85887                 0.85887    0.14113
     6   H       0.85022                 0.85022    0.14978
     7   H       0.85022                 0.85022    0.14978
     8   C       3.05251    3.39386      6.44638   -0.44638
     9   C       3.05251    3.39386      6.44638   -0.44638
    10   H       0.85045                 0.85045    0.14955
    11   H       0.85045                 0.85045    0.14955
    12   H       0.85670                 0.85670    0.14330
    13   H       0.85670                 0.85670    0.14330
    14   H       0.86533                 0.86533    0.13467
    15   H       0.86533                 0.86533    0.13467

 Total charge composition, AO contributions:

   CEN ATOM SHL      SPHERICAL COMPONENTS
     1   C  1s       1.99140
     1   C  2s       1.05428
     1   C  2p       1.04077    1.16699    1.17953

     2   C  1s       1.99302
     2   C  2s       0.94702
     2   C  2p       1.00834    0.79354    1.01143

     3   O  1s       1.99721
     3   O  2s       1.65492
     3   O  2p       1.47037    1.48509    1.95107

     4   H  1s       0.65800

     5   H  1s       0.85887

     6   H  1s       0.85022

     7   H  1s       0.85022

     8   C  1s       1.99151
     8   C  2s       1.06101
     8   C  2p       1.14863    1.14818    1.09706

     9   C  1s       1.99151
     9   C  2s       1.06101
     9   C  2p       1.14863    1.14818    1.09706

    10   H  1s       0.85045

    11   H  1s       0.85045

    12   H  1s       0.85670

    13   H  1s       0.85670

    14   H  1s       0.86533

    15   H  1s       0.86533

 Summary of localized orbital composition:   [THRPRINT= 0.020]

   ORB  GRP  ORB.ENERGY      CENTERS/CHARGES
     1   1   -18.602157      O  3   2.000
     2   1    -9.863451      C  2   2.000
     3   1    -9.772667      C  8   2.000
     4   1    -9.772667      C  9   2.000
     5   1    -9.767043      C  1   2.000
     6   1    -0.697880      O  3   1.345   H  4   0.645
     7   1    -0.656303      O  3   1.278   C  2   0.702
     8   1    -0.521277      C  8   1.007   C  2   0.977
     9   1    -0.521277      C  9   1.007   C  2   0.977
    10   1    -0.521013      C  1   0.990   C  2   0.984   (other: 0.025)
    11   1    -0.511874      O  3   1.980
    12   1    -0.456418      C  9   1.139   H 13   0.846
    13   1    -0.456418      C  8   1.139   H 12   0.846
    14   1    -0.454981      C  8   1.130   H 14   0.857
    15   1    -0.454981      C  9   1.130   H 15   0.857
    16   1    -0.452474      C  1   1.134   H  5   0.851
    17   1    -0.450532      C  9   1.147   H 11   0.842
    18   1    -0.450532      C  8   1.147   H 10   0.842
    19   1    -0.446213      C  1   1.146   H  6   0.841
    20   1    -0.446213      C  1   1.146   H  7   0.841
    21   1    -0.252977      O  3   1.951   (other: 0.049)

 Localized orbitals saved to record      2200.2  (orbital set 4)


 **********************************************************************************************************************************
 DATASETS  * FILE   NREC   LENGTH (MB)   RECORD NAMES
              1      20      928.02       500      610      700      900      950      970     1000      129      960     1100   
                                          VAR    BASINP    GEOM    SYMINP    ZMAT    AOBASIS   BASIS     P2S    ABASIS      S 
                                         1400     1410     1200     1210     1080     1600     1650     1300     1700     1800   
                                           T        V       H0       H01     AOSYM     SMH    MOLCAS    ERIS     OPER     GRID   

              2       5        5.27       700     1000      520     1800     2200   
                                         GEOM     BASIS   MCVARS    GRID      UKS  

 PROGRAMS   *        TOTAL      IBBA       UKS       INT
 CPU TIMES  *       103.65      0.07     75.56     27.88
 REAL TIME  *       218.31 SEC
 DISK USED  *         3.90 GB      
 **********************************************************************************************************************************
 Molecular orbitals read from record     2200.2  Type=UKS/LOCAL(IBO)  
 Occupation numbers read from record     2200.2  Type=UKS/LOCAL(IBO)  
 Orbital energies read from record       2200.2  Type=UKS/LOCAL(IBO)  
 Redundancy group numbers read from rec  2200.2  Type=UKS/BETA (state 1.1)

 IBBA/TZVP energy=      0.000000000000

        UKS-SCF 
   -233.66217559
 **********************************************************************************************************************************
 Molpro calculation terminated
