
 Primary working directories    : /local
 Secondary working directories  : /local
 Wavefunction directory         : /local/
 Main file repository           : /local/

 SHA1      : b4a5b34a9e711420743f49e6833241d17c61fb3c
 NAME      : 2099.9.b4a5b34
 ARCHNAME  : linux/x86_64_openmp
 FC        : /cm/shared/languages/GCC-6.1/bin/gfortran
 BLASLIB   : -lblas
 id        : simonbennie

 Nodes     nprocs
 node44-015    1

 Using customized tuning parameters: mindgm=1; mindgv=20; mindgc=4; mindgr=1; noblas=0; minvec=7
 default implementation of scratch files=df  

 memory,500,m
 geomtyp=xyz
 nosym
 noorient
 geometry={
 C         -1.53233        0.02247        0.00000
 C         -0.00192        0.01421        0.00000
 O          0.37239        1.40356        0.00000
 H          1.34248        1.44036        0.00000
 H         -1.92991       -0.99819        0.00000
 H         -1.90797        0.54382       -0.88653
 H         -1.90797        0.54382        0.88653
 C          0.54303       -0.66466       -1.26580
 C          0.54303       -0.66466        1.26580
 H          0.17836       -0.14752       -2.15943
 H          0.17836       -0.14752        2.15943
 H          0.23752       -1.71600       -1.32280
 H          0.23752       -1.71600        1.32280
 H          1.64084       -0.63767       -1.28032
 H          1.64084       -0.63767        1.28032
 }
 basis={ default,tzvp }
 {uks,SOGGA,direct;wf,42,1,0}
 {ibba,bonds=1}

 Variables initialized (895), CPU time= 0.01 sec
 Commands  initialized (725), CPU time= 0.01 sec, 591 directives.
 Default parameters read. Elapsed time= 0.08 sec

 Checking input...
 Passed
1


                                         ***  PROGRAM SYSTEM MOLPRO  ***
                                       Copyright, TTI GmbH Stuttgart, 2015
                                    Version 2099.9 linked May 26 2017 16:03:21


 **********************************************************************************************************************************
 LABEL *                                                                                 
  64 bit serial version                                                                  DATE: 12-Jun-17          TIME: 19:31:37  
 **********************************************************************************************************************************

 SHA1:             b4a5b34a9e711420743f49e6833241d17c61fb3c
 **********************************************************************************************************************************
 SETTING GEOMTYP        =    XYZ

 Variable memory set to  500000000 words,  buffer space 

 ZSYMEL=NOSYM

 SETTING BASIS          =    TZVP


 Recomputing integrals since basis changed


 Using spherical harmonics

 Library entry C      S def2-TZVP            selected for orbital group  1
 Library entry C      P def2-TZVP            selected for orbital group  1
 Library entry C      D def2-TZVP            selected for orbital group  1
 Library entry C      F def2-TZVP            selected for orbital group  1
 Library entry O      S def2-TZVP            selected for orbital group  2
 Library entry O      P def2-TZVP            selected for orbital group  2
 Library entry O      D def2-TZVP            selected for orbital group  2
 Library entry O      F def2-TZVP            selected for orbital group  2
 Library entry H      S def2-TZVP            selected for orbital group  3
 Library entry H      P def2-TZVP            selected for orbital group  3


 PROGRAM * SEWARD (Integral evaluation for generally contracted gaussian basis sets)     Author: Roland Lindh, 1990

 Geometry written to block  1 of record 700


 Point group  C1  



 ATOMIC COORDINATES

 NR  ATOM    CHARGE       X              Y              Z

   1  C       6.00   -2.895684032    0.042462146    0.000000000
   2  C       6.00   -0.003628274    0.026853008    0.000000000
   3  O       8.00    0.703715112    2.652343999    0.000000000
   4  H       1.00    2.536919528    2.721885921    0.000000000
   5  H       1.00   -3.647001345   -1.886305720    0.000000000
   6  H       1.00   -3.605540754    1.027670861   -1.675298901
   7  H       1.00   -3.605540754    1.027670861    1.675298901
   8  C       6.00    1.026177977   -1.256025366   -2.392015328
   9  C       6.00    1.026177977   -1.256025366    2.392015328
  10  H       1.00    0.337051552   -0.278772398   -4.080731285
  11  H       1.00    0.337051552   -0.278772398    4.080731285
  12  H       1.00    0.448847749   -3.242770030   -2.499729718
  13  H       1.00    0.448847749   -3.242770030    2.499729718
  14  H       1.00    3.100738214   -1.205021658   -2.419454152
  15  H       1.00    3.100738214   -1.205021658    2.419454152

 Bond lengths in Bohr (Angstrom)

 1-2  2.892097881  1-5  2.069933136  1-6  2.069096224  1-7  2.069096224  2-3  2.719106031
     ( 1.530432290)     ( 1.095361444)     ( 1.094918569)     ( 1.094918569)     ( 1.438888946)

  2- 8  2.903104402   2- 9  2.903104402   3- 4  1.834522965   8-10  2.069222119   8-12  2.071730422
       ( 1.536256691)       ( 1.536256691)       ( 0.970787746)       ( 1.094985190)       ( 1.096312526)

  8-14  2.075368508   9-11  2.069222119   9-13  2.071730422   9-15  2.075368508
       ( 1.098237719)       ( 1.094985190)       ( 1.096312526)       ( 1.098237719)

 Bond angles

  1-2-3  104.76902697   1-2-8  110.92255387   1-2-9  110.92255387   2-1-5  110.97328220

  2- 1- 6  110.22090701   2- 1- 7  110.22090701   2- 3- 4  107.25071562   2- 8-10  110.21836376

  2- 8-12  111.57747468   2- 8-14  110.77023896   2- 9-11  110.21836376   2- 9-13  111.57747468

  2- 9-15  110.77023896   3- 2- 8  109.53648747   3- 2- 9  109.53648747   5- 1- 6  108.61190457

  5- 1- 7  108.61190457   6- 1- 7  108.12870271   8- 2- 9  110.96453384  10- 8-12  108.52192632

 10- 8-14  108.08997829  11- 9-13  108.52192632  11- 9-15  108.08997829  12- 8-14  107.54424578

 13- 9-15  107.54424578

 NUCLEAR CHARGE:                   42
 NUMBER OF PRIMITIVE AOS:         335
 NUMBER OF SYMMETRY AOS:          310
 NUMBER OF CONTRACTIONS:          215   ( 215A   )
 NUMBER OF CORE ORBITALS:           5   (   5A   )
 NUMBER OF VALENCE ORBITALS:       30   (  30A   )


 NUCLEAR REPULSION ENERGY  198.77359127


 Eigenvalues of metric

         1 0.262E-03 0.510E-03 0.539E-03 0.594E-03 0.697E-03 0.755E-03 0.210E-02 0.239E-02


 Contracted 2-electron integrals neglected if value below      1.0D-11
 AO integral compression algorithm  1   Integral accuracy      1.0D-11

     977.797 MB (compressed) written to integral file ( 41.7%)


 NUMBER OF SORTED TWO-ELECTRON INTEGRALS:  269595810.     BUFFER LENGTH:  32768
 NUMBER OF SEGMENTS:  17  SEGMENT LENGTH:   15999762      RECORD LENGTH: 524288

 Memory used in sort:      16.56 MW

 SORT1 READ   292827432. AND WROTE   238500613. INTEGRALS IN    690 RECORDS. CPU TIME:     3.32 SEC, REAL TIME:     6.43 SEC
 SORT2 READ   238500613. AND WROTE   269595810. INTEGRALS IN   3730 RECORDS. CPU TIME:     5.52 SEC, REAL TIME:    10.58 SEC

 FILE SIZES:   FILE 1:  1009.7 MBYTE,  FILE 4:  2894.1 MBYTE,   TOTAL:   3903.8 MBYTE

 OPERATOR DM      FOR CENTER  0  COORDINATES:    0.000000    0.000000    0.000000


 **********************************************************************************************************************************
 DATASETS  * FILE   NREC   LENGTH (MB)   RECORD NAMES
              1      19      926.27       500      610      700      900      950      970     1000      129      960     1100   
                                          VAR    BASINP    GEOM    SYMINP    ZMAT    AOBASIS   BASIS     P2S    ABASIS      S 
                                         1400     1410     1200     1210     1080     1600     1650     1300     1700   
                                           T        V       H0       H01     AOSYM     SMH    MOLCAS    ERIS     OPER   

 PROGRAMS   *        TOTAL       INT
 CPU TIMES  *        24.86     24.72
 REAL TIME  *        58.00 SEC
 DISK USED  *         3.90 GB      
 **********************************************************************************************************************************

 Density functional group SOGGA=XC-SOGGA
 Functional: XC-SOGGA(via MFM 1.6)                                             Gradient terms: 1
 Use grid at  1800.2

 Functional: XC-SOGGA                  Factor:  1.0000

 Generated new metagrid on record  1800.2 with target accuracy 1.0D-06 and 54596 points in CPU time    1.6
 Computed new grid on record 1800.1 in CPU time    1.7
  175219 words reserved for DFT integration

 PROGRAM * UKS-SCF (Unrestricted Kohn-Sham)     Authors: W. Meyer, H.-J. Werner, P.J. Knowles, 1993

 NUMBER OF ELECTRONS:      21+   21-    SPACE SYMMETRY=1    SPIN SYMMETRY: Singlet 
 CONVERGENCE THRESHOLDS:    1.00E-05 (Density)    1.00E-06 (Energy)
 MAX. NUMBER OF ITERATIONS:       60
 INTERPOLATION TYPE:            DIIS
 INTERPOLATION STEPS:              2 (START)      1 (STEP)
 LEVEL SHIFTS:                 -0.20 (ALPHA)  -0.20 (BETA) 



 Use fine grid record 1800.2 for energy threshold  1.0D-06
 Orbital guess generated from atomic densities. Full valence occupancy:   21

 Molecular orbital dump at record        2200.2

 Initial alpha occupation  21
 Initial beta  occupation  21

 ITERATION    DDIFF          GRAD             ENERGY        2-EL.EN.            DIPOLE MOMENTS         DIIS
    1      0.000D+00      0.000D+00      -231.97375610    639.760965    0.70342   -0.75782    0.00000    0
    2      0.562D-02      0.357D-02      -232.20152139    614.073675    0.20328   -0.43750    0.00000    1
    3      0.188D-02      0.205D-02      -232.27100044    621.946075    0.37096   -0.54369    0.00000    2
    4      0.519D-03      0.256D-03      -232.27224805    621.619789    0.35295   -0.47740    0.00000    3
    5      0.383D-03      0.126D-03      -232.27264862    621.600669    0.35189   -0.48759    0.00000    4
    6      0.371D-03      0.321D-04      -232.27272366    621.569985    0.34968   -0.47631    0.00000    5
    7      0.822D-04      0.126D-04      -232.27272871    621.534696    0.34770   -0.47580    0.00000    6
    8      0.395D-04      0.690D-05      -232.27273015    621.547075    0.34751   -0.47642    0.00000    7
    9      0.110D-04      0.791D-06      -232.27273019    621.546238    0.34757   -0.47588    0.00000    6
   10      0.290D-05      0.271D-06      -232.27273020    621.545766    0.34743   -0.47610    0.00000    7
   11      0.680D-06      0.119D-06      -232.27273020    621.546241    0.34745   -0.47607    0.00000    7

 Final alpha occupancy:  21
 Final beta  occupancy:  21

 !UKS STATE 1.1 Energy               -232.272730198462
 Nuclear energy                       198.77359127
 One-electron energy                 -709.35311957
 Two-electron energy                  310.77312051
 Density functional                   -32.46632241     XC-SOGGA=-32.46632241
 Virial quotient                       -1.00481395
 !UKS STATE 1.1 Dipole moment           0.34745342    -0.47607162     0.00000000
 Dipole moment /Debye                   0.88308067    -1.20997412     0.00000000

 Orbital energies for positive spin:

         1.1          2.1          3.1          4.1          5.1          6.1          7.1          8.1          9.1         10.1
    -18.666199    -9.881308    -9.810872    -9.810868    -9.805924    -0.923596    -0.709536    -0.618268    -0.617647    -0.507630

        11.1         12.1         13.1         14.1         15.1         16.1         17.1         18.1         19.1         20.1
     -0.434441    -0.399217    -0.396534    -0.359369    -0.345940    -0.329134    -0.314766    -0.305014    -0.298365    -0.271913

        21.1         22.1         23.1
     -0.218688     0.005186     0.051215

 Orbital energies for negative spin:

         1.1          2.1          3.1          4.1          5.1          6.1          7.1          8.1          9.1         10.1
    -18.666199    -9.881308    -9.810872    -9.810868    -9.805924    -0.923596    -0.709536    -0.618268    -0.617647    -0.507630

        11.1         12.1         13.1         14.1         15.1         16.1         17.1         18.1         19.1         20.1
     -0.434441    -0.399217    -0.396534    -0.359369    -0.345940    -0.329134    -0.314766    -0.305014    -0.298365    -0.271913

        21.1         22.1         23.1
     -0.218688     0.005186     0.051215

 HOMO     21.1    -0.218688 =      -5.9508eV
 LUMO     22.1     0.005186 =       0.1411eV
 LUMO-HOMO         0.223874 =       6.0919eV

 EXPECTATION VALUE OF S**2:            -0.00000000

 Natural orbitals saved to record    2200.2 (Orbital set 3)

 Orbital spaces for UNO-CAS (Min. occupation: 0.020  Max. occupation: 1.980):

 Closed:       21
 Active:        0


 **********************************************************************************************************************************
 DATASETS  * FILE   NREC   LENGTH (MB)   RECORD NAMES
              1      20      928.02       500      610      700      900      950      970     1000      129      960     1100   
                                          VAR    BASINP    GEOM    SYMINP    ZMAT    AOBASIS   BASIS     P2S    ABASIS      S 
                                         1400     1410     1200     1210     1080     1600     1650     1300     1700     1800   
                                           T        V       H0       H01     AOSYM     SMH    MOLCAS    ERIS     OPER     GRID   

              2       5        4.89       700     1000      520     1800     2200   
                                         GEOM     BASIS   MCVARS    GRID      UKS  

 PROGRAMS   *        TOTAL       UKS       INT
 CPU TIMES  *        97.05     72.19     24.72
 REAL TIME  *       131.98 SEC
 DISK USED  *         3.90 GB      
 **********************************************************************************************************************************


 PROGRAM * Intrinsic Basis Bonding Analysis (IBBA)          Author: G. Knizia

 Molecular orbitals read from record     2200.2  Type=UKS/ALPHA (state 1.1)
 Fock matrix read from record            2200.2  Type=UKS/TOTAL (state 1.1)
 Orbital energies read from record       2200.2  Type=UKS/ALPHA (state 1.1)
 Density matrix read from record         2200.2  Type=UKS/CHARGE (state 1.1)

 Number of core orbitals:           5 (   5 )
 Number of closed-shell orbitals:  16 (  16 )

 Basis set MINAO-AUTO-PP generated.      Number of basis functions:   35 

 Polarized AO type:                A = (O Ot + (1-O)(1-Ot)) P12
 Orthogonalization method:         Symmetric (Loewdin)
 Localization functional:          L = sum[A,i] <i|n_A|i>^4 -> max

 Localization group 1:  21 orbitals, occupancy  2.000
 Iterative localization: IB/PM,    7 iter; Final gradient 0.67E-08

 Bond order analysis:       [THRPRINT= 0.020]

   CEN ATOM   CEN ATOM     WIBERG.BO      RENORM.BO
     1   C  -   2   C       0.996347       0.991917
     1   C  -   5   H       0.956563       0.985668
     1   C  -   6   H       0.951598       0.979123
     1   C  -   7   H       0.951598       0.979123

     2   C  -   1   C       0.996347       0.991917
     2   C  -   9   C       0.994942       0.972415
     2   C  -   8   C       0.994942       0.972415
     2   C  -   3   O       0.939746       0.941302

     3   O  -   2   C       0.939746       0.941302
     3   O  -   4   H       0.858566       0.972698
     3   O  -   8   C       0.031426       0.016094
     3   O  -   9   C       0.031426       0.016094

     4   H  -   3   O       0.858566       0.972698

     5   H  -   1   C       0.956563       0.985668

     6   H  -   1   C       0.951598       0.979123

     7   H  -   1   C       0.951598       0.979123

     8   C  -   2   C       0.994942       0.972415
     8   C  -  14   H       0.956112       0.979927
     8   C  -  10   H       0.952276       0.979008
     8   C  -  12   H       0.951558       0.978367
     8   C  -   3   O       0.031426       0.016094

     9   C  -   2   C       0.994942       0.972415
     9   C  -  15   H       0.956112       0.979927
     9   C  -  11   H       0.952276       0.979008
     9   C  -  13   H       0.951558       0.978367
     9   C  -   3   O       0.031426       0.016094

    10   H  -   8   C       0.952276       0.979008

    11   H  -   9   C       0.952276       0.979008

    12   H  -   8   C       0.951558       0.978367

    13   H  -   9   C       0.951558       0.978367

    14   H  -   8   C       0.956112       0.979927

    15   H  -   9   C       0.956112       0.979927


 Valency analysis:

   CEN ATOM   TOT.VALENCE
     1   C       3.924144
     2   C       3.937949
     3   O       1.938821
     4   H       0.880791
     5   H       0.977835
     6   H       0.975273
     7   H       0.975273
     8   C       3.927069
     9   C       3.927069
    10   H       0.975346
    11   H       0.975346
    12   H       0.977166
    13   H       0.977166
    14   H       0.979815
    15   H       0.979815

 Total charge composition:

   CEN ATOM         s          p       ELECTRONS ->P.CHARGE
     1   C       3.04542    3.41046      6.45588   -0.45588
     2   C       2.93681    2.82184      5.75865    0.24135
     3   O       3.64952    4.90642      8.55593   -0.55593
     4   H       0.65473                 0.65473    0.34527
     5   H       0.85112                 0.85112    0.14888
     6   H       0.84275                 0.84275    0.15725
     7   H       0.84275                 0.84275    0.15725
     8   C       3.05222    3.41707      6.46929   -0.46929
     9   C       3.05222    3.41707      6.46929   -0.46929
    10   H       0.84298                 0.84298    0.15702
    11   H       0.84298                 0.84298    0.15702
    12   H       0.84889                 0.84889    0.15111
    13   H       0.84889                 0.84889    0.15111
    14   H       0.85793                 0.85793    0.14207
    15   H       0.85793                 0.85793    0.14207

 Total charge composition, AO contributions:

   CEN ATOM SHL      SPHERICAL COMPONENTS
     1   C  1s       1.99166
     1   C  2s       1.05376
     1   C  2p       1.04583    1.17611    1.18852

     2   C  1s       1.99325
     2   C  2s       0.94356
     2   C  2p       1.00987    0.79926    1.01270

     3   O  1s       1.99728
     3   O  2s       1.65223
     3   O  2p       1.47390    1.48268    1.94983

     4   H  1s       0.65473

     5   H  1s       0.85112

     6   H  1s       0.84275

     7   H  1s       0.84275

     8   C  1s       1.99176
     8   C  2s       1.06046
     8   C  2p       1.15702    1.15671    1.10335

     9   C  1s       1.99176
     9   C  2s       1.06046
     9   C  2p       1.15702    1.15671    1.10335

    10   H  1s       0.84298

    11   H  1s       0.84298

    12   H  1s       0.84889

    13   H  1s       0.84889

    14   H  1s       0.85793

    15   H  1s       0.85793

 Summary of localized orbital composition:   [THRPRINT= 0.020]

   ORB  GRP  ORB.ENERGY      CENTERS/CHARGES
     1   1   -18.515171      O  3   2.000
     2   1    -9.792830      C  2   2.000
     3   1    -9.699688      C  8   2.000
     4   1    -9.699688      C  9   2.000
     5   1    -9.693960      C  1   2.000
     6   1    -0.690868      O  3   1.348   H  4   0.641
     7   1    -0.651016      O  3   1.274   C  2   0.706
     8   1    -0.515375      C  8   1.008   C  2   0.975
     9   1    -0.515375      C  9   1.008   C  2   0.975
    10   1    -0.515112      C  1   0.991   C  2   0.983   (other: 0.026)
    11   1    -0.502139      O  3   1.980   (other: 0.020)
    12   1    -0.447368      C  9   1.146   H 13   0.838
    13   1    -0.447368      C  8   1.146   H 12   0.838
    14   1    -0.446158      C  9   1.137   H 15   0.850
    15   1    -0.446158      C  8   1.137   H 14   0.850
    16   1    -0.443391      C  1   1.141   H  5   0.843
    17   1    -0.441430      C  8   1.154   H 10   0.834
    18   1    -0.441430      C  9   1.154   H 11   0.834
    19   1    -0.437116      C  1   1.154   H  7   0.833
    20   1    -0.437116      C  1   1.154   H  6   0.833
    21   1    -0.246413      O  3   1.950   (other: 0.050)

 Localized orbitals saved to record      2200.2  (orbital set 4)


 **********************************************************************************************************************************
 DATASETS  * FILE   NREC   LENGTH (MB)   RECORD NAMES
              1      20      928.02       500      610      700      900      950      970     1000      129      960     1100   
                                          VAR    BASINP    GEOM    SYMINP    ZMAT    AOBASIS   BASIS     P2S    ABASIS      S 
                                         1400     1410     1200     1210     1080     1600     1650     1300     1700     1800   
                                           T        V       H0       H01     AOSYM     SMH    MOLCAS    ERIS     OPER     GRID   

              2       5        5.27       700     1000      520     1800     2200   
                                         GEOM     BASIS   MCVARS    GRID      UKS  

 PROGRAMS   *        TOTAL      IBBA       UKS       INT
 CPU TIMES  *        97.12      0.07     72.19     24.72
 REAL TIME  *       132.16 SEC
 DISK USED  *         3.90 GB      
 **********************************************************************************************************************************
 Molecular orbitals read from record     2200.2  Type=UKS/LOCAL(IBO)  
 Occupation numbers read from record     2200.2  Type=UKS/LOCAL(IBO)  
 Orbital energies read from record       2200.2  Type=UKS/LOCAL(IBO)  
 Redundancy group numbers read from rec  2200.2  Type=UKS/BETA (state 1.1)

 IBBA/TZVP energy=      0.000000000000

        UKS-SCF 
   -232.27273020
 **********************************************************************************************************************************
 Molpro calculation terminated
