
 Primary working directories    : /tmp/sb13343
 Secondary working directories  : /tmp/sb13343
 Wavefunction directory         : /panfs/panasas01/chem/sb13343/wfu/
 Main file repository           : /tmp/sb13343/

 SHA1      : b4a5b34a9e711420743f49e6833241d17c61fb3c
 NAME      : 2099.9.b4a5b34
 ARCHNAME  : linux/x86_64_openmp
 FC        : /cm/shared/languages/GCC-6.1/bin/gfortran
 BLASLIB   : -lblas
 id        : simonbennie

 Nodes     nprocs
 node32-018    1

 Using customized tuning parameters: mindgm=1; mindgv=20; mindgc=4; mindgr=1; noblas=0; minvec=7
 default implementation of scratch files=df  

 memory,500,m
 geomtyp=xyz
 nosym
 noorient
 geometry={
 H         -1.13405        1.76167        0.00000
 C         -1.32915        0.67205        0.00000
 C         -0.06360       -0.12883        0.00000
 C          0.67426       -0.31636        1.28970
 C          0.67426       -0.31636       -1.28970
 H         -1.94006        0.46750        0.88859
 H         -1.94006        0.46750       -0.88859
 H          1.28359        0.56876        1.55544
 H         -0.01165       -0.48291        2.13019
 H          1.36783       -1.16569        1.24157
 H          1.28359        0.56876       -1.55544
 H         -0.01165       -0.48291       -2.13019
 H          1.36783       -1.16569       -1.24157
 }
 basis={ default,svp }
 {uks,HFS,direct;wf,33,1,1}
 {ibba,bonds=1}

 Variables initialized (895), CPU time= 0.00 sec
 Commands  initialized (725), CPU time= 0.01 sec, 591 directives.
 Default parameters read. Elapsed time= 0.08 sec

 Checking input...
 Passed
1


                                         ***  PROGRAM SYSTEM MOLPRO  ***
                                       Copyright, TTI GmbH Stuttgart, 2015
                                    Version 2099.9 linked May 26 2017 16:03:21


 **********************************************************************************************************************************
 LABEL *                                                                                 
  64 bit serial version                                                                  DATE: 08-Jun-17          TIME: 20:38:17  
 **********************************************************************************************************************************

 SHA1:             b4a5b34a9e711420743f49e6833241d17c61fb3c
 **********************************************************************************************************************************
 SETTING GEOMTYP        =    XYZ

 Variable memory set to  500000000 words,  buffer space 

 ZSYMEL=NOSYM

 SETTING BASIS          =    SVP


 Recomputing integrals since basis changed


 Using spherical harmonics

 Library entry H      S def2-SVP             selected for orbital group  1
 Library entry H      P def2-SVP             selected for orbital group  1
 Library entry C      S def2-SVP             selected for orbital group  2
 Library entry C      P def2-SVP             selected for orbital group  2
 Library entry C      D def2-SVP             selected for orbital group  2


 PROGRAM * SEWARD (Integral evaluation for generally contracted gaussian basis sets)     Author: Roland Lindh, 1990

 Geometry written to block  1 of record 700


 Point group  C1  



 ATOMIC COORDINATES

 NR  ATOM    CHARGE       X              Y              Z

   1  H       1.00   -2.143043912    3.329073822    0.000000000
   2  C       6.00   -2.511729478    1.269990442    0.000000000
   3  C       6.00   -0.120186582   -0.243453417    0.000000000
   4  C       6.00    1.274166737   -0.597833757    2.437179783
   5  C       6.00    1.274166737   -0.597833757   -2.437179783
   6  H       1.00   -3.666182065    0.883446963    1.679191737
   7  H       1.00   -3.666182065    0.883446963   -1.679191737
   8  H       1.00    2.425633556    1.074800631    2.939355603
   9  H       1.00   -0.022015309   -0.912567643    4.025475693
  10  H       1.00    2.584824085   -2.202834846    2.346227264
  11  H       1.00    2.425633556    1.074800631   -2.939355603
  12  H       1.00   -0.022015309   -0.912567643   -4.025475693
  13  H       1.00    2.584824085   -2.202834846   -2.346227264

 Bond lengths in Bohr (Angstrom)

 1-2  2.091830159  2-3  2.830192527  2-6  2.074092940  2-7  2.074092940  3-4  2.830132841
     ( 1.106948849)     ( 1.497673388)     ( 1.097562717)     ( 1.097562717)     ( 1.497641803)

  3- 5  2.830132841   4- 8  2.091832255   4- 9  2.074085151   4-10  2.074156104   5-11  2.091832255
       ( 1.497641803)       ( 1.106949959)       ( 1.097558596)       ( 1.097596142)       ( 1.106949959)

  5-12  2.074085151   5-13  2.074156104
       ( 1.097558596)       ( 1.097596142)

 Bond angles

  1-2-3  112.17549786   1-2-6  106.35284965   1-2-7  106.35284965   2-3-4  118.89987932

  2-3-5  118.89987932   3-2-6  111.75744418   3-2-7  111.75744418   3-4-8  112.19808176

  3- 4- 9  111.75014522   3- 4-10  111.74379558   3- 5-11  112.19808176   3- 5-12  111.75014522

  3- 5-13  111.74379558   4- 3- 5  118.89276928   6- 2- 7  108.11431090   8- 4- 9  106.34995457

  8- 4-10  106.34572146   9- 4-10  108.12296896  11- 5-12  106.34995457  11- 5-13  106.34572146

 12- 5-13  108.12296896

 NUCLEAR CHARGE:                   33
 NUMBER OF PRIMITIVE AOS:         163
 NUMBER OF SYMMETRY AOS:          159
 NUMBER OF CONTRACTIONS:          101   ( 101A   )
 NUMBER OF CORE ORBITALS:           4   (   4A   )
 NUMBER OF VALENCE ORBITALS:       25   (  25A   )


 NUCLEAR REPULSION ENERGY  124.92676597


 Eigenvalues of metric

         1 0.371E-02 0.424E-02 0.424E-02 0.242E-01 0.242E-01 0.268E-01 0.277E-01 0.371E-01


 Contracted 2-electron integrals neglected if value below      1.0D-11
 AO integral compression algorithm  1   Integral accuracy      1.0D-11

     53.477 MB (compressed) written to integral file ( 46.4%)


 NUMBER OF SORTED TWO-ELECTRON INTEGRALS:   13268976.     BUFFER LENGTH:  32768
 NUMBER OF SEGMENTS:   1  SEGMENT LENGTH:   13268976      RECORD LENGTH: 524288

 Memory used in sort:      13.83 MW

 SORT1 READ    14422061. AND WROTE    12225547. INTEGRALS IN     35 RECORDS. CPU TIME:     0.16 SEC, REAL TIME:     0.32 SEC
 SORT2 READ    12225547. AND WROTE    13268976. INTEGRALS IN    204 RECORDS. CPU TIME:     0.32 SEC, REAL TIME:     0.40 SEC

 FILE SIZES:   FILE 1:    84.0 MBYTE,  FILE 4:   146.8 MBYTE,   TOTAL:    230.9 MBYTE

 OPERATOR DM      FOR CENTER  0  COORDINATES:    0.000000    0.000000    0.000000


 **********************************************************************************************************************************
 DATASETS  * FILE   NREC   LENGTH (MB)   RECORD NAMES
              1      19       77.16       500      610      700      900      950      970     1000      129      960     1100   
                                          VAR    BASINP    GEOM    SYMINP    ZMAT    AOBASIS   BASIS     P2S    ABASIS      S 
                                         1400     1410     1200     1210     1080     1600     1650     1300     1700   
                                           T        V       H0       H01     AOSYM     SMH    MOLCAS    ERIS     OPER   

 PROGRAMS   *        TOTAL       INT
 CPU TIMES  *         2.14      2.00
 REAL TIME  *         2.91 SEC
 DISK USED  *       231.35 MB      
 **********************************************************************************************************************************

 Density functional group HFS=DIRAC
 Functional: DIRAC(Automatically generated (new) DIRAC)                        Gradient terms: 0
 Use grid at  1800.2

 Functional: DIRAC                     Factor:  1.0000

 Generated new metagrid on record  1800.2 with target accuracy 1.0D-06 and 45406 points in CPU time    1.3
 Computed new grid on record 1800.1 in CPU time    1.4
   45874 words reserved for DFT integration

 PROGRAM * UKS-SCF (Unrestricted Kohn-Sham)     Authors: W. Meyer, H.-J. Werner, P.J. Knowles, 1993

 NUMBER OF ELECTRONS:      17+   16-    SPACE SYMMETRY=1    SPIN SYMMETRY: Doublet 
 CONVERGENCE THRESHOLDS:    1.00E-05 (Density)    1.00E-06 (Energy)
 MAX. NUMBER OF ITERATIONS:       60
 INTERPOLATION TYPE:            DIIS
 INTERPOLATION STEPS:              2 (START)      1 (STEP)
 LEVEL SHIFTS:                 -0.20 (ALPHA)  -0.20 (BETA) 



 Use fine grid record 1800.2 for energy threshold  1.0D-06
 Orbital guess generated from atomic densities. Full valence occupancy:   17

 Molecular orbital dump at record        2200.2

 Initial alpha occupation  17
 Initial beta  occupation  16

 ITERATION    DDIFF          GRAD             ENERGY        2-EL.EN.            DIPOLE MOMENTS         DIIS
    1      0.000D+00      0.000D+00      -153.86102448    413.445300    0.14487    0.29285    0.00000    0
    2      0.155D-01      0.686D-02      -154.07941814    393.305807    0.04704    0.09518    0.00000    1
    3      0.507D-02      0.334D-02      -154.13278692    398.905092    0.05777    0.11682    0.00000    2
    4      0.141D-02      0.298D-03      -154.13381604    398.699461    0.05193    0.10500    0.00000    3
    5      0.697D-03      0.121D-03      -154.13402317    398.668420    0.04707    0.09517    0.00000    4
    6      0.392D-03      0.534D-04      -154.13407104    398.625516    0.04298    0.08686    0.00000    5
    7      0.151D-03      0.275D-04      -154.13407788    398.632810    0.04297    0.08686    0.00000    6
    8      0.630D-04      0.605D-05      -154.13407875    398.630024    0.04170    0.08427    0.00000    7
    9      0.254D-04      0.256D-05      -154.13407887    398.628976    0.04179    0.08445    0.00000    6
   10      0.124D-04      0.912D-06      -154.13407890    398.630169    0.04166    0.08418    0.00000    7
   11      0.500D-05      0.560D-06      -154.13407890    398.629167    0.04162    0.08411    0.00000    8
   12      0.166D-05      0.180D-06      -154.13407891    398.629387    0.04162    0.08410    0.00000    8

 Final alpha occupancy:  17
 Final beta  occupancy:  16

 !UKS STATE 1.1 Energy               -154.134078905214
 Nuclear energy                       124.92676597
 One-electron energy                 -457.04801999
 Two-electron energy                  199.31469343
 Density functional                   -21.32751831     DIRAC=-21.32751831
 Virial quotient                       -0.99702041
 !UKS STATE 1.1 Dipole moment           0.04161542     0.08410067     0.00000000
 Dipole moment /Debye                   0.10576891     0.21374858     0.00000000

 Orbital energies for positive spin:

         1.1          2.1          3.1          4.1          5.1          6.1          7.1          8.1          9.1         10.1
     -9.720354    -9.702283    -9.702283    -9.702223    -0.666839    -0.562474    -0.562468    -0.422200    -0.347615    -0.345039

        11.1         12.1         13.1         14.1         15.1         16.1         17.1         18.1         19.1
     -0.345038    -0.289733    -0.289702    -0.269364    -0.255504    -0.255500    -0.090728     0.060746     0.111285

 Orbital energies for negative spin:

         1.1          2.1          3.1          4.1          5.1          6.1          7.1          8.1          9.1         10.1
     -9.703584    -9.703487    -9.703487    -9.703159    -0.649331    -0.558210    -0.558206    -0.406033    -0.338877    -0.338870

        11.1         12.1         13.1         14.1         15.1         16.1         17.1         18.1         19.1
     -0.330670    -0.284246    -0.284217    -0.268364    -0.247627    -0.247619    -0.021329     0.065264     0.114832

 HOMO     17.1    -0.090728 =      -2.4688eV
 LUMO    -17.1    -0.021329 =      -0.5804eV
 LUMO-HOMO         0.069400 =       1.8885eV

 EXPECTATION VALUE OF S**2:             0.75405251

 Occupation number threshold for canonical orbitals:  1.999000 (occupied),  0.001000 (virtual)

 Number of pseudo-canonical orbitals per symmetry:   16
 Number of active natural orbitals per symmetry:      1

 Natural orbitals saved to record    2200.2 (Orbital set 3)

 Orbital spaces for UNO-CAS (Min. occupation: 0.020  Max. occupation: 1.980):

 Closed:       16
 Active:        1


 **********************************************************************************************************************************
 DATASETS  * FILE   NREC   LENGTH (MB)   RECORD NAMES
              1      20       78.61       500      610      700      900      950      970     1000      129      960     1100   
                                          VAR    BASINP    GEOM    SYMINP    ZMAT    AOBASIS   BASIS     P2S    ABASIS      S 
                                         1400     1410     1200     1210     1080     1600     1650     1300     1700     1800   
                                           T        V       H0       H01     AOSYM     SMH    MOLCAS    ERIS     OPER     GRID   

              2       5        3.39       700     1000      520     1800     2200   
                                         GEOM     BASIS   MCVARS    GRID      UKS  

 PROGRAMS   *        TOTAL       UKS       INT
 CPU TIMES  *        12.26     10.12      2.00
 REAL TIME  *        14.22 SEC
 DISK USED  *       231.35 MB      
 **********************************************************************************************************************************


 PROGRAM * Intrinsic Basis Bonding Analysis (IBBA)          Author: G. Knizia

 Molecular orbitals read from record     2200.2  Type=UKS/ALPHA (state 1.1)
 Fock matrix read from record            2200.2  Type=UKS/TOTAL (state 1.1)
 Orbital energies read from record       2200.2  Type=UKS/ALPHA (state 1.1)
 Density matrix read from record         2200.2  Type=UKS/CHARGE (state 1.1)

 Number of core orbitals:           4 (   4 )
 Number of closed-shell orbitals:  12 (  12 )
 Number of active  orbitals:        1 (   1 )

 Basis set MINAO-AUTO-PP generated.      Number of basis functions:   29 

 Polarized AO type:                A = (O Ot + (1-O)(1-Ot)) P12
 Orthogonalization method:         Symmetric (Loewdin)
 Localization functional:          L = sum[A,i] <i|n_A|i>^4 -> max

 Localization group 1:  16 orbitals, occupancy  2.000
 Iterative localization: IB/PM,    8 iter; Final gradient 0.16E-08

 Bond order analysis:       [THRPRINT= 0.020]

   CEN ATOM   CEN ATOM     WIBERG.BO      RENORM.BO
     1   H  -   2   C       0.876571       0.996085
     1   H  -   3   C       0.053044       0.169173

     2   C  -   3   C       1.133384       1.301812
     2   C  -   6   H       0.942092       0.985161
     2   C  -   7   H       0.942092       0.985161
     2   C  -   1   H       0.876571       0.996085

     3   C  -   2   C       1.133384       1.301812
     3   C  -   5   C       1.133365       1.301766
     3   C  -   4   C       1.133365       1.301766
     3   C  -   1   H       0.053044       0.169173
     3   C  -  11   H       0.053004       0.169042
     3   C  -   8   H       0.053004       0.169042

     4   C  -   3   C       1.133365       1.301766
     4   C  -   9   H       0.942156       0.985152
     4   C  -  10   H       0.942003       0.985177
     4   C  -   8   H       0.876611       0.996078

     5   C  -   3   C       1.133365       1.301766
     5   C  -  12   H       0.942156       0.985152
     5   C  -  13   H       0.942003       0.985177
     5   C  -  11   H       0.876611       0.996078

     6   H  -   2   C       0.942092       0.985161

     7   H  -   2   C       0.942092       0.985161

     8   H  -   4   C       0.876611       0.996078
     8   H  -   3   C       0.053004       0.169042

     9   H  -   4   C       0.942156       0.985152

    10   H  -   4   C       0.942003       0.985177

    11   H  -   5   C       0.876611       0.996078
    11   H  -   3   C       0.053004       0.169042

    12   H  -   5   C       0.942156       0.985152

    13   H  -   5   C       0.942003       0.985177


 Valency analysis:

   CEN ATOM   TOT.VALENCE
     1   H       0.959568
     2   C       3.942142
     3   C       3.625181
     4   C       3.942131
     5   C       3.942131
     6   H       0.976982
     7   H       0.976982
     8   H       0.959570
     9   H       0.976999
    10   H       0.976960
    11   H       0.959570
    12   H       0.976999
    13   H       0.976960
 Localization group 2:   1 orbitals, occupancy  1.000
 Iterative localization: IB/PM,    1 iter; Final gradient 0.00E+00

 Bond order analysis:       [THRPRINT= 0.020]

   CEN ATOM   CEN ATOM     WIBERG.BO      RENORM.BO
     1   H  -   3   C       0.095482       0.500000


     3   C  -   1   H       0.095482       0.500000
     3   C  -  11   H       0.095467       0.500000
     3   C  -   8   H       0.095467       0.500000





     8   H  -   3   C       0.095467       0.500000



    11   H  -   3   C       0.095467       0.500000




 Valency analysis:

   CEN ATOM   TOT.VALENCE
     1   H       0.125995
     2   C       0.014062
     3   C       0.414614
     4   C       0.014037
     5   C       0.014037
     6   H       0.022886
     7   H       0.022886
     8   H       0.125977
     9   H       0.022803
    10   H       0.023000
    11   H       0.125977
    12   H       0.022803
    13   H       0.023000

 Total charge composition:

   CEN ATOM         s          p       ELECTRONS ->P.CHARGE
     1   H       0.86648                 0.86648    0.13352
     2   C       2.99476    3.37509      6.36985   -0.36985
     3   C       2.98794    3.14383      6.13177   -0.13177
     4   C       2.99475    3.37513      6.36989   -0.36989
     5   C       2.99475    3.37513      6.36989   -0.36989
     6   H       0.85986                 0.85986    0.14014
     7   H       0.85986                 0.85986    0.14014
     8   H       0.86648                 0.86648    0.13352
     9   H       0.85987                 0.85987    0.14013
    10   H       0.85985                 0.85985    0.14015
    11   H       0.86648                 0.86648    0.13352
    12   H       0.85987                 0.85987    0.14013
    13   H       0.85985                 0.85985    0.14015

 Total charge composition, AO contributions:

   CEN ATOM SHL      SPHERICAL COMPONENTS
     1   H  1s       0.86648

     2   C  1s       1.99210
     2   C  2s       1.00266
     2   C  2p       1.08891    1.11417    1.17201

     3   C  1s       1.99355
     3   C  2s       0.99440
     3   C  2p       1.04011    1.07479    1.02893

     4   C  1s       1.99210
     4   C  2s       1.00265
     4   C  2p       1.13794    1.14814    1.08906

     5   C  1s       1.99210
     5   C  2s       1.00265
     5   C  2p       1.13794    1.14814    1.08906

     6   H  1s       0.85986

     7   H  1s       0.85986

     8   H  1s       0.86648

     9   H  1s       0.85987

    10   H  1s       0.85985

    11   H  1s       0.86648

    12   H  1s       0.85987

    13   H  1s       0.85985

 Active orbital charges:

   CEN ATOM         s          p       ELECTRONS ->SPIN.DEN
     1   H       0.06756                 0.06756    0.06756
     2   C       0.00038    0.00670      0.00708    0.00708
     3   C       0.01077    0.69585      0.70662    0.70662
     4   C       0.00038    0.00669      0.00707    0.00707
     5   C       0.00038    0.00669      0.00707    0.00707
     6   H       0.01158                 0.01158    0.01158
     7   H       0.01158                 0.01158    0.01158
     8   H       0.06755                 0.06755    0.06755
     9   H       0.01153                 0.01153    0.01153
    10   H       0.01164                 0.01164    0.01164
    11   H       0.06755                 0.06755    0.06755
    12   H       0.01153                 0.01153    0.01153
    13   H       0.01164                 0.01164    0.01164

 Active orbital charges, AO contributions:

   CEN ATOM SHL      SPHERICAL COMPONENTS
     1   H  1s       0.06756

     2   C  1s       0.00000
     2   C  2s       0.00038
     2   C  2p       0.00023    0.00646    0.00000

     3   C  1s       0.00001
     3   C  2s       0.01076
     3   C  2p       0.13618    0.55967    0.00000

     4   C  1s       0.00000
     4   C  2s       0.00038
     4   C  2p       0.00199    0.00434    0.00036

     5   C  1s       0.00000
     5   C  2s       0.00038
     5   C  2p       0.00199    0.00434    0.00036

     6   H  1s       0.01158

     7   H  1s       0.01158

     8   H  1s       0.06755

     9   H  1s       0.01153

    10   H  1s       0.01164

    11   H  1s       0.06755

    12   H  1s       0.01153

    13   H  1s       0.01164

 Summary of localized orbital composition:   [THRPRINT= 0.020]

   ORB  GRP  ORB.ENERGY      CENTERS/CHARGES
     1   1    -9.620091      C  3   2.000
     2   1    -9.595271      C  4   2.000
     3   1    -9.595271      C  5   2.000
     4   1    -9.595270      C  2   2.000
     5   1    -0.484686      C  3   1.002   C  4   0.983
     6   1    -0.484686      C  3   1.002   C  5   0.983
     7   1    -0.484661      C  3   1.002   C  2   0.983
     8   1    -0.395000      C  2   1.107   H  1   0.791   C  3   0.095
     9   1    -0.394996      C  5   1.107   H 11   0.791   C  3   0.095
    10   1    -0.394996      C  4   1.107   H  8   0.791   C  3   0.095
    11   1    -0.389020      C  4   1.131   H  9   0.840   C  3   0.023
    12   1    -0.389020      C  5   1.131   H 12   0.840   C  3   0.023
    13   1    -0.389016      C  2   1.131   H  6   0.840   C  3   0.023
    14   1    -0.389016      C  2   1.131   H  7   0.840   C  3   0.023
    15   1    -0.389000      C  4   1.131   H 10   0.840   C  3   0.023
    16   1    -0.389000      C  5   1.131   H 13   0.840   C  3   0.023
    17   2    -0.055863      C  3   0.707   H  1   0.068   H 11   0.068   H  8   0.068   (other: 0.091)

 Localized orbitals saved to record      2200.2  (orbital set 4)


 **********************************************************************************************************************************
 DATASETS  * FILE   NREC   LENGTH (MB)   RECORD NAMES
              1      20       78.61       500      610      700      900      950      970     1000      129      960     1100   
                                          VAR    BASINP    GEOM    SYMINP    ZMAT    AOBASIS   BASIS     P2S    ABASIS      S 
                                         1400     1410     1200     1210     1080     1600     1650     1300     1700     1800   
                                           T        V       H0       H01     AOSYM     SMH    MOLCAS    ERIS     OPER     GRID   

              2       5        3.47       700     1000      520     1800     2200   
                                         GEOM     BASIS   MCVARS    GRID      UKS  

 PROGRAMS   *        TOTAL      IBBA       UKS       INT
 CPU TIMES  *        12.30      0.03     10.12      2.00
 REAL TIME  *        14.33 SEC
 DISK USED  *       231.35 MB      
 **********************************************************************************************************************************
 Molecular orbitals read from record     2200.2  Type=UKS/LOCAL(IBO)  
 Occupation numbers read from record     2200.2  Type=UKS/LOCAL(IBO)  
 Orbital energies read from record       2200.2  Type=UKS/LOCAL(IBO)  
 Redundancy group numbers read from rec  2200.2  Type=UKS/BETA (state 1.1)

 IBBA/SVP energy=      0.000000000000

        UKS-SCF 
   -154.13407891
 **********************************************************************************************************************************
 Molpro calculation terminated
