
 Primary working directories    : /local
 Secondary working directories  : /local
 Wavefunction directory         : /local/
 Main file repository           : /local/

 SHA1      : b4a5b34a9e711420743f49e6833241d17c61fb3c
 NAME      : 2099.9.b4a5b34
 ARCHNAME  : linux/x86_64_openmp
 FC        : /cm/shared/languages/GCC-6.1/bin/gfortran
 BLASLIB   : -lblas
 id        : simonbennie

 Nodes     nprocs
 node32-005    1

 Using customized tuning parameters: mindgm=1; mindgv=20; mindgc=4; mindgr=1; noblas=0; minvec=7
 default implementation of scratch files=df  

 memory,500,m
 geomtyp=xyz
 nosym
 noorient
 geometry={
 C         -1.53233        0.02247        0.00000
 C         -0.00192        0.01421        0.00000
 O          0.37239        1.40356        0.00000
 H          1.34248        1.44036        0.00000
 H         -1.92991       -0.99819        0.00000
 H         -1.90797        0.54382       -0.88653
 H         -1.90797        0.54382        0.88653
 C          0.54303       -0.66466       -1.26580
 C          0.54303       -0.66466        1.26580
 H          0.17836       -0.14752       -2.15943
 H          0.17836       -0.14752        2.15943
 H          0.23752       -1.71600       -1.32280
 H          0.23752       -1.71600        1.32280
 H          1.64084       -0.63767       -1.28032
 H          1.64084       -0.63767        1.28032
 }
 basis={ default,avdz }
 {ks,MM06-HF,direct;wf,42,1,0}
 {ibba,bonds=1}

 Variables initialized (895), CPU time= 0.01 sec
 Commands  initialized (725), CPU time= 0.01 sec, 591 directives.
 Default parameters read. Elapsed time= 0.08 sec

 Checking input...
 Passed
1


                                         ***  PROGRAM SYSTEM MOLPRO  ***
                                       Copyright, TTI GmbH Stuttgart, 2015
                                    Version 2099.9 linked May 26 2017 16:03:21


 **********************************************************************************************************************************
 LABEL *                                                                                 
  64 bit serial version                                                                  DATE: 12-Jun-17          TIME: 16:27:54  
 **********************************************************************************************************************************

 SHA1:             b4a5b34a9e711420743f49e6833241d17c61fb3c
 **********************************************************************************************************************************
 SETTING GEOMTYP        =    XYZ

 Variable memory set to  500000000 words,  buffer space 

 ZSYMEL=NOSYM

 SETTING BASIS          =    AVDZ


 Recomputing integrals since basis changed


 Using spherical harmonics

 Library entry C      S aug-cc-pVDZ          selected for orbital group  1
 Library entry C      P aug-cc-pVDZ          selected for orbital group  1
 Library entry C      D aug-cc-pVDZ          selected for orbital group  1
 Library entry O      S aug-cc-pVDZ          selected for orbital group  2
 Library entry O      P aug-cc-pVDZ          selected for orbital group  2
 Library entry O      D aug-cc-pVDZ          selected for orbital group  2
 Library entry H      S aug-cc-pVDZ          selected for orbital group  3
 Library entry H      P aug-cc-pVDZ          selected for orbital group  3


 PROGRAM * SEWARD (Integral evaluation for generally contracted gaussian basis sets)     Author: Roland Lindh, 1990

 Geometry written to block  1 of record 700


 Point group  C1  



 ATOMIC COORDINATES

 NR  ATOM    CHARGE       X              Y              Z

   1  C       6.00   -2.895684032    0.042462146    0.000000000
   2  C       6.00   -0.003628274    0.026853008    0.000000000
   3  O       8.00    0.703715112    2.652343999    0.000000000
   4  H       1.00    2.536919528    2.721885921    0.000000000
   5  H       1.00   -3.647001345   -1.886305720    0.000000000
   6  H       1.00   -3.605540754    1.027670861   -1.675298901
   7  H       1.00   -3.605540754    1.027670861    1.675298901
   8  C       6.00    1.026177977   -1.256025366   -2.392015328
   9  C       6.00    1.026177977   -1.256025366    2.392015328
  10  H       1.00    0.337051552   -0.278772398   -4.080731285
  11  H       1.00    0.337051552   -0.278772398    4.080731285
  12  H       1.00    0.448847749   -3.242770030   -2.499729718
  13  H       1.00    0.448847749   -3.242770030    2.499729718
  14  H       1.00    3.100738214   -1.205021658   -2.419454152
  15  H       1.00    3.100738214   -1.205021658    2.419454152

 Bond lengths in Bohr (Angstrom)

 1-2  2.892097881  1-5  2.069933136  1-6  2.069096224  1-7  2.069096224  2-3  2.719106031
     ( 1.530432290)     ( 1.095361444)     ( 1.094918569)     ( 1.094918569)     ( 1.438888946)

  2- 8  2.903104402   2- 9  2.903104402   3- 4  1.834522965   8-10  2.069222119   8-12  2.071730422
       ( 1.536256691)       ( 1.536256691)       ( 0.970787746)       ( 1.094985190)       ( 1.096312526)

  8-14  2.075368508   9-11  2.069222119   9-13  2.071730422   9-15  2.075368508
       ( 1.098237719)       ( 1.094985190)       ( 1.096312526)       ( 1.098237719)

 Bond angles

  1-2-3  104.76902697   1-2-8  110.92255387   1-2-9  110.92255387   2-1-5  110.97328220

  2- 1- 6  110.22090701   2- 1- 7  110.22090701   2- 3- 4  107.25071562   2- 8-10  110.21836376

  2- 8-12  111.57747468   2- 8-14  110.77023896   2- 9-11  110.21836376   2- 9-13  111.57747468

  2- 9-15  110.77023896   3- 2- 8  109.53648747   3- 2- 9  109.53648747   5- 1- 6  108.61190457

  5- 1- 7  108.61190457   6- 1- 7  108.12870271   8- 2- 9  110.96453384  10- 8-12  108.52192632

 10- 8-14  108.08997829  11- 9-13  108.52192632  11- 9-15  108.08997829  12- 8-14  107.54424578

 13- 9-15  107.54424578

 NUCLEAR CHARGE:                   42
 NUMBER OF PRIMITIVE AOS:         295
 NUMBER OF SYMMETRY AOS:          285
 NUMBER OF CONTRACTIONS:          205   ( 205A   )
 NUMBER OF CORE ORBITALS:           5   (   5A   )
 NUMBER OF VALENCE ORBITALS:       30   (  30A   )


 NUCLEAR REPULSION ENERGY  198.77359127


 Eigenvalues of metric

         1 0.151E-04 0.552E-04 0.579E-04 0.110E-03 0.111E-03 0.217E-03 0.237E-03 0.259E-03


 Contracted 2-electron integrals neglected if value below      1.0D-12
 AO integral compression algorithm  1   Integral accuracy      1.0D-12

     1203.503 MB (compressed) written to integral file ( 61.3%)


 NUMBER OF SORTED TWO-ELECTRON INTEGRALS:  222932170.     BUFFER LENGTH:  32768
 NUMBER OF SEGMENTS:  14  SEGMENT LENGTH:   15999503      RECORD LENGTH: 524288

 Memory used in sort:      16.56 MW

 SORT1 READ   245224724. AND WROTE   218324786. INTEGRALS IN    630 RECORDS. CPU TIME:     3.01 SEC, REAL TIME:     5.87 SEC
 SORT2 READ   218324786. AND WROTE   222932170. INTEGRALS IN   4591 RECORDS. CPU TIME:     4.93 SEC, REAL TIME:     6.85 SEC

 FILE SIZES:   FILE 1:  1235.3 MBYTE,  FILE 4:  2642.4 MBYTE,   TOTAL:   3877.7 MBYTE

 OPERATOR DM      FOR CENTER  0  COORDINATES:    0.000000    0.000000    0.000000


 **********************************************************************************************************************************
 DATASETS  * FILE   NREC   LENGTH (MB)   RECORD NAMES
              1      19     1149.90       500      610      700      900      950      970     1000      129      960     1100   
                                          VAR    BASINP    GEOM    SYMINP    ZMAT    AOBASIS   BASIS     P2S    ABASIS      S 
                                         1400     1410     1200     1210     1080     1600     1650     1300     1700   
                                           T        V       H0       H01     AOSYM     SMH    MOLCAS    ERIS     OPER   

 PROGRAMS   *        TOTAL       INT
 CPU TIMES  *        20.71     20.57
 REAL TIME  *        49.14 SEC
 DISK USED  *         3.88 GB      
 **********************************************************************************************************************************

 Density functional group MM06-HF=M06HFX+M06HFC
 Functional: M06HFX(Automatically generated (new) M06HFX)                      Gradient terms: 2
 Functional: M06HFC(Automatically generated (new) M06HFC)                      Gradient terms: 2
 Use grid at  1800.2


 Exact exchange will be calculated, factor:  1.0000

 Functional: M06HFX                    Factor:  1.0000
 Functional: M06HFC                    Factor:  1.0000

 Generated new metagrid on record  1800.2 with target accuracy 1.0D-06 and 53396 points in CPU time    1.7
 Computed new grid on record 1800.1 in CPU time    1.9
  323499 words reserved for DFT integration

 PROGRAM * RKS-SCF (Restricted closed shell Kohn-Sham)     Authors: W. Meyer, H.-J. Werner, P.J. Knowles, 1993

 NUMBER OF ELECTRONS:      21+   21-    SPACE SYMMETRY=1    SPIN SYMMETRY: Singlet 
 CONVERGENCE THRESHOLDS:    1.00E-05 (Density)    1.00E-06 (Energy)
 MAX. NUMBER OF ITERATIONS:       60
 INTERPOLATION TYPE:            DIIS
 INTERPOLATION STEPS:              2 (START)      1 (STEP)
 LEVEL SHIFTS:                  0.00 (CLOSED)  0.00 (OPEN) 



 Use fine grid record 1800.2 for energy threshold  1.0D-06
 Orbital guess generated from atomic densities. Full valence occupancy:   35

 Molecular orbital dump at record        2100.2

 Initial occupancy:  21

 ITERATION    DDIFF          GRAD             ENERGY        2-EL.EN.            DIPOLE MOMENTS         DIIS   ORB.
    1      0.000D+00      0.000D+00      -233.52677056    560.557351    0.71886   -0.80782   -0.00000    0    start
    2      0.000D+00      0.451D-02      -233.59552182    553.161170    0.18846   -0.42166   -0.00000    1    diag
    3      0.325D-01      0.279D-02      -233.61834060    556.580933    0.34692   -0.60411   -0.00000    2    diag
    4      0.546D-02      0.658D-03      -233.61998479    556.360936    0.32938   -0.55398   -0.00000    3    diag
    5      0.295D-02      0.283D-03      -233.62030070    556.277539    0.32108   -0.58348   -0.00000    4    diag
    6      0.127D-02      0.539D-04      -233.62031308    556.305922    0.32011   -0.57738   -0.00000    5    diag
    7      0.148D-03      0.724D-05      -233.62031340    556.305030    0.31993   -0.57835   -0.00000    6    diag
    8      0.313D-04      0.180D-05      -233.62031342    556.305807    0.31989   -0.57832   -0.00000    7    diag
    9      0.900D-05      0.660D-06      -233.62031342    556.305656    0.31978   -0.57832   -0.00000    0    orth

 Final occupancy:  21

 !RKS STATE 1.1 Energy               -233.620313423442
 Nuclear energy                       198.77359127
 One-electron energy                 -709.08996665
 Two-electron energy                  278.15282803
 SCF exchange energy                  -32.47714623     Factor= 1.0000
 Density functional                    -1.45676608     M06HFX= 0.06284289 M06HFC=-1.51960896
 Virial quotient                       -1.00785124
 !RKS STATE 1.1 Dipole moment           0.31978252    -0.57831899    -0.00000000
 Dipole moment /Debye                   0.81275285    -1.46984399    -0.00000000

 Orbital energies:

         1.1          2.1          3.1          4.1          5.1          6.1          7.1          8.1          9.1         10.1
    -20.218980   -11.025298   -10.963244   -10.963208   -10.958078    -1.255955    -0.996770    -0.890684    -0.889922    -0.748885

        11.1         12.1         13.1         14.1         15.1         16.1         17.1         18.1         19.1         20.1
     -0.656824    -0.617326    -0.613957    -0.571782    -0.553256    -0.525805    -0.514079    -0.506952    -0.498951    -0.453405

        21.1         22.1         23.1
     -0.425916    -0.011424     0.002703

 HOMO     21.1    -0.425916 =     -11.5898eV
 LUMO     22.1    -0.011424 =      -0.3109eV
 LUMO-HOMO         0.414492 =      11.2789eV


 **********************************************************************************************************************************
 DATASETS  * FILE   NREC   LENGTH (MB)   RECORD NAMES
              1      20     1151.61       500      610      700      900      950      970     1000      129      960     1100   
                                          VAR    BASINP    GEOM    SYMINP    ZMAT    AOBASIS   BASIS     P2S    ABASIS      S 
                                         1400     1410     1200     1210     1080     1600     1650     1300     1700     1800   
                                           T        V       H0       H01     AOSYM     SMH    MOLCAS    ERIS     OPER     GRID   

              2       5        3.87       700     1000      520     1800     2100   
                                         GEOM     BASIS   MCVARS    GRID      RKS  

 PROGRAMS   *        TOTAL        KS       INT
 CPU TIMES  *       203.43    182.72     20.57
 REAL TIME  *       234.85 SEC
 DISK USED  *         3.88 GB      
 **********************************************************************************************************************************


 PROGRAM * Intrinsic Basis Bonding Analysis (IBBA)          Author: G. Knizia

 Molecular orbitals read from record     2100.2  Type=RKS/CANONICAL (state 1.1)
 Fock matrix read from record            2100.2  Type=RKS/TOTAL (state 1.1)
 Orbital energies read from record       2100.2  Type=RKS/CANONICAL (state 1.1)
 Density matrix read from record         2100.2  Type=RKS/CHARGE (state 1.1)

 Number of core orbitals:           5 (   5 )
 Number of closed-shell orbitals:  16 (  16 )

 Basis set MINAO-AUTO-PP generated.      Number of basis functions:   35 

 Polarized AO type:                A = (O Ot + (1-O)(1-Ot)) P12
 Orthogonalization method:         Symmetric (Loewdin)
 Localization functional:          L = sum[A,i] <i|n_A|i>^4 -> max

 Localization group 1:  21 orbitals, occupancy  2.000
 Iterative localization: IB/PM,    7 iter; Final gradient 0.66E-08

 Bond order analysis:       [THRPRINT= 0.020]

   CEN ATOM   CEN ATOM     WIBERG.BO      RENORM.BO
     1   C  -   2   C       0.994524       0.992890
     1   C  -   5   H       0.965366       0.988412
     1   C  -   7   H       0.959109       0.983914
     1   C  -   6   H       0.959109       0.983914

     2   C  -   8   C       0.994685       0.978096
     2   C  -   9   C       0.994685       0.978096
     2   C  -   1   C       0.994524       0.992890
     2   C  -   3   O       0.938450       0.957986

     3   O  -   2   C       0.938450       0.957986
     3   O  -   4   H       0.864376       0.979298
     3   O  -   9   C       0.023379       0.012125
     3   O  -   8   C       0.023379       0.012125

     4   H  -   3   O       0.864376       0.979298

     5   H  -   1   C       0.965366       0.988412

     6   H  -   1   C       0.959109       0.983914

     7   H  -   1   C       0.959109       0.983914

     8   C  -   2   C       0.994685       0.978096
     8   C  -  14   H       0.964315       0.984335
     8   C  -  12   H       0.961937       0.985864
     8   C  -  10   H       0.959632       0.983860
     8   C  -   3   O       0.023379       0.012125

     9   C  -   2   C       0.994685       0.978096
     9   C  -  15   H       0.964315       0.984335
     9   C  -  13   H       0.961937       0.985864
     9   C  -  11   H       0.959632       0.983860
     9   C  -   3   O       0.023379       0.012125

    10   H  -   8   C       0.959632       0.983860

    11   H  -   9   C       0.959632       0.983860

    12   H  -   8   C       0.961937       0.985864

    13   H  -   9   C       0.961937       0.985864

    14   H  -   8   C       0.964315       0.984335

    15   H  -   9   C       0.964315       0.984335


 Valency analysis:

   CEN ATOM   TOT.VALENCE
     1   C       3.931593
     2   C       3.932749
     3   O       1.905077
     4   H       0.881221
     5   H       0.983063
     6   H       0.979020
     7   H       0.979020
     8   C       3.935487
     9   C       3.935487
    10   H       0.979032
    11   H       0.979032
    12   H       0.981468
    13   H       0.981468
    14   H       0.984202
    15   H       0.984202

 Total charge composition:

   CEN ATOM         s          p       ELECTRONS ->P.CHARGE
     1   C       3.01540    3.38342      6.39882   -0.39882
     2   C       2.93105    2.85080      5.78185    0.21815
     3   O       3.61467    4.95639      8.57106   -0.57106
     4   H       0.65536                 0.65536    0.34464
     5   H       0.86986                 0.86986    0.13014
     6   H       0.85515                 0.85515    0.14485
     7   H       0.85515                 0.85515    0.14485
     8   C       3.02027    3.39273      6.41300   -0.41300
     9   C       3.02027    3.39273      6.41300   -0.41300
    10   H       0.85520                 0.85520    0.14480
    11   H       0.85520                 0.85520    0.14480
    12   H       0.86387                 0.86387    0.13613
    13   H       0.86387                 0.86387    0.13613
    14   H       0.87431                 0.87431    0.12569
    15   H       0.87431                 0.87431    0.12569

 Total charge composition, AO contributions:

   CEN ATOM SHL      SPHERICAL COMPONENTS
     1   C  1s       1.99051
     1   C  2s       1.02488
     1   C  2p       1.03005    1.16839    1.18498

     2   C  1s       1.99217
     2   C  2s       0.93888
     2   C  2p       1.02623    0.80007    1.02451

     3   O  1s       1.99694
     3   O  2s       1.61773
     3   O  2p       1.49009    1.50185    1.96445

     4   H  1s       0.65536

     5   H  1s       0.86986

     6   H  1s       0.85515

     7   H  1s       0.85515

     8   C  1s       1.99061
     8   C  2s       1.02966
     8   C  2p       1.14862    1.14958    1.09453

     9   C  1s       1.99061
     9   C  2s       1.02966
     9   C  2p       1.14862    1.14958    1.09453

    10   H  1s       0.85520

    11   H  1s       0.85520

    12   H  1s       0.86387

    13   H  1s       0.86387

    14   H  1s       0.87431

    15   H  1s       0.87431

 Summary of localized orbital composition:   [THRPRINT= 0.020]

   ORB  GRP  ORB.ENERGY      CENTERS/CHARGES
     1   1   -20.054249      O  3   2.000
     2   1   -10.927151      C  2   2.000
     3   1   -10.842616      C  8   2.000
     4   1   -10.842616      C  9   2.000
     5   1   -10.836557      C  1   2.000
     6   1    -0.966181      O  3   1.346   H  4   0.646
     7   1    -0.923107      O  3   1.273   C  2   0.712
     8   1    -0.762624      O  3   1.984
     9   1    -0.734208      C  8   0.997   C  2   0.989
    10   1    -0.734208      C  9   0.997   C  2   0.989
    11   1    -0.732784      C  2   1.003   C  1   0.975   (other: 0.022)
    12   1    -0.670593      C  9   1.132   H 13   0.856
    13   1    -0.670593      C  8   1.132   H 12   0.856
    14   1    -0.668267      C  8   1.122   H 14   0.868
    15   1    -0.668267      C  9   1.122   H 15   0.868
    16   1    -0.666184      C  9   1.143   H 11   0.847
    17   1    -0.666184      C  8   1.143   H 10   0.847
    18   1    -0.665751      C  1   1.125   H  5   0.863
    19   1    -0.662152      C  1   1.142   H  6   0.847
    20   1    -0.662152      C  1   1.142   H  7   0.847
    21   1    -0.492832      O  3   1.964   (other: 0.036)

 Localized orbitals saved to record      2100.2  (orbital set 2)


 **********************************************************************************************************************************
 DATASETS  * FILE   NREC   LENGTH (MB)   RECORD NAMES
              1      20     1151.61       500      610      700      900      950      970     1000      129      960     1100   
                                          VAR    BASINP    GEOM    SYMINP    ZMAT    AOBASIS   BASIS     P2S    ABASIS      S 
                                         1400     1410     1200     1210     1080     1600     1650     1300     1700     1800   
                                           T        V       H0       H01     AOSYM     SMH    MOLCAS    ERIS     OPER     GRID   

              2       5        4.21       700     1000      520     1800     2100   
                                         GEOM     BASIS   MCVARS    GRID      RKS  

 PROGRAMS   *        TOTAL      IBBA        KS       INT
 CPU TIMES  *       203.49      0.06    182.72     20.57
 REAL TIME  *       235.09 SEC
 DISK USED  *         3.88 GB      
 **********************************************************************************************************************************
 Molecular orbitals read from record     2100.2  Type=RKS/LOCAL(IBO)  
 Occupation numbers read from record     2100.2  Type=RKS/LOCAL(IBO)  
 Orbital energies read from record       2100.2  Type=RKS/LOCAL(IBO)  
 Redundancy group numbers read from rec  2100.2  Type=RKS/LOCAL(IBO)  

 IBBA/aug-cc-pVDZ energy=      0.000000000000

        KS-SCF  
   -233.62031342
 **********************************************************************************************************************************
 Molpro calculation terminated
