
 Primary working directories    : /tmp/sb13343
 Secondary working directories  : /tmp/sb13343
 Wavefunction directory         : /panfs/panasas01/chem/sb13343/wfu/
 Main file repository           : /tmp/sb13343/

 SHA1      : b4a5b34a9e711420743f49e6833241d17c61fb3c
 NAME      : 2099.9.b4a5b34
 ARCHNAME  : linux/x86_64_openmp
 FC        : /cm/shared/languages/GCC-6.1/bin/gfortran
 BLASLIB   : -lblas
 id        : simonbennie

 Nodes     nprocs
 node32-030    1

 Using customized tuning parameters: mindgm=1; mindgv=20; mindgc=4; mindgr=1; noblas=0; minvec=7
 default implementation of scratch files=df  

 memory,500,m
 geomtyp=xyz
 nosym
 noorient
 geometry={
 H         -1.13405        1.76167        0.00000
 C         -1.32915        0.67205        0.00000
 C         -0.06360       -0.12883        0.00000
 C          0.67426       -0.31636        1.28970
 C          0.67426       -0.31636       -1.28970
 H         -1.94006        0.46750        0.88859
 H         -1.94006        0.46750       -0.88859
 H          1.28359        0.56876        1.55544
 H         -0.01165       -0.48291        2.13019
 H          1.36783       -1.16569        1.24157
 H          1.28359        0.56876       -1.55544
 H         -0.01165       -0.48291       -2.13019
 H          1.36783       -1.16569       -1.24157
 }
 basis={ default,svp }
 {uks,B97,direct;wf,33,1,1}
 {ibba,bonds=1}

 Variables initialized (895), CPU time= 0.00 sec
 Commands  initialized (725), CPU time= 0.01 sec, 591 directives.
 Default parameters read. Elapsed time= 0.07 sec

 Checking input...
 Passed
1


                                         ***  PROGRAM SYSTEM MOLPRO  ***
                                       Copyright, TTI GmbH Stuttgart, 2015
                                    Version 2099.9 linked May 26 2017 16:03:21


 **********************************************************************************************************************************
 LABEL *                                                                                 
  64 bit serial version                                                                  DATE: 08-Jun-17          TIME: 20:36:11  
 **********************************************************************************************************************************

 SHA1:             b4a5b34a9e711420743f49e6833241d17c61fb3c
 **********************************************************************************************************************************
 SETTING GEOMTYP        =    XYZ

 Variable memory set to  500000000 words,  buffer space 

 ZSYMEL=NOSYM

 SETTING BASIS          =    SVP


 Recomputing integrals since basis changed


 Using spherical harmonics

 Library entry H      S def2-SVP             selected for orbital group  1
 Library entry H      P def2-SVP             selected for orbital group  1
 Library entry C      S def2-SVP             selected for orbital group  2
 Library entry C      P def2-SVP             selected for orbital group  2
 Library entry C      D def2-SVP             selected for orbital group  2


 PROGRAM * SEWARD (Integral evaluation for generally contracted gaussian basis sets)     Author: Roland Lindh, 1990

 Geometry written to block  1 of record 700


 Point group  C1  



 ATOMIC COORDINATES

 NR  ATOM    CHARGE       X              Y              Z

   1  H       1.00   -2.143043912    3.329073822    0.000000000
   2  C       6.00   -2.511729478    1.269990442    0.000000000
   3  C       6.00   -0.120186582   -0.243453417    0.000000000
   4  C       6.00    1.274166737   -0.597833757    2.437179783
   5  C       6.00    1.274166737   -0.597833757   -2.437179783
   6  H       1.00   -3.666182065    0.883446963    1.679191737
   7  H       1.00   -3.666182065    0.883446963   -1.679191737
   8  H       1.00    2.425633556    1.074800631    2.939355603
   9  H       1.00   -0.022015309   -0.912567643    4.025475693
  10  H       1.00    2.584824085   -2.202834846    2.346227264
  11  H       1.00    2.425633556    1.074800631   -2.939355603
  12  H       1.00   -0.022015309   -0.912567643   -4.025475693
  13  H       1.00    2.584824085   -2.202834846   -2.346227264

 Bond lengths in Bohr (Angstrom)

 1-2  2.091830159  2-3  2.830192527  2-6  2.074092940  2-7  2.074092940  3-4  2.830132841
     ( 1.106948849)     ( 1.497673388)     ( 1.097562717)     ( 1.097562717)     ( 1.497641803)

  3- 5  2.830132841   4- 8  2.091832255   4- 9  2.074085151   4-10  2.074156104   5-11  2.091832255
       ( 1.497641803)       ( 1.106949959)       ( 1.097558596)       ( 1.097596142)       ( 1.106949959)

  5-12  2.074085151   5-13  2.074156104
       ( 1.097558596)       ( 1.097596142)

 Bond angles

  1-2-3  112.17549786   1-2-6  106.35284965   1-2-7  106.35284965   2-3-4  118.89987932

  2-3-5  118.89987932   3-2-6  111.75744418   3-2-7  111.75744418   3-4-8  112.19808176

  3- 4- 9  111.75014522   3- 4-10  111.74379558   3- 5-11  112.19808176   3- 5-12  111.75014522

  3- 5-13  111.74379558   4- 3- 5  118.89276928   6- 2- 7  108.11431090   8- 4- 9  106.34995457

  8- 4-10  106.34572146   9- 4-10  108.12296896  11- 5-12  106.34995457  11- 5-13  106.34572146

 12- 5-13  108.12296896

 NUCLEAR CHARGE:                   33
 NUMBER OF PRIMITIVE AOS:         163
 NUMBER OF SYMMETRY AOS:          159
 NUMBER OF CONTRACTIONS:          101   ( 101A   )
 NUMBER OF CORE ORBITALS:           4   (   4A   )
 NUMBER OF VALENCE ORBITALS:       25   (  25A   )


 NUCLEAR REPULSION ENERGY  124.92676597


 Eigenvalues of metric

         1 0.371E-02 0.424E-02 0.424E-02 0.242E-01 0.242E-01 0.268E-01 0.277E-01 0.371E-01


 Contracted 2-electron integrals neglected if value below      1.0D-11
 AO integral compression algorithm  1   Integral accuracy      1.0D-11

     53.477 MB (compressed) written to integral file ( 46.4%)


 NUMBER OF SORTED TWO-ELECTRON INTEGRALS:   13268976.     BUFFER LENGTH:  32768
 NUMBER OF SEGMENTS:   1  SEGMENT LENGTH:   13268976      RECORD LENGTH: 524288

 Memory used in sort:      13.83 MW

 SORT1 READ    14422061. AND WROTE    12225547. INTEGRALS IN     35 RECORDS. CPU TIME:     0.18 SEC, REAL TIME:     0.37 SEC
 SORT2 READ    12225547. AND WROTE    13268976. INTEGRALS IN    204 RECORDS. CPU TIME:     0.34 SEC, REAL TIME:     0.43 SEC

 FILE SIZES:   FILE 1:    84.0 MBYTE,  FILE 4:   146.8 MBYTE,   TOTAL:    230.9 MBYTE

 OPERATOR DM      FOR CENTER  0  COORDINATES:    0.000000    0.000000    0.000000


 **********************************************************************************************************************************
 DATASETS  * FILE   NREC   LENGTH (MB)   RECORD NAMES
              1      19       77.16       500      610      700      900      950      970     1000      129      960     1100   
                                          VAR    BASINP    GEOM    SYMINP    ZMAT    AOBASIS   BASIS     P2S    ABASIS      S 
                                         1400     1410     1200     1210     1080     1600     1650     1300     1700   
                                           T        V       H0       H01     AOSYM     SMH    MOLCAS    ERIS     OPER   

 PROGRAMS   *        TOTAL       INT
 CPU TIMES  *         2.29      2.14
 REAL TIME  *         3.03 SEC
 DISK USED  *       231.35 MB      
 **********************************************************************************************************************************

 Density functional group B97=B97DF
 Functional: B97DF(Automatically generated (new) B97DF)                        Gradient terms: 1
 Use grid at  1800.2


 Exact exchange will be calculated, factor:  0.1943

 Functional: B97DF                     Factor:  1.0000

 Generated new metagrid on record  1800.2 with target accuracy 1.0D-06 and 45406 points in CPU time    1.4
 Computed new grid on record 1800.1 in CPU time    1.5
   84355 words reserved for DFT integration

 PROGRAM * UKS-SCF (Unrestricted Kohn-Sham)     Authors: W. Meyer, H.-J. Werner, P.J. Knowles, 1993

 NUMBER OF ELECTRONS:      17+   16-    SPACE SYMMETRY=1    SPIN SYMMETRY: Doublet 
 CONVERGENCE THRESHOLDS:    1.00E-05 (Density)    1.00E-06 (Energy)
 MAX. NUMBER OF ITERATIONS:       60
 INTERPOLATION TYPE:            DIIS
 INTERPOLATION STEPS:              2 (START)      1 (STEP)
 LEVEL SHIFTS:                 -0.20 (ALPHA)  -0.20 (BETA) 



 Use fine grid record 1800.2 for energy threshold  1.0D-06
 Orbital guess generated from atomic densities. Full valence occupancy:   17

 Molecular orbital dump at record        2200.2

 Initial alpha occupation  17
 Initial beta  occupation  16

 ITERATION    DDIFF          GRAD             ENERGY        2-EL.EN.            DIPOLE MOMENTS         DIIS
    1      0.000D+00      0.000D+00      -157.46133189    401.577337    0.13191    0.26646    0.00000    0
    2      0.109D-01      0.527D-02      -157.60834938    387.907413    0.05616    0.11355    0.00000    1
    3      0.303D-02      0.187D-02      -157.62456206    390.727477    0.05722    0.11581    0.00000    2
    4      0.126D-02      0.303D-03      -157.62568523    390.568822    0.05031    0.10186    0.00000    3
    5      0.545D-03      0.106D-03      -157.62588461    390.545839    0.04636    0.09389    0.00000    4
    6      0.188D-03      0.481D-04      -157.62591526    390.526798    0.04388    0.08885    0.00000    5
    7      0.699D-04      0.185D-04      -157.62591882    390.530347    0.04389    0.08888    0.00000    6
    8      0.191D-04      0.403D-05      -157.62591904    390.529717    0.04336    0.08781    0.00000    7
    9      0.610D-05      0.118D-05      -157.62591906    390.529584    0.04345    0.08798    0.00000    6
   10      0.332D-05      0.350D-06      -157.62591906    390.529718    0.04342    0.08792    0.00000    7

 Final alpha occupancy:  17
 Final beta  occupancy:  16

 !UKS STATE 1.1 Energy               -157.625919062930
 Nuclear energy                       124.92676597
 One-electron energy                 -457.49792283
 Two-electron energy                  195.26485883
 Density functional                   -20.31962104     B97DF=-20.31962104
 Virial quotient                       -1.01279842
 !UKS STATE 1.1 Dipole moment           0.04341998     0.08792300     0.00000000
 Dipole moment /Debye                   0.11035535     0.22346334     0.00000000

 Orbital energies for positive spin:

         1.1          2.1          3.1          4.1          5.1          6.1          7.1          8.1          9.1         10.1
    -10.170922   -10.162958   -10.162946   -10.162927    -0.790868    -0.679584    -0.679569    -0.527135    -0.438252    -0.434650

        11.1         12.1         13.1         14.1         15.1         16.1         17.1         18.1         19.1
     -0.434630    -0.380082    -0.380038    -0.361484    -0.340407    -0.340399    -0.167432     0.061021     0.111652

 Orbital energies for negative spin:

         1.1          2.1          3.1          4.1          5.1          6.1          7.1          8.1          9.1         10.1
    -10.163725   -10.163714   -10.163698   -10.159563    -0.773155    -0.676961    -0.676947    -0.508313    -0.430086    -0.430064

        11.1         12.1         13.1         14.1         15.1         16.1         17.1         18.1         19.1
     -0.419139    -0.374550    -0.374508    -0.360554    -0.334806    -0.334801    -0.032297     0.060965     0.111543

 HOMO     17.1    -0.167432 =      -4.5560eV
 LUMO    -17.1    -0.032297 =      -0.8788eV
 LUMO-HOMO         0.135135 =       3.6772eV

 EXPECTATION VALUE OF S**2:             0.75417434

 Occupation number threshold for canonical orbitals:  1.999000 (occupied),  0.001000 (virtual)

 Number of pseudo-canonical orbitals per symmetry:   16
 Number of active natural orbitals per symmetry:      1

 Natural orbitals saved to record    2200.2 (Orbital set 3)

 Orbital spaces for UNO-CAS (Min. occupation: 0.020  Max. occupation: 1.980):

 Closed:       16
 Active:        1


 **********************************************************************************************************************************
 DATASETS  * FILE   NREC   LENGTH (MB)   RECORD NAMES
              1      20       78.61       500      610      700      900      950      970     1000      129      960     1100   
                                          VAR    BASINP    GEOM    SYMINP    ZMAT    AOBASIS   BASIS     P2S    ABASIS      S 
                                         1400     1410     1200     1210     1080     1600     1650     1300     1700     1800   
                                           T        V       H0       H01     AOSYM     SMH    MOLCAS    ERIS     OPER     GRID   

              2       5        3.39       700     1000      520     1800     2200   
                                         GEOM     BASIS   MCVARS    GRID      UKS  

 PROGRAMS   *        TOTAL       UKS       INT
 CPU TIMES  *        18.16     15.87      2.14
 REAL TIME  *        19.69 SEC
 DISK USED  *       231.35 MB      
 **********************************************************************************************************************************


 PROGRAM * Intrinsic Basis Bonding Analysis (IBBA)          Author: G. Knizia

 Molecular orbitals read from record     2200.2  Type=UKS/ALPHA (state 1.1)
 Fock matrix read from record            2200.2  Type=UKS/TOTAL (state 1.1)
 Orbital energies read from record       2200.2  Type=UKS/ALPHA (state 1.1)
 Density matrix read from record         2200.2  Type=UKS/CHARGE (state 1.1)

 Number of core orbitals:           4 (   4 )
 Number of closed-shell orbitals:  12 (  12 )
 Number of active  orbitals:        1 (   1 )

 Basis set MINAO-AUTO-PP generated.      Number of basis functions:   29 

 Polarized AO type:                A = (O Ot + (1-O)(1-Ot)) P12
 Orthogonalization method:         Symmetric (Loewdin)
 Localization functional:          L = sum[A,i] <i|n_A|i>^4 -> max

 Localization group 1:  16 orbitals, occupancy  2.000
 Iterative localization: IB/PM,    8 iter; Final gradient 0.56E-09

 Bond order analysis:       [THRPRINT= 0.020]

   CEN ATOM   CEN ATOM     WIBERG.BO      RENORM.BO
     1   H  -   2   C       0.882827       0.995875
     1   H  -   3   C       0.052982       0.173201

     2   C  -   3   C       1.129669       1.306243
     2   C  -   6   H       0.949117       0.987130
     2   C  -   7   H       0.949117       0.987130
     2   C  -   1   H       0.882827       0.995875

     3   C  -   2   C       1.129669       1.306243
     3   C  -   5   C       1.129636       1.306170
     3   C  -   4   C       1.129636       1.306170
     3   C  -   1   H       0.052982       0.173201
     3   C  -  11   H       0.052945       0.173072
     3   C  -   8   H       0.052945       0.173072

     4   C  -   3   C       1.129636       1.306170
     4   C  -   9   H       0.949179       0.987127
     4   C  -  10   H       0.949035       0.987143
     4   C  -   8   H       0.882881       0.995869

     5   C  -   3   C       1.129636       1.306170
     5   C  -  12   H       0.949179       0.987127
     5   C  -  13   H       0.949035       0.987143
     5   C  -  11   H       0.882881       0.995869

     6   H  -   2   C       0.949117       0.987130

     7   H  -   2   C       0.949117       0.987130

     8   H  -   4   C       0.882881       0.995869
     8   H  -   3   C       0.052945       0.173072

     9   H  -   4   C       0.949179       0.987127

    10   H  -   4   C       0.949035       0.987143

    11   H  -   5   C       0.882881       0.995869
    11   H  -   3   C       0.052945       0.173072

    12   H  -   5   C       0.949179       0.987127

    13   H  -   5   C       0.949035       0.987143


 Valency analysis:

   CEN ATOM   TOT.VALENCE
     1   H       0.963601
     2   C       3.952244
     3   C       3.609828
     4   C       3.952235
     5   C       3.952235
     6   H       0.979768
     7   H       0.979768
     8   H       0.963610
     9   H       0.979783
    10   H       0.979750
    11   H       0.963610
    12   H       0.979783
    13   H       0.979750
 Localization group 2:   1 orbitals, occupancy  1.000
 Iterative localization: IB/PM,    1 iter; Final gradient 0.00E+00

 Bond order analysis:       [THRPRINT= 0.020]

   CEN ATOM   CEN ATOM     WIBERG.BO      RENORM.BO
     1   H  -   3   C       0.091164       0.500000


     3   C  -   1   H       0.091164       0.500000
     3   C  -  11   H       0.091130       0.500000
     3   C  -   8   H       0.091130       0.500000





     8   H  -   3   C       0.091130       0.500000



    11   H  -   3   C       0.091130       0.500000




 Valency analysis:

   CEN ATOM   TOT.VALENCE
     1   H       0.118086
     2   C       0.014600
     3   C       0.400216
     4   C       0.014579
     5   C       0.014579
     6   H       0.021620
     7   H       0.021620
     8   H       0.118045
     9   H       0.021540
    10   H       0.021722
    11   H       0.118045
    12   H       0.021540
    13   H       0.021722

 Total charge composition:

   CEN ATOM         s          p       ELECTRONS ->P.CHARGE
     1   H       0.87223                 0.87223    0.12777
     2   C       3.00790    3.33309      6.34099   -0.34099
     3   C       3.00937    3.13882      6.14819   -0.14819
     4   C       3.00789    3.33311      6.34100   -0.34100
     5   C       3.00789    3.33311      6.34100   -0.34100
     6   H       0.86869                 0.86869    0.13131
     7   H       0.86869                 0.86869    0.13131
     8   H       0.87223                 0.87223    0.12777
     9   H       0.86870                 0.86870    0.13130
    10   H       0.86868                 0.86868    0.13132
    11   H       0.87223                 0.87223    0.12777
    12   H       0.86870                 0.86870    0.13130
    13   H       0.86868                 0.86868    0.13132

 Total charge composition, AO contributions:

   CEN ATOM SHL      SPHERICAL COMPONENTS
     1   H  1s       0.87223

     2   C  1s       1.99080
     2   C  2s       1.01710
     2   C  2p       1.07682    1.09951    1.15675

     3   C  1s       1.99242
     3   C  2s       1.01695
     3   C  2p       1.03738    1.07678    1.02466

     4   C  1s       1.99080
     4   C  2s       1.01709
     4   C  2p       1.12343    1.13292    1.07676

     5   C  1s       1.99080
     5   C  2s       1.01709
     5   C  2p       1.12343    1.13292    1.07676

     6   H  1s       0.86869

     7   H  1s       0.86869

     8   H  1s       0.87223

     9   H  1s       0.86870

    10   H  1s       0.86868

    11   H  1s       0.87223

    12   H  1s       0.86870

    13   H  1s       0.86868

 Active orbital charges:

   CEN ATOM         s          p       ELECTRONS ->SPIN.DEN
     1   H       0.06301                 0.06301    0.06301
     2   C       0.00028    0.00707      0.00735    0.00735
     3   C       0.01059    0.71278      0.72336    0.72336
     4   C       0.00028    0.00706      0.00734    0.00734
     5   C       0.00028    0.00706      0.00734    0.00734
     6   H       0.01093                 0.01093    0.01093
     7   H       0.01093                 0.01093    0.01093
     8   H       0.06299                 0.06299    0.06299
     9   H       0.01089                 0.01089    0.01089
    10   H       0.01098                 0.01098    0.01098
    11   H       0.06299                 0.06299    0.06299
    12   H       0.01089                 0.01089    0.01089
    13   H       0.01098                 0.01098    0.01098

 Active orbital charges, AO contributions:

   CEN ATOM SHL      SPHERICAL COMPONENTS
     1   H  1s       0.06301

     2   C  1s       0.00000
     2   C  2s       0.00028
     2   C  2p       0.00016    0.00691    0.00000

     3   C  1s       0.00002
     3   C  2s       0.01057
     3   C  2p       0.13951    0.57327    0.00000

     4   C  1s       0.00000
     4   C  2s       0.00028
     4   C  2p       0.00219    0.00440    0.00048

     5   C  1s       0.00000
     5   C  2s       0.00028
     5   C  2p       0.00219    0.00440    0.00048

     6   H  1s       0.01093

     7   H  1s       0.01093

     8   H  1s       0.06299

     9   H  1s       0.01089

    10   H  1s       0.01098

    11   H  1s       0.06299

    12   H  1s       0.01089

    13   H  1s       0.01098

 Summary of localized orbital composition:   [THRPRINT= 0.020]

   ORB  GRP  ORB.ENERGY      CENTERS/CHARGES
     1   1   -10.067244      C  3   2.000
     2   1   -10.048534      C  2   2.000
     3   1   -10.048521      C  4   2.000
     4   1   -10.048521      C  5   2.000
     5   1    -0.586847      C  3   1.007   C  4   0.980
     6   1    -0.586847      C  3   1.007   C  5   0.980
     7   1    -0.586835      C  3   1.007   C  2   0.980
     8   1    -0.494079      C  2   1.099   H  1   0.802   C  3   0.092
     9   1    -0.494073      C  4   1.099   H  8   0.802   C  3   0.092
    10   1    -0.494073      C  5   1.099   H 11   0.802   C  3   0.092
    11   1    -0.489146      C  2   1.123   H  6   0.851   C  3   0.021
    12   1    -0.489146      C  2   1.123   H  7   0.851   C  3   0.021
    13   1    -0.489144      C  5   1.123   H 12   0.851   C  3   0.021
    14   1    -0.489144      C  4   1.123   H  9   0.851   C  3   0.021
    15   1    -0.489109      C  5   1.123   H 13   0.851   C  3   0.021
    16   1    -0.489109      C  4   1.123   H 10   0.851   C  3   0.021
    17   2    -0.099005      C  3   0.723   H  1   0.063   H 11   0.063   H  8   0.063   (other: 0.088)

 Localized orbitals saved to record      2200.2  (orbital set 4)


 **********************************************************************************************************************************
 DATASETS  * FILE   NREC   LENGTH (MB)   RECORD NAMES
              1      20       78.61       500      610      700      900      950      970     1000      129      960     1100   
                                          VAR    BASINP    GEOM    SYMINP    ZMAT    AOBASIS   BASIS     P2S    ABASIS      S 
                                         1400     1410     1200     1210     1080     1600     1650     1300     1700     1800   
                                           T        V       H0       H01     AOSYM     SMH    MOLCAS    ERIS     OPER     GRID   

              2       5        3.47       700     1000      520     1800     2200   
                                         GEOM     BASIS   MCVARS    GRID      UKS  

 PROGRAMS   *        TOTAL      IBBA       UKS       INT
 CPU TIMES  *        18.20      0.04     15.87      2.14
 REAL TIME  *        19.83 SEC
 DISK USED  *       231.35 MB      
 **********************************************************************************************************************************
 Molecular orbitals read from record     2200.2  Type=UKS/LOCAL(IBO)  
 Occupation numbers read from record     2200.2  Type=UKS/LOCAL(IBO)  
 Orbital energies read from record       2200.2  Type=UKS/LOCAL(IBO)  
 Redundancy group numbers read from rec  2200.2  Type=UKS/BETA (state 1.1)

 IBBA/SVP energy=      0.000000000000

        UKS-SCF 
   -157.62591906
 **********************************************************************************************************************************
 Molpro calculation terminated
