
 Primary working directories    : /tmp/sb13343
 Secondary working directories  : /tmp/sb13343
 Wavefunction directory         : /panfs/panasas01/chem/sb13343/wfu/
 Main file repository           : /tmp/sb13343/

 SHA1      : b4a5b34a9e711420743f49e6833241d17c61fb3c
 NAME      : 2099.9.b4a5b34
 ARCHNAME  : linux/x86_64_openmp
 FC        : /cm/shared/languages/GCC-6.1/bin/gfortran
 BLASLIB   : -lblas
 id        : simonbennie

 Nodes     nprocs
 node33-019    1

 Using customized tuning parameters: mindgm=1; mindgv=20; mindgc=4; mindgr=1; noblas=0; minvec=7
 default implementation of scratch files=df  

 memory,500,m
 geomtyp=xyz
 nosym
 noorient
 geometry={
 C         -1.53233        0.02247        0.00000
 C         -0.00192        0.01421        0.00000
 O          0.37239        1.40356        0.00000
 H          1.34248        1.44036        0.00000
 H         -1.92991       -0.99819        0.00000
 H         -1.90797        0.54382       -0.88653
 H         -1.90797        0.54382        0.88653
 C          0.54303       -0.66466       -1.26580
 C          0.54303       -0.66466        1.26580
 H          0.17836       -0.14752       -2.15943
 H          0.17836       -0.14752        2.15943
 H          0.23752       -1.71600       -1.32280
 H          0.23752       -1.71600        1.32280
 H          1.64084       -0.63767       -1.28032
 H          1.64084       -0.63767        1.28032
 }
 basis={ default,svp }
 {uks,PW91,direct;wf,42,1,0}
 {ibba,bonds=1}

 Variables initialized (895), CPU time= 0.00 sec
 Commands  initialized (725), CPU time= 0.02 sec, 591 directives.
 Default parameters read. Elapsed time= 0.08 sec

 Checking input...
 Passed
1


                                         ***  PROGRAM SYSTEM MOLPRO  ***
                                       Copyright, TTI GmbH Stuttgart, 2015
                                    Version 2099.9 linked May 26 2017 16:03:21


 **********************************************************************************************************************************
 LABEL *                                                                                 
  64 bit serial version                                                                  DATE: 09-Jun-17          TIME: 03:42:26  
 **********************************************************************************************************************************

 SHA1:             b4a5b34a9e711420743f49e6833241d17c61fb3c
 **********************************************************************************************************************************
 SETTING GEOMTYP        =    XYZ

 Variable memory set to  500000000 words,  buffer space 

 ZSYMEL=NOSYM

 SETTING BASIS          =    SVP


 Recomputing integrals since basis changed


 Using spherical harmonics

 Library entry C      S def2-SVP             selected for orbital group  1
 Library entry C      P def2-SVP             selected for orbital group  1
 Library entry C      D def2-SVP             selected for orbital group  1
 Library entry O      S def2-SVP             selected for orbital group  2
 Library entry O      P def2-SVP             selected for orbital group  2
 Library entry O      D def2-SVP             selected for orbital group  2
 Library entry H      S def2-SVP             selected for orbital group  3
 Library entry H      P def2-SVP             selected for orbital group  3


 PROGRAM * SEWARD (Integral evaluation for generally contracted gaussian basis sets)     Author: Roland Lindh, 1990

 Geometry written to block  1 of record 700


 Point group  C1  



 ATOMIC COORDINATES

 NR  ATOM    CHARGE       X              Y              Z

   1  C       6.00   -2.895684032    0.042462146    0.000000000
   2  C       6.00   -0.003628274    0.026853008    0.000000000
   3  O       8.00    0.703715112    2.652343999    0.000000000
   4  H       1.00    2.536919528    2.721885921    0.000000000
   5  H       1.00   -3.647001345   -1.886305720    0.000000000
   6  H       1.00   -3.605540754    1.027670861   -1.675298901
   7  H       1.00   -3.605540754    1.027670861    1.675298901
   8  C       6.00    1.026177977   -1.256025366   -2.392015328
   9  C       6.00    1.026177977   -1.256025366    2.392015328
  10  H       1.00    0.337051552   -0.278772398   -4.080731285
  11  H       1.00    0.337051552   -0.278772398    4.080731285
  12  H       1.00    0.448847749   -3.242770030   -2.499729718
  13  H       1.00    0.448847749   -3.242770030    2.499729718
  14  H       1.00    3.100738214   -1.205021658   -2.419454152
  15  H       1.00    3.100738214   -1.205021658    2.419454152

 Bond lengths in Bohr (Angstrom)

 1-2  2.892097881  1-5  2.069933136  1-6  2.069096224  1-7  2.069096224  2-3  2.719106031
     ( 1.530432290)     ( 1.095361444)     ( 1.094918569)     ( 1.094918569)     ( 1.438888946)

  2- 8  2.903104402   2- 9  2.903104402   3- 4  1.834522965   8-10  2.069222119   8-12  2.071730422
       ( 1.536256691)       ( 1.536256691)       ( 0.970787746)       ( 1.094985190)       ( 1.096312526)

  8-14  2.075368508   9-11  2.069222119   9-13  2.071730422   9-15  2.075368508
       ( 1.098237719)       ( 1.094985190)       ( 1.096312526)       ( 1.098237719)

 Bond angles

  1-2-3  104.76902697   1-2-8  110.92255387   1-2-9  110.92255387   2-1-5  110.97328220

  2- 1- 6  110.22090701   2- 1- 7  110.22090701   2- 3- 4  107.25071562   2- 8-10  110.21836376

  2- 8-12  111.57747468   2- 8-14  110.77023896   2- 9-11  110.21836376   2- 9-13  111.57747468

  2- 9-15  110.77023896   3- 2- 8  109.53648747   3- 2- 9  109.53648747   5- 1- 6  108.61190457

  5- 1- 7  108.61190457   6- 1- 7  108.12870271   8- 2- 9  110.96453384  10- 8-12  108.52192632

 10- 8-14  108.08997829  11- 9-13  108.52192632  11- 9-15  108.08997829  12- 8-14  107.54424578

 13- 9-15  107.54424578

 NUCLEAR CHARGE:                   42
 NUMBER OF PRIMITIVE AOS:         195
 NUMBER OF SYMMETRY AOS:          190
 NUMBER OF CONTRACTIONS:          120   ( 120A   )
 NUMBER OF CORE ORBITALS:           5   (   5A   )
 NUMBER OF VALENCE ORBITALS:       30   (  30A   )


 NUCLEAR REPULSION ENERGY  198.77359127


 Eigenvalues of metric

         1 0.176E-02 0.546E-02 0.548E-02 0.123E-01 0.248E-01 0.256E-01 0.256E-01 0.275E-01


 Contracted 2-electron integrals neglected if value below      1.0D-11
 AO integral compression algorithm  1   Integral accuracy      1.0D-11

     101.974 MB (compressed) written to integral file ( 44.9%)


 NUMBER OF SORTED TWO-ELECTRON INTEGRALS:   26357430.     BUFFER LENGTH:  32768
 NUMBER OF SEGMENTS:   2  SEGMENT LENGTH:   15997996      RECORD LENGTH: 524288

 Memory used in sort:      16.56 MW

 SORT1 READ    28411733. AND WROTE    24096425. INTEGRALS IN     70 RECORDS. CPU TIME:     0.37 SEC, REAL TIME:     0.71 SEC
 SORT2 READ    24096425. AND WROTE    26357430. INTEGRALS IN    389 RECORDS. CPU TIME:     0.60 SEC, REAL TIME:     4.96 SEC

 FILE SIZES:   FILE 1:   132.7 MBYTE,  FILE 4:   293.6 MBYTE,   TOTAL:    426.4 MBYTE

 OPERATOR DM      FOR CENTER  0  COORDINATES:    0.000000    0.000000    0.000000


 **********************************************************************************************************************************
 DATASETS  * FILE   NREC   LENGTH (MB)   RECORD NAMES
              1      19      120.44       500      610      700      900      950      970     1000      129      960     1100   
                                          VAR    BASINP    GEOM    SYMINP    ZMAT    AOBASIS   BASIS     P2S    ABASIS      S 
                                         1400     1410     1200     1210     1080     1600     1650     1300     1700   
                                           T        V       H0       H01     AOSYM     SMH    MOLCAS    ERIS     OPER   

 PROGRAMS   *        TOTAL       INT
 CPU TIMES  *         4.06      3.92
 REAL TIME  *         9.36 SEC
 DISK USED  *       426.89 MB      
 **********************************************************************************************************************************

 Density functional group PW91=PW91X+PW91C
 Functional: PW91X(Automatically generated (new) PW91X)                        Gradient terms: 1
 Functional: PW91C(Automatically generated (new) PW91C)                        Gradient terms: 1
 Use grid at  1800.2

 Functional: PW91X                     Factor:  1.0000
 Functional: PW91C                     Factor:  1.0000

 Generated new metagrid on record  1800.2 with target accuracy 1.0D-06 and 53396 points in CPU time    1.6
 Computed new grid on record 1800.1 in CPU time    1.8
   99539 words reserved for DFT integration

 PROGRAM * UKS-SCF (Unrestricted Kohn-Sham)     Authors: W. Meyer, H.-J. Werner, P.J. Knowles, 1993

 NUMBER OF ELECTRONS:      21+   21-    SPACE SYMMETRY=1    SPIN SYMMETRY: Singlet 
 CONVERGENCE THRESHOLDS:    1.00E-05 (Density)    1.00E-06 (Energy)
 MAX. NUMBER OF ITERATIONS:       60
 INTERPOLATION TYPE:            DIIS
 INTERPOLATION STEPS:              2 (START)      1 (STEP)
 LEVEL SHIFTS:                 -0.20 (ALPHA)  -0.20 (BETA) 



 Use fine grid record 1800.2 for energy threshold  1.0D-06
 Orbital guess generated from atomic densities. Full valence occupancy:   21

 Molecular orbital dump at record        2200.2

 Initial alpha occupation  21
 Initial beta  occupation  21

 ITERATION    DDIFF          GRAD             ENERGY        2-EL.EN.            DIPOLE MOMENTS         DIIS
    1      0.000D+00      0.000D+00      -233.09280202    639.854903    0.70936   -0.80517    0.00000    0
    2      0.145D-01      0.624D-02      -233.32675928    614.870044    0.23425   -0.35934    0.00000    1
    3      0.488D-02      0.337D-02      -233.39211482    622.264603    0.38524   -0.49801    0.00000    2
    4      0.104D-02      0.438D-03      -233.39342489    622.007841    0.36743   -0.42902    0.00000    3
    5      0.696D-03      0.193D-03      -233.39380739    621.937150    0.36384   -0.43144    0.00000    4
    6      0.421D-03      0.463D-04      -233.39385985    621.921670    0.36201   -0.42362    0.00000    5
    7      0.808D-04      0.177D-04      -233.39386310    621.897292    0.36048   -0.42361    0.00000    6
    8      0.349D-04      0.887D-05      -233.39386389    621.906826    0.36044   -0.42437    0.00000    7
    9      0.107D-04      0.119D-05      -233.39386392    621.906044    0.36047   -0.42400    0.00000    6
   10      0.236D-05      0.314D-06      -233.39386393    621.905878    0.36040   -0.42413    0.00000    7
   11      0.522D-06      0.112D-06      -233.39386393    621.906118    0.36041   -0.42411    0.00000    6

 Final alpha occupancy:  21
 Final beta  occupancy:  21

 !UKS STATE 1.1 Energy               -233.393863926428
 Nuclear energy                       198.77359127
 One-electron energy                 -709.22260950
 Two-electron energy                  310.95305911
 Density functional                   -33.89790481     PW91X=-32.43262885 PW91C= -1.46527596
 Virial quotient                       -1.01099947
 !UKS STATE 1.1 Dipole moment           0.36041422    -0.42411368     0.00000000
 Dipole moment /Debye                   0.91602157    -1.07791886     0.00000000

 Orbital energies for positive spin:

         1.1          2.1          3.1          4.1          5.1          6.1          7.1          8.1          9.1         10.1
    -18.756104    -9.960056    -9.898781    -9.898762    -9.893654    -0.909806    -0.704481    -0.616483    -0.615636    -0.505346

        11.1         12.1         13.1         14.1         15.1         16.1         17.1         18.1         19.1         20.1
     -0.434540    -0.399774    -0.398165    -0.360969    -0.349466    -0.333208    -0.320789    -0.306904    -0.302485    -0.270735

        21.1         22.1         23.1
     -0.214067     0.015653     0.062888

 Orbital energies for negative spin:

         1.1          2.1          3.1          4.1          5.1          6.1          7.1          8.1          9.1         10.1
    -18.756104    -9.960056    -9.898781    -9.898762    -9.893654    -0.909806    -0.704481    -0.616483    -0.615636    -0.505346

        11.1         12.1         13.1         14.1         15.1         16.1         17.1         18.1         19.1         20.1
     -0.434540    -0.399774    -0.398165    -0.360969    -0.349466    -0.333208    -0.320789    -0.306904    -0.302485    -0.270735

        21.1         22.1         23.1
     -0.214067     0.015653     0.062888

 HOMO     21.1    -0.214067 =      -5.8251eV
 LUMO     22.1     0.015653 =       0.4259eV
 LUMO-HOMO         0.229720 =       6.2510eV

 EXPECTATION VALUE OF S**2:            -0.00000000

 Natural orbitals saved to record    2200.2 (Orbital set 3)

 Orbital spaces for UNO-CAS (Min. occupation: 0.020  Max. occupation: 1.980):

 Closed:       21
 Active:        0


 **********************************************************************************************************************************
 DATASETS  * FILE   NREC   LENGTH (MB)   RECORD NAMES
              1      20      122.15       500      610      700      900      950      970     1000      129      960     1100   
                                          VAR    BASINP    GEOM    SYMINP    ZMAT    AOBASIS   BASIS     P2S    ABASIS      S 
                                         1400     1410     1200     1210     1080     1600     1650     1300     1700     1800   
                                           T        V       H0       H01     AOSYM     SMH    MOLCAS    ERIS     OPER     GRID   

              2       5        3.59       700     1000      520     1800     2200   
                                         GEOM     BASIS   MCVARS    GRID      UKS  

 PROGRAMS   *        TOTAL       UKS       INT
 CPU TIMES  *        27.06     23.00      3.92
 REAL TIME  *        32.78 SEC
 DISK USED  *       426.89 MB      
 **********************************************************************************************************************************


 PROGRAM * Intrinsic Basis Bonding Analysis (IBBA)          Author: G. Knizia

 Molecular orbitals read from record     2200.2  Type=UKS/ALPHA (state 1.1)
 Fock matrix read from record            2200.2  Type=UKS/TOTAL (state 1.1)
 Orbital energies read from record       2200.2  Type=UKS/ALPHA (state 1.1)
 Density matrix read from record         2200.2  Type=UKS/CHARGE (state 1.1)

 Number of core orbitals:           5 (   5 )
 Number of closed-shell orbitals:  16 (  16 )

 Basis set MINAO-AUTO-PP generated.      Number of basis functions:   35 

 Polarized AO type:                A = (O Ot + (1-O)(1-Ot)) P12
 Orthogonalization method:         Symmetric (Loewdin)
 Localization functional:          L = sum[A,i] <i|n_A|i>^4 -> max

 Localization group 1:  21 orbitals, occupancy  2.000
 Iterative localization: IB/PM,    7 iter; Final gradient 0.32E-08

 Bond order analysis:       [THRPRINT= 0.020]

   CEN ATOM   CEN ATOM     WIBERG.BO      RENORM.BO
     1   C  -   2   C       0.994374       0.991671
     1   C  -   5   H       0.962481       0.986100
     1   C  -   6   H       0.957783       0.980231
     1   C  -   7   H       0.957783       0.980231

     2   C  -   1   C       0.994374       0.991671
     2   C  -   9   C       0.993158       0.972264
     2   C  -   8   C       0.993158       0.972264
     2   C  -   3   O       0.945890       0.949356

     3   O  -   2   C       0.945890       0.949356
     3   O  -   4   H       0.872765       0.974504
     3   O  -   9   C       0.030710       0.015757
     3   O  -   8   C       0.030710       0.015757

     4   H  -   3   O       0.872765       0.974504

     5   H  -   1   C       0.962481       0.986100

     6   H  -   1   C       0.957783       0.980231

     7   H  -   1   C       0.957783       0.980231

     8   C  -   2   C       0.993158       0.972264
     8   C  -  14   H       0.961800       0.981029
     8   C  -  10   H       0.958391       0.980026
     8   C  -  12   H       0.957753       0.979447
     8   C  -   3   O       0.030710       0.015757

     9   C  -   2   C       0.993158       0.972264
     9   C  -  15   H       0.961800       0.981029
     9   C  -  11   H       0.958391       0.980026
     9   C  -  13   H       0.957753       0.979447
     9   C  -   3   O       0.030710       0.015757

    10   H  -   8   C       0.958391       0.980026

    11   H  -   9   C       0.958391       0.980026

    12   H  -   8   C       0.957753       0.979447

    13   H  -   9   C       0.957753       0.979447

    14   H  -   8   C       0.961800       0.981029

    15   H  -   9   C       0.961800       0.981029


 Valency analysis:

   CEN ATOM   TOT.VALENCE
     1   C       3.937462
     2   C       3.938549
     3   O       1.954095
     4   H       0.893640
     5   H       0.982770
     6   H       0.980410
     7   H       0.980410
     8   C       3.939967
     9   C       3.939967
    10   H       0.980512
    11   H       0.980512
    12   H       0.982035
    13   H       0.982035
    14   H       0.984372
    15   H       0.984372

 Total charge composition:

   CEN ATOM         s          p       ELECTRONS ->P.CHARGE
     1   C       3.02617    3.37984      6.40601   -0.40601
     2   C       2.92298    2.83469      5.75767    0.24233
     3   O       3.63597    4.89476      8.53073   -0.53073
     4   H       0.67387                 0.67387    0.32613
     5   H       0.86874                 0.86874    0.13126
     6   H       0.86004                 0.86004    0.13996
     7   H       0.86004                 0.86004    0.13996
     8   C       3.03296    3.38714      6.42010   -0.42010
     9   C       3.03296    3.38714      6.42010   -0.42010
    10   H       0.86040                 0.86040    0.13960
    11   H       0.86040                 0.86040    0.13960
    12   H       0.86597                 0.86597    0.13403
    13   H       0.86597                 0.86597    0.13403
    14   H       0.87499                 0.87499    0.12501
    15   H       0.87499                 0.87499    0.12501

 Total charge composition, AO contributions:

   CEN ATOM SHL      SPHERICAL COMPONENTS
     1   C  1s       1.99122
     1   C  2s       1.03496
     1   C  2p       1.04611    1.16077    1.17296

     2   C  1s       1.99287
     2   C  2s       0.93012
     2   C  2p       1.01398    0.80539    1.01532

     3   O  1s       1.99717
     3   O  2s       1.63881
     3   O  2p       1.46288    1.48123    1.95064

     4   H  1s       0.67387

     5   H  1s       0.86874

     6   H  1s       0.86004

     7   H  1s       0.86004

     8   C  1s       1.99132
     8   C  2s       1.04164
     8   C  2p       1.14359    1.14465    1.09890

     9   C  1s       1.99132
     9   C  2s       1.04164
     9   C  2p       1.14359    1.14465    1.09890

    10   H  1s       0.86040

    11   H  1s       0.86040

    12   H  1s       0.86597

    13   H  1s       0.86597

    14   H  1s       0.87499

    15   H  1s       0.87499

 Summary of localized orbital composition:   [THRPRINT= 0.020]

   ORB  GRP  ORB.ENERGY      CENTERS/CHARGES
     1   1   -18.609178      O  3   2.000
     2   1    -9.871168      C  2   2.000
     3   1    -9.787596      C  8   2.000
     4   1    -9.787596      C  9   2.000
     5   1    -9.781703      C  1   2.000
     6   1    -0.686139      O  3   1.329   H  4   0.662
     7   1    -0.651070      O  3   1.267   C  2   0.714
     8   1    -0.515924      C  9   1.009   C  2   0.975
     9   1    -0.515924      C  8   1.009   C  2   0.975
    10   1    -0.515441      C  1   0.991   C  2   0.983   (other: 0.026)
    11   1    -0.477479      O  3   1.980   (other: 0.020)
    12   1    -0.450008      C  8   1.130   H 12   0.855
    13   1    -0.450008      C  9   1.130   H 13   0.855
    14   1    -0.449224      C  9   1.120   H 15   0.867
    15   1    -0.449224      C  8   1.120   H 14   0.867
    16   1    -0.445867      C  1   1.125   H  5   0.861
    17   1    -0.444294      C  9   1.137   H 11   0.852
    18   1    -0.444294      C  8   1.137   H 10   0.852
    19   1    -0.439490      C  1   1.137   H  7   0.851
    20   1    -0.439490      C  1   1.137   H  6   0.851
    21   1    -0.239064      O  3   1.951   (other: 0.049)

 Localized orbitals saved to record      2200.2  (orbital set 4)


 **********************************************************************************************************************************
 DATASETS  * FILE   NREC   LENGTH (MB)   RECORD NAMES
              1      20      122.15       500      610      700      900      950      970     1000      129      960     1100   
                                          VAR    BASINP    GEOM    SYMINP    ZMAT    AOBASIS   BASIS     P2S    ABASIS      S 
                                         1400     1410     1200     1210     1080     1600     1650     1300     1700     1800   
                                           T        V       H0       H01     AOSYM     SMH    MOLCAS    ERIS     OPER     GRID   

              2       5        3.71       700     1000      520     1800     2200   
                                         GEOM     BASIS   MCVARS    GRID      UKS  

 PROGRAMS   *        TOTAL      IBBA       UKS       INT
 CPU TIMES  *        27.10      0.04     23.00      3.92
 REAL TIME  *        32.91 SEC
 DISK USED  *       426.89 MB      
 **********************************************************************************************************************************
 Molecular orbitals read from record     2200.2  Type=UKS/LOCAL(IBO)  
 Occupation numbers read from record     2200.2  Type=UKS/LOCAL(IBO)  
 Orbital energies read from record       2200.2  Type=UKS/LOCAL(IBO)  
 Redundancy group numbers read from rec  2200.2  Type=UKS/BETA (state 1.1)

 IBBA/SVP energy=      0.000000000000

        UKS-SCF 
   -233.39386393
 **********************************************************************************************************************************
 Molpro calculation terminated
