
 Primary working directories    : /tmp/sb13343
 Secondary working directories  : /tmp/sb13343
 Wavefunction directory         : /panfs/panasas01/chem/sb13343/wfu/
 Main file repository           : /tmp/sb13343/

 SHA1      : b4a5b34a9e711420743f49e6833241d17c61fb3c
 NAME      : 2099.9.b4a5b34
 ARCHNAME  : linux/x86_64_openmp
 FC        : /cm/shared/languages/GCC-6.1/bin/gfortran
 BLASLIB   : -lblas
 id        : simonbennie

 Nodes     nprocs
 node32-034    1

 Using customized tuning parameters: mindgm=1; mindgv=20; mindgc=4; mindgr=1; noblas=0; minvec=7
 default implementation of scratch files=df  

 memory,500,m
 geomtyp=xyz
 nosym
 noorient
 geometry={
 C          0.00000        0.00000        0.00000
 H          0.00000        0.00000        1.10056
 C          1.46209        0.00000       -0.46855
 C         -0.73105       -1.26621       -0.46855
 C         -0.73105        1.26621       -0.46855
 H          1.52118        0.00000       -1.56505
 H         -0.76059       -1.31738       -1.56505
 H         -0.76059        1.31738       -1.56505
 H          1.99755        0.88622       -0.10723
 H          1.99755       -0.88622       -0.10723
 H         -0.23129       -2.17304       -0.10723
 H         -1.76626       -1.28682       -0.10723
 H         -1.76626        1.28682       -0.10723
 H         -0.23129        2.17304       -0.10723
 }
 basis={ default,svp }
 {ks,B3LYP3,direct;wf,34,1,0}
 {ibba,bonds=1}

 Variables initialized (895), CPU time= 0.00 sec
 Commands  initialized (725), CPU time= 0.02 sec, 591 directives.
 Default parameters read. Elapsed time= 0.08 sec

 Checking input...
 Passed
1


                                         ***  PROGRAM SYSTEM MOLPRO  ***
                                       Copyright, TTI GmbH Stuttgart, 2015
                                    Version 2099.9 linked May 26 2017 16:03:21


 **********************************************************************************************************************************
 LABEL *                                                                                 
  64 bit serial version                                                                  DATE: 09-Jun-17          TIME: 00:04:13  
 **********************************************************************************************************************************

 SHA1:             b4a5b34a9e711420743f49e6833241d17c61fb3c
 **********************************************************************************************************************************
 SETTING GEOMTYP        =    XYZ

 Variable memory set to  500000000 words,  buffer space 

 ZSYMEL=NOSYM

 SETTING BASIS          =    SVP


 Recomputing integrals since basis changed


 Using spherical harmonics

 Library entry C      S def2-SVP             selected for orbital group  1
 Library entry C      P def2-SVP             selected for orbital group  1
 Library entry C      D def2-SVP             selected for orbital group  1
 Library entry H      S def2-SVP             selected for orbital group  2
 Library entry H      P def2-SVP             selected for orbital group  2


 PROGRAM * SEWARD (Integral evaluation for generally contracted gaussian basis sets)     Author: Roland Lindh, 1990

 Geometry written to block  1 of record 700


 Point group  C1  



 ATOMIC COORDINATES

 NR  ATOM    CHARGE       X              Y              Z

   1  C       6.00    0.000000000    0.000000000    0.000000000
   2  H       1.00    0.000000000    0.000000000    2.079756984
   3  C       6.00    2.762949669    0.000000000   -0.885431176
   4  C       6.00   -1.381484283   -2.392790116   -0.885431176
   5  C       6.00   -1.381484283    2.392790116   -0.885431176
   6  H       1.00    2.874613586    0.000000000   -2.957515871
   7  H       1.00   -1.437306793   -2.489487402   -2.957515871
   8  H       1.00   -1.437306793    2.489487402   -2.957515871
   9  H       1.00    3.774822420    1.674713086   -0.202635332
  10  H       1.00    3.774822420   -1.674713086   -0.202635332
  11  H       1.00   -0.437074755   -4.106450458   -0.202635332
  12  H       1.00   -3.337747665   -2.431737372   -0.202635332
  13  H       1.00   -3.337747665    2.431737372   -0.202635332
  14  H       1.00   -0.437074755    4.106450458   -0.202635332

 Bond lengths in Bohr (Angstrom)

 1-2  2.079756984  1-3  2.901358172  1-4  2.901367218  1-5  2.901367218  3-6  2.075091279
     ( 1.100560000)     ( 1.535332625)     ( 1.535337412)     ( 1.535337412)     ( 1.098091015)

  3- 9  2.072380406   3-10  2.072380406   4- 7  2.075090722   4-11  2.072378172   4-12  2.072364222
       ( 1.096656483)       ( 1.096656483)       ( 1.098090721)       ( 1.096655301)       ( 1.096647919)

  5- 8  2.075090722   5-13  2.072364222   5-14  2.072378172
       ( 1.098090721)       ( 1.096647919)       ( 1.096655301)

 Bond angles

  1- 3- 6  110.85354902   1- 3- 9  111.37220114   1- 3-10  111.37220114   1- 4- 7  110.85320625

  1- 4-11  111.37204414   1- 4-12  111.37216555   1- 5- 8  110.85320625   1- 5-13  111.37216555

  1- 5-14  111.37204414   2- 1- 3  107.76888332   2- 1- 4  107.76882608   2- 1- 5  107.76882608

  3-1-4  111.11870751   3-1-5  111.11870751   4-1-5  111.11845005   6-3-9  107.62119374

  6- 3-10  107.62119374   7- 4-11  107.62125572   7- 4-12  107.62162102   8- 5-13  107.62162102

  8- 5-14  107.62125572   9- 3-10  107.82352924  11- 4-12  107.82360822  13- 5-14  107.82360822

 NUCLEAR CHARGE:                   34
 NUMBER OF PRIMITIVE AOS:         170
 NUMBER OF SYMMETRY AOS:          166
 NUMBER OF CONTRACTIONS:          106   ( 106A   )
 NUMBER OF CORE ORBITALS:           4   (   4A   )
 NUMBER OF VALENCE ORBITALS:       26   (  26A   )


 NUCLEAR REPULSION ENERGY  134.07051350


 Eigenvalues of metric

         1 0.225E-02 0.614E-02 0.614E-02 0.233E-01 0.256E-01 0.268E-01 0.268E-01 0.277E-01


 Contracted 2-electron integrals neglected if value below      1.0D-11
 AO integral compression algorithm  1   Integral accuracy      1.0D-11

     64.750 MB (compressed) written to integral file ( 46.7%)


 NUMBER OF SORTED TWO-ELECTRON INTEGRALS:   16082956.     BUFFER LENGTH:  32768
 NUMBER OF SEGMENTS:   2  SEGMENT LENGTH:   15997996      RECORD LENGTH: 524288

 Memory used in sort:      16.56 MW

 SORT1 READ    17384690. AND WROTE    14795173. INTEGRALS IN     44 RECORDS. CPU TIME:     0.21 SEC, REAL TIME:     0.42 SEC
 SORT2 READ    14795173. AND WROTE    16082956. INTEGRALS IN    247 RECORDS. CPU TIME:     0.39 SEC, REAL TIME:     0.50 SEC

 FILE SIZES:   FILE 1:    95.4 MBYTE,  FILE 4:   184.6 MBYTE,   TOTAL:    279.9 MBYTE

 OPERATOR DM      FOR CENTER  0  COORDINATES:    0.000000    0.000000    0.000000


 **********************************************************************************************************************************
 DATASETS  * FILE   NREC   LENGTH (MB)   RECORD NAMES
              1      19       87.57       500      610      700      900      950      970     1000      129      960     1100   
                                          VAR    BASINP    GEOM    SYMINP    ZMAT    AOBASIS   BASIS     P2S    ABASIS      S 
                                         1400     1410     1200     1210     1080     1600     1650     1300     1700   
                                           T        V       H0       H01     AOSYM     SMH    MOLCAS    ERIS     OPER   

 PROGRAMS   *        TOTAL       INT
 CPU TIMES  *         2.70      2.56
 REAL TIME  *         3.46 SEC
 DISK USED  *       280.45 MB      
 **********************************************************************************************************************************

 Density functional group B3LYP3=B88+DIRAC+LYP+VWN3
 Functional: B88(Automatically generated (new) B88)                            Gradient terms: 1
 Functional: DIRAC(Automatically generated (new) DIRAC)                        Gradient terms: 0
 Functional: LYP(Automatically generated (new) LYP)                            Gradient terms: 1
 Functional: VWN3(Automatically generated (new) VWN3)                          Gradient terms: 0
 Use grid at  1800.2


 Exact exchange will be calculated, factor:  0.2000

 Functional: B88                       Factor:  0.7200
 Functional: DIRAC                     Factor:  0.0800
 Functional: LYP                       Factor:  0.8100
 Functional: VWN3                      Factor:  0.1900

 Generated new metagrid on record  1800.2 with target accuracy 1.0D-06 and 45620 points in CPU time    1.0
 Computed new grid on record 1800.1 in CPU time    1.1
   88342 words reserved for DFT integration

 PROGRAM * RKS-SCF (Restricted closed shell Kohn-Sham)     Authors: W. Meyer, H.-J. Werner, P.J. Knowles, 1993

 NUMBER OF ELECTRONS:      17+   17-    SPACE SYMMETRY=1    SPIN SYMMETRY: Singlet 
 CONVERGENCE THRESHOLDS:    1.00E-05 (Density)    1.00E-06 (Energy)
 MAX. NUMBER OF ITERATIONS:       60
 INTERPOLATION TYPE:            DIIS
 INTERPOLATION STEPS:              2 (START)      1 (STEP)
 LEVEL SHIFTS:                  0.00 (CLOSED)  0.00 (OPEN) 



 Use fine grid record 1800.2 for energy threshold  1.0D-06
 Orbital guess generated from atomic densities. Full valence occupancy:   17

 Molecular orbital dump at record        2100.2

 Initial occupancy:  17

 ITERATION    DDIFF          GRAD             ENERGY        2-EL.EN.            DIPOLE MOMENTS         DIIS   ORB.
    1      0.000D+00      0.000D+00      -158.14909615    421.639412   -0.00013   -0.00000   -0.01542    0    start
    2      0.000D+00      0.105D-01      -158.04172363    393.581425   -0.00035   -0.00000    0.04428    1    diag
    3      0.224D-01      0.133D-01      -158.34238733    409.371247   -0.00022   -0.00000    0.06928    2    diag
    4      0.136D-01      0.766D-03      -158.34303700    409.024271   -0.00022   -0.00000    0.03188    3    diag
    5      0.894D-03      0.374D-03      -158.34323665    409.109725   -0.00023   -0.00000    0.03045    4    diag
    6      0.305D-03      0.581D-04      -158.34324152    409.114790   -0.00023   -0.00000    0.03976    5    diag
    7      0.661D-04      0.994D-05      -158.34324169    409.120083   -0.00023   -0.00000    0.03687    6    diag
    8      0.134D-04      0.162D-05      -158.34324170    409.120889   -0.00023   -0.00000    0.03727    7    diag
    9      0.186D-05      0.647D-07      -158.34324170    409.120878   -0.00023   -0.00000    0.03726    0    orth

 Final occupancy:  17

 !RKS STATE 1.1 Energy               -158.343241698232
 Nuclear energy                       134.07051350
 One-electron energy                 -476.40650401
 Two-electron energy                  204.56043899
 SCF exchange energy                  -24.24591773     Factor= 0.2000
 Density functional                   -20.56769017     B88=-24.22166362 DIRAC=-21.78543600 LYP= -1.06799131 VWN3= -2.73781329
 Virial quotient                       -1.01367749
 !RKS STATE 1.1 Dipole moment          -0.00022697    -0.00000000     0.03725609
 Dipole moment /Debye                  -0.00057687    -0.00000000     0.09468934

 Orbital energies:

         1.1          2.1          3.1          4.1          5.1          6.1          7.1          8.1          9.1         10.1
    -10.186150   -10.173082   -10.173071   -10.173048    -0.792178    -0.672950    -0.672948    -0.552835    -0.460453    -0.428963

        11.1         12.1         13.1         14.1         15.1         16.1         17.1         18.1         19.1
     -0.428955    -0.381616    -0.381610    -0.361940    -0.328360    -0.328359    -0.321258     0.051233     0.097142

 HOMO     17.1    -0.321258 =      -8.7419eV
 LUMO     18.1     0.051233 =       1.3941eV
 LUMO-HOMO         0.372492 =      10.1360eV


 **********************************************************************************************************************************
 DATASETS  * FILE   NREC   LENGTH (MB)   RECORD NAMES
              1      20       89.03       500      610      700      900      950      970     1000      129      960     1100   
                                          VAR    BASINP    GEOM    SYMINP    ZMAT    AOBASIS   BASIS     P2S    ABASIS      S 
                                         1400     1410     1200     1210     1080     1600     1650     1300     1700     1800   
                                           T        V       H0       H01     AOSYM     SMH    MOLCAS    ERIS     OPER     GRID   

              2       5        3.22       700     1000      520     1800     2100   
                                         GEOM     BASIS   MCVARS    GRID      RKS  

 PROGRAMS   *        TOTAL        KS       INT
 CPU TIMES  *        12.66      9.96      2.56
 REAL TIME  *        14.36 SEC
 DISK USED  *       280.45 MB      
 **********************************************************************************************************************************


 PROGRAM * Intrinsic Basis Bonding Analysis (IBBA)          Author: G. Knizia

 Molecular orbitals read from record     2100.2  Type=RKS/CANONICAL (state 1.1)
 Fock matrix read from record            2100.2  Type=RKS/TOTAL (state 1.1)
 Orbital energies read from record       2100.2  Type=RKS/CANONICAL (state 1.1)
 Density matrix read from record         2100.2  Type=RKS/CHARGE (state 1.1)

 Number of core orbitals:           4 (   4 )
 Number of closed-shell orbitals:  13 (  13 )

 Basis set MINAO-AUTO-PP generated.      Number of basis functions:   30 

 Polarized AO type:                A = (O Ot + (1-O)(1-Ot)) P12
 Orthogonalization method:         Symmetric (Loewdin)
 Localization functional:          L = sum[A,i] <i|n_A|i>^4 -> max

 Localization group 1:  17 orbitals, occupancy  2.000
 Iterative localization: IB/PM,    7 iter; Final gradient 0.63E-09

 Bond order analysis:       [THRPRINT= 0.020]

   CEN ATOM   CEN ATOM     WIBERG.BO      RENORM.BO
     1   C  -   3   C       1.013448       1.009559
     1   C  -   4   C       1.013439       1.009546
     1   C  -   5   C       1.013439       1.009546
     1   C  -   2   H       0.936101       0.957100

     2   H  -   1   C       0.936101       0.957100

     3   C  -   1   C       1.013448       1.009559
     3   C  -   9   H       0.966605       0.984015
     3   C  -  10   H       0.966605       0.984015
     3   C  -   6   H       0.964956       0.978926

     4   C  -   1   C       1.013439       1.009546
     4   C  -  11   H       0.966612       0.984018
     4   C  -  12   H       0.966599       0.984019
     4   C  -   7   H       0.964946       0.978923

     5   C  -   1   C       1.013439       1.009546
     5   C  -  14   H       0.966612       0.984018
     5   C  -  13   H       0.966599       0.984019
     5   C  -   8   H       0.964946       0.978923

     6   H  -   3   C       0.964956       0.978926

     7   H  -   4   C       0.964946       0.978923

     8   H  -   5   C       0.964946       0.978923

     9   H  -   3   C       0.966605       0.984015

    10   H  -   3   C       0.966605       0.984015

    11   H  -   4   C       0.966612       0.984018

    12   H  -   4   C       0.966599       0.984019

    13   H  -   5   C       0.966599       0.984019

    14   H  -   5   C       0.966612       0.984018


 Valency analysis:

   CEN ATOM   TOT.VALENCE
     1   C       3.982822
     2   H       0.987131
     3   C       3.946728
     4   C       3.946712
     5   C       3.946712
     6   H       0.985733
     7   H       0.985724
     8   H       0.985724
     9   H       0.984695
    10   H       0.984695
    11   H       0.984701
    12   H       0.984686
    13   H       0.984686
    14   H       0.984701

 Total charge composition:

   CEN ATOM         s          p       ELECTRONS ->P.CHARGE
     1   C       2.95038    3.11738      6.06776   -0.06776
     2   H       0.88656                 0.88656    0.11344
     3   C       3.01976    3.36234      6.38210   -0.38210
     4   C       3.01976    3.36238      6.38214   -0.38214
     5   C       3.01976    3.36238      6.38214   -0.38214
     6   H       0.88056                 0.88056    0.11944
     7   H       0.88052                 0.88052    0.11948
     8   H       0.88052                 0.88052    0.11948
     9   H       0.87629                 0.87629    0.12371
    10   H       0.87629                 0.87629    0.12371
    11   H       0.87631                 0.87631    0.12369
    12   H       0.87625                 0.87625    0.12375
    13   H       0.87625                 0.87625    0.12375
    14   H       0.87631                 0.87631    0.12369

 Total charge composition, AO contributions:

   CEN ATOM SHL      SPHERICAL COMPONENTS
     1   C  1s       1.99172
     1   C  2s       0.95866
     1   C  2p       1.00612    1.00613    1.10513

     2   H  1s       0.88656

     3   C  1s       1.99113
     3   C  2s       1.02863
     3   C  2p       1.06589    1.15414    1.14231

     4   C  1s       1.99113
     4   C  2s       1.02863
     4   C  2p       1.13210    1.08793    1.14235

     5   C  1s       1.99113
     5   C  2s       1.02863
     5   C  2p       1.13210    1.08793    1.14235

     6   H  1s       0.88056

     7   H  1s       0.88052

     8   H  1s       0.88052

     9   H  1s       0.87629

    10   H  1s       0.87629

    11   H  1s       0.87631

    12   H  1s       0.87625

    13   H  1s       0.87625

    14   H  1s       0.87631

 Summary of localized orbital composition:   [THRPRINT= 0.020]

   ORB  GRP  ORB.ENERGY      CENTERS/CHARGES
     1   1   -10.083186      C  1   2.000
     2   1   -10.059682      C  3   2.000
     3   1   -10.059667      C  4   2.000
     4   1   -10.059667      C  5   2.000
     5   1    -0.550410      C  3   1.007   C  1   0.977
     6   1    -0.550405      C  4   1.007   C  1   0.977
     7   1    -0.550405      C  5   1.007   C  1   0.977
     8   1    -0.491210      C  3   1.122   H 10   0.869
     9   1    -0.491210      C  3   1.122   H  9   0.869
    10   1    -0.491206      C  4   1.122   H 11   0.869
    11   1    -0.491206      C  5   1.122   H 14   0.869
    12   1    -0.491202      C  5   1.122   H 13   0.869
    13   1    -0.491202      C  4   1.122   H 12   0.869
    14   1    -0.490587      C  3   1.118   H  6   0.873
    15   1    -0.490574      C  5   1.118   H  8   0.873
    16   1    -0.490574      C  4   1.118   H  7   0.873
    17   1    -0.485384      C  1   1.096   H  2   0.874   (other: 0.030)

 Localized orbitals saved to record      2100.2  (orbital set 2)


 **********************************************************************************************************************************
 DATASETS  * FILE   NREC   LENGTH (MB)   RECORD NAMES
              1      20       89.03       500      610      700      900      950      970     1000      129      960     1100   
                                          VAR    BASINP    GEOM    SYMINP    ZMAT    AOBASIS   BASIS     P2S    ABASIS      S 
                                         1400     1410     1200     1210     1080     1600     1650     1300     1700     1800   
                                           T        V       H0       H01     AOSYM     SMH    MOLCAS    ERIS     OPER     GRID   

              2       5        3.31       700     1000      520     1800     2100   
                                         GEOM     BASIS   MCVARS    GRID      RKS  

 PROGRAMS   *        TOTAL      IBBA        KS       INT
 CPU TIMES  *        12.70      0.03      9.96      2.56
 REAL TIME  *        14.48 SEC
 DISK USED  *       280.45 MB      
 **********************************************************************************************************************************
 Molecular orbitals read from record     2100.2  Type=RKS/LOCAL(IBO)  
 Occupation numbers read from record     2100.2  Type=RKS/LOCAL(IBO)  
 Orbital energies read from record       2100.2  Type=RKS/LOCAL(IBO)  
 Redundancy group numbers read from rec  2100.2  Type=RKS/LOCAL(IBO)  

 IBBA/SVP energy=      0.000000000000

        KS-SCF  
   -158.34324170
 **********************************************************************************************************************************
 Molpro calculation terminated
