
 Primary working directories    : /local
 Secondary working directories  : /local
 Wavefunction directory         : /local/
 Main file repository           : /local/

 SHA1      : b4a5b34a9e711420743f49e6833241d17c61fb3c
 NAME      : 2099.9.b4a5b34
 ARCHNAME  : linux/x86_64_openmp
 FC        : /cm/shared/languages/GCC-6.1/bin/gfortran
 BLASLIB   : -lblas
 id        : simonbennie

 Nodes     nprocs
 node35-036    1

 Using customized tuning parameters: mindgm=1; mindgv=20; mindgc=4; mindgr=1; noblas=0; minvec=7
 default implementation of scratch files=df  

 memory,500,m
 geomtyp=xyz
 nosym
 noorient
 geometry={
 C         -1.53233        0.02247        0.00000
 C         -0.00192        0.01421        0.00000
 O          0.37239        1.40356        0.00000
 H          1.34248        1.44036        0.00000
 H         -1.92991       -0.99819        0.00000
 H         -1.90797        0.54382       -0.88653
 H         -1.90797        0.54382        0.88653
 C          0.54303       -0.66466       -1.26580
 C          0.54303       -0.66466        1.26580
 H          0.17836       -0.14752       -2.15943
 H          0.17836       -0.14752        2.15943
 H          0.23752       -1.71600       -1.32280
 H          0.23752       -1.71600        1.32280
 H          1.64084       -0.63767       -1.28032
 H          1.64084       -0.63767        1.28032
 }
 basis={ default,tzvp }
 {uks,B97,direct;wf,42,1,0}
 {ibba,bonds=1}

 Variables initialized (895), CPU time= 0.00 sec
 Commands  initialized (725), CPU time= 0.02 sec, 591 directives.
 Default parameters read. Elapsed time= 0.08 sec

 Checking input...
 Passed
1


                                         ***  PROGRAM SYSTEM MOLPRO  ***
                                       Copyright, TTI GmbH Stuttgart, 2015
                                    Version 2099.9 linked May 26 2017 16:03:21


 **********************************************************************************************************************************
 LABEL *                                                                                 
  64 bit serial version                                                                  DATE: 12-Jun-17          TIME: 20:03:20  
 **********************************************************************************************************************************

 SHA1:             b4a5b34a9e711420743f49e6833241d17c61fb3c
 **********************************************************************************************************************************
 SETTING GEOMTYP        =    XYZ

 Variable memory set to  500000000 words,  buffer space 

 ZSYMEL=NOSYM

 SETTING BASIS          =    TZVP


 Recomputing integrals since basis changed


 Using spherical harmonics

 Library entry C      S def2-TZVP            selected for orbital group  1
 Library entry C      P def2-TZVP            selected for orbital group  1
 Library entry C      D def2-TZVP            selected for orbital group  1
 Library entry C      F def2-TZVP            selected for orbital group  1
 Library entry O      S def2-TZVP            selected for orbital group  2
 Library entry O      P def2-TZVP            selected for orbital group  2
 Library entry O      D def2-TZVP            selected for orbital group  2
 Library entry O      F def2-TZVP            selected for orbital group  2
 Library entry H      S def2-TZVP            selected for orbital group  3
 Library entry H      P def2-TZVP            selected for orbital group  3


 PROGRAM * SEWARD (Integral evaluation for generally contracted gaussian basis sets)     Author: Roland Lindh, 1990

 Geometry written to block  1 of record 700


 Point group  C1  



 ATOMIC COORDINATES

 NR  ATOM    CHARGE       X              Y              Z

   1  C       6.00   -2.895684032    0.042462146    0.000000000
   2  C       6.00   -0.003628274    0.026853008    0.000000000
   3  O       8.00    0.703715112    2.652343999    0.000000000
   4  H       1.00    2.536919528    2.721885921    0.000000000
   5  H       1.00   -3.647001345   -1.886305720    0.000000000
   6  H       1.00   -3.605540754    1.027670861   -1.675298901
   7  H       1.00   -3.605540754    1.027670861    1.675298901
   8  C       6.00    1.026177977   -1.256025366   -2.392015328
   9  C       6.00    1.026177977   -1.256025366    2.392015328
  10  H       1.00    0.337051552   -0.278772398   -4.080731285
  11  H       1.00    0.337051552   -0.278772398    4.080731285
  12  H       1.00    0.448847749   -3.242770030   -2.499729718
  13  H       1.00    0.448847749   -3.242770030    2.499729718
  14  H       1.00    3.100738214   -1.205021658   -2.419454152
  15  H       1.00    3.100738214   -1.205021658    2.419454152

 Bond lengths in Bohr (Angstrom)

 1-2  2.892097881  1-5  2.069933136  1-6  2.069096224  1-7  2.069096224  2-3  2.719106031
     ( 1.530432290)     ( 1.095361444)     ( 1.094918569)     ( 1.094918569)     ( 1.438888946)

  2- 8  2.903104402   2- 9  2.903104402   3- 4  1.834522965   8-10  2.069222119   8-12  2.071730422
       ( 1.536256691)       ( 1.536256691)       ( 0.970787746)       ( 1.094985190)       ( 1.096312526)

  8-14  2.075368508   9-11  2.069222119   9-13  2.071730422   9-15  2.075368508
       ( 1.098237719)       ( 1.094985190)       ( 1.096312526)       ( 1.098237719)

 Bond angles

  1-2-3  104.76902697   1-2-8  110.92255387   1-2-9  110.92255387   2-1-5  110.97328220

  2- 1- 6  110.22090701   2- 1- 7  110.22090701   2- 3- 4  107.25071562   2- 8-10  110.21836376

  2- 8-12  111.57747468   2- 8-14  110.77023896   2- 9-11  110.21836376   2- 9-13  111.57747468

  2- 9-15  110.77023896   3- 2- 8  109.53648747   3- 2- 9  109.53648747   5- 1- 6  108.61190457

  5- 1- 7  108.61190457   6- 1- 7  108.12870271   8- 2- 9  110.96453384  10- 8-12  108.52192632

 10- 8-14  108.08997829  11- 9-13  108.52192632  11- 9-15  108.08997829  12- 8-14  107.54424578

 13- 9-15  107.54424578

 NUCLEAR CHARGE:                   42
 NUMBER OF PRIMITIVE AOS:         335
 NUMBER OF SYMMETRY AOS:          310
 NUMBER OF CONTRACTIONS:          215   ( 215A   )
 NUMBER OF CORE ORBITALS:           5   (   5A   )
 NUMBER OF VALENCE ORBITALS:       30   (  30A   )


 NUCLEAR REPULSION ENERGY  198.77359127


 Eigenvalues of metric

         1 0.262E-03 0.510E-03 0.539E-03 0.594E-03 0.697E-03 0.755E-03 0.210E-02 0.239E-02


 Contracted 2-electron integrals neglected if value below      1.0D-11
 AO integral compression algorithm  1   Integral accuracy      1.0D-11

     977.797 MB (compressed) written to integral file ( 41.7%)


 NUMBER OF SORTED TWO-ELECTRON INTEGRALS:  269595810.     BUFFER LENGTH:  32768
 NUMBER OF SEGMENTS:  17  SEGMENT LENGTH:   15999762      RECORD LENGTH: 524288

 Memory used in sort:      16.56 MW

 SORT1 READ   292827432. AND WROTE   238500613. INTEGRALS IN    690 RECORDS. CPU TIME:     3.83 SEC, REAL TIME:     7.24 SEC
 SORT2 READ   238500613. AND WROTE   269595810. INTEGRALS IN   3730 RECORDS. CPU TIME:     5.72 SEC, REAL TIME:     7.38 SEC

 FILE SIZES:   FILE 1:  1009.7 MBYTE,  FILE 4:  2894.1 MBYTE,   TOTAL:   3903.8 MBYTE

 OPERATOR DM      FOR CENTER  0  COORDINATES:    0.000000    0.000000    0.000000


 **********************************************************************************************************************************
 DATASETS  * FILE   NREC   LENGTH (MB)   RECORD NAMES
              1      19      926.27       500      610      700      900      950      970     1000      129      960     1100   
                                          VAR    BASINP    GEOM    SYMINP    ZMAT    AOBASIS   BASIS     P2S    ABASIS      S 
                                         1400     1410     1200     1210     1080     1600     1650     1300     1700   
                                           T        V       H0       H01     AOSYM     SMH    MOLCAS    ERIS     OPER   

 PROGRAMS   *        TOTAL       INT
 CPU TIMES  *        27.37     27.22
 REAL TIME  *        57.49 SEC
 DISK USED  *         3.90 GB      
 **********************************************************************************************************************************

 Density functional group B97=B97DF
 Functional: B97DF(Automatically generated (new) B97DF)                        Gradient terms: 1
 Use grid at  1800.2


 Exact exchange will be calculated, factor:  0.1943

 Functional: B97DF                     Factor:  1.0000

 Generated new metagrid on record  1800.2 with target accuracy 1.0D-06 and 54596 points in CPU time    1.7
 Computed new grid on record 1800.1 in CPU time    1.9
  175219 words reserved for DFT integration

 PROGRAM * UKS-SCF (Unrestricted Kohn-Sham)     Authors: W. Meyer, H.-J. Werner, P.J. Knowles, 1993

 NUMBER OF ELECTRONS:      21+   21-    SPACE SYMMETRY=1    SPIN SYMMETRY: Singlet 
 CONVERGENCE THRESHOLDS:    1.00E-05 (Density)    1.00E-06 (Energy)
 MAX. NUMBER OF ITERATIONS:       60
 INTERPOLATION TYPE:            DIIS
 INTERPOLATION STEPS:              2 (START)      1 (STEP)
 LEVEL SHIFTS:                 -0.20 (ALPHA)  -0.20 (BETA) 



 Use fine grid record 1800.2 for energy threshold  1.0D-06
 Orbital guess generated from atomic densities. Full valence occupancy:   21

 Molecular orbital dump at record        2200.2

 Initial alpha occupation  21
 Initial beta  occupation  21

 ITERATION    DDIFF          GRAD             ENERGY        2-EL.EN.            DIPOLE MOMENTS         DIIS
    1      0.000D+00      0.000D+00      -233.48056347    623.982106    0.69692   -0.80675    0.00000    0
    2      0.435D-02      0.298D-02      -233.65155102    604.859916    0.25989   -0.45532    0.00000    1
    3      0.132D-02      0.146D-02      -233.68322430    609.719125    0.37093   -0.55186    0.00000    2
    4      0.351D-03      0.217D-03      -233.68418082    609.631122    0.36043   -0.50858    0.00000    3
    5      0.403D-03      0.953D-04      -233.68456529    609.509651    0.35435   -0.50348    0.00000    4
    6      0.284D-03      0.283D-04      -233.68462318    609.485492    0.35175   -0.49632    0.00000    5
    7      0.650D-04      0.769D-05      -233.68462601    609.457813    0.35037   -0.49543    0.00000    6
    8      0.196D-04      0.446D-05      -233.68462658    609.466527    0.35033   -0.49567    0.00000    7
    9      0.658D-05      0.570D-06      -233.68462661    609.466645    0.35029   -0.49553    0.00000    6
   10      0.119D-05      0.192D-06      -233.68462661    609.466076    0.35023   -0.49559    0.00000    7

 Final alpha occupancy:  21
 Final beta  occupancy:  21

 !UKS STATE 1.1 Energy               -233.684626612513
 Nuclear energy                       198.77359127
 One-electron energy                 -709.51472550
 Two-electron energy                  304.73303810
 Density functional                   -27.67653049     B97DF=-27.67653049
 Virial quotient                       -1.00507058
 !UKS STATE 1.1 Dipole moment           0.35023311    -0.49559346     0.00000000
 Dipole moment /Debye                   0.89014547    -1.25959042     0.00000000

 Orbital energies for positive spin:

         1.1          2.1          3.1          4.1          5.1          6.1          7.1          8.1          9.1         10.1
    -19.102889   -10.217685   -10.148878   -10.148872   -10.143717    -1.016727    -0.786730    -0.690548    -0.689497    -0.566936

        11.1         12.1         13.1         14.1         15.1         16.1         17.1         18.1         19.1         20.1
     -0.487520    -0.450072    -0.447151    -0.410569    -0.396049    -0.378056    -0.365022    -0.353533    -0.346576    -0.318109

        21.1         22.1         23.1
     -0.269786     0.024089     0.070793

 Orbital energies for negative spin:

         1.1          2.1          3.1          4.1          5.1          6.1          7.1          8.1          9.1         10.1
    -19.102887   -10.217686   -10.148878   -10.148871   -10.143716    -1.016725    -0.786729    -0.690547    -0.689496    -0.566936

        11.1         12.1         13.1         14.1         15.1         16.1         17.1         18.1         19.1         20.1
     -0.487519    -0.450072    -0.447151    -0.410569    -0.396049    -0.378056    -0.365021    -0.353532    -0.346576    -0.318108

        21.1         22.1         23.1
     -0.269784     0.024090     0.070793

 HOMO    -21.1    -0.269784 =      -7.3412eV
 LUMO     22.1     0.024089 =       0.6555eV
 LUMO-HOMO         0.293873 =       7.9967eV

 EXPECTATION VALUE OF S**2:             0.00000000

 Occupation number threshold for canonical orbitals:  1.999000 (occupied),  0.001000 (virtual)

 Number of pseudo-canonical orbitals per symmetry:   21
 Number of active natural orbitals per symmetry:      0

 Natural orbitals saved to record    2200.2 (Orbital set 3)

 Orbital spaces for UNO-CAS (Min. occupation: 0.020  Max. occupation: 1.980):

 Closed:       21
 Active:        0


 **********************************************************************************************************************************
 DATASETS  * FILE   NREC   LENGTH (MB)   RECORD NAMES
              1      20      928.02       500      610      700      900      950      970     1000      129      960     1100   
                                          VAR    BASINP    GEOM    SYMINP    ZMAT    AOBASIS   BASIS     P2S    ABASIS      S 
                                         1400     1410     1200     1210     1080     1600     1650     1300     1700     1800   
                                           T        V       H0       H01     AOSYM     SMH    MOLCAS    ERIS     OPER     GRID   

              2       5        4.89       700     1000      520     1800     2200   
                                         GEOM     BASIS   MCVARS    GRID      UKS  

 PROGRAMS   *        TOTAL       UKS       INT
 CPU TIMES  *       132.11    104.74     27.22
 REAL TIME  *       164.28 SEC
 DISK USED  *         3.90 GB      
 **********************************************************************************************************************************


 PROGRAM * Intrinsic Basis Bonding Analysis (IBBA)          Author: G. Knizia

 Molecular orbitals read from record     2200.2  Type=UKS/ALPHA (state 1.1)
 Fock matrix read from record            2200.2  Type=UKS/TOTAL (state 1.1)
 Orbital energies read from record       2200.2  Type=UKS/ALPHA (state 1.1)
 Density matrix read from record         2200.2  Type=UKS/CHARGE (state 1.1)

 Number of core orbitals:           5 (   5 )
 Number of closed-shell orbitals:  16 (  16 )

 Basis set MINAO-AUTO-PP generated.      Number of basis functions:   35 

 Polarized AO type:                A = (O Ot + (1-O)(1-Ot)) P12
 Orthogonalization method:         Symmetric (Loewdin)
 Localization functional:          L = sum[A,i] <i|n_A|i>^4 -> max

 Localization group 1:  21 orbitals, occupancy  2.000
 Iterative localization: IB/PM,    7 iter; Final gradient 0.24E-08

 Bond order analysis:       [THRPRINT= 0.020]

   CEN ATOM   CEN ATOM     WIBERG.BO      RENORM.BO
     1   C  -   2   C       0.996424       0.993629
     1   C  -   5   H       0.963370       0.987157
     1   C  -   6   H       0.958503       0.981496
     1   C  -   7   H       0.958503       0.981496

     2   C  -   1   C       0.996424       0.993629
     2   C  -   9   C       0.995082       0.975763
     2   C  -   8   C       0.995082       0.975763
     2   C  -   3   O       0.933984       0.950363

     3   O  -   2   C       0.933984       0.950363
     3   O  -   4   H       0.862434       0.976444
     3   O  -   8   C       0.027624       0.014115
     3   O  -   9   C       0.027624       0.014115

     4   H  -   3   O       0.862434       0.976444

     5   H  -   1   C       0.963370       0.987157

     6   H  -   1   C       0.958503       0.981496

     7   H  -   1   C       0.958503       0.981496

     8   C  -   2   C       0.995082       0.975763
     8   C  -  14   H       0.962793       0.982149
     8   C  -  12   H       0.959165       0.981448
     8   C  -  10   H       0.959049       0.981393
     8   C  -   3   O       0.027624       0.014115

     9   C  -   2   C       0.995082       0.975763
     9   C  -  15   H       0.962793       0.982149
     9   C  -  13   H       0.959165       0.981448
     9   C  -  11   H       0.959049       0.981393
     9   C  -   3   O       0.027624       0.014115

    10   H  -   8   C       0.959049       0.981393

    11   H  -   9   C       0.959049       0.981393

    12   H  -   8   C       0.959165       0.981448

    13   H  -   9   C       0.959165       0.981448

    14   H  -   8   C       0.962793       0.982149

    15   H  -   9   C       0.962793       0.982149


 Valency analysis:

   CEN ATOM   TOT.VALENCE
     1   C       3.936677
     2   C       3.930500
     3   O       1.918513
     4   H       0.882006
     5   H       0.981828
     6   H       0.979155
     7   H       0.979155
     8   C       3.939370
     9   C       3.939370
    10   H       0.979196
    11   H       0.979196
    12   H       0.981052
    13   H       0.981052
    14   H       0.983392
    15   H       0.983392

 Total charge composition:

   CEN ATOM         s          p       ELECTRONS ->P.CHARGE
     1   C       3.04489    3.37138      6.41628   -0.41628
     2   C       2.94103    2.80105      5.74208    0.25792
     3   O       3.65072    4.92095      8.57167   -0.57167
     4   H       0.65650                 0.65650    0.34350
     5   H       0.86520                 0.86520    0.13480
     6   H       0.85562                 0.85562    0.14438
     7   H       0.85562                 0.85562    0.14438
     8   C       3.05116    3.37812      6.42928   -0.42928
     9   C       3.05116    3.37812      6.42928   -0.42928
    10   H       0.85576                 0.85576    0.14424
    11   H       0.85576                 0.85576    0.14424
    12   H       0.86235                 0.86235    0.13765
    13   H       0.86235                 0.86235    0.13765
    14   H       0.87113                 0.87113    0.12887
    15   H       0.87113                 0.87113    0.12887

 Total charge composition, AO contributions:

   CEN ATOM SHL      SPHERICAL COMPONENTS
     1   C  1s       1.99109
     1   C  2s       1.05381
     1   C  2p       1.03816    1.16039    1.17284

     2   C  1s       1.99272
     2   C  2s       0.94831
     2   C  2p       1.00625    0.78618    1.00862

     3   O  1s       1.99713
     3   O  2s       1.65359
     3   O  2p       1.47308    1.49166    1.95621

     4   H  1s       0.65650

     5   H  1s       0.86520

     6   H  1s       0.85562

     7   H  1s       0.85562

     8   C  1s       1.99119
     8   C  2s       1.05997
     8   C  2p       1.14239    1.14235    1.09338

     9   C  1s       1.99119
     9   C  2s       1.05997
     9   C  2p       1.14239    1.14235    1.09338

    10   H  1s       0.85576

    11   H  1s       0.85576

    12   H  1s       0.86235

    13   H  1s       0.86235

    14   H  1s       0.87113

    15   H  1s       0.87113

 Summary of localized orbital composition:   [THRPRINT= 0.020]

   ORB  GRP  ORB.ENERGY      CENTERS/CHARGES
     1   1   -18.941840      O  3   2.000
     2   1   -10.125606      C  2   2.000
     3   1   -10.033508      C  9   2.000
     4   1   -10.033508      C  8   2.000
     5   1   -10.027552      C  1   2.000
     6   1    -0.759554      O  3   1.345   H  4   0.645
     7   1    -0.716238      O  3   1.284   C  2   0.697
     8   1    -0.578177      O  3   1.982
     9   1    -0.572186      C  8   1.008   C  2   0.977
    10   1    -0.572186      C  9   1.008   C  2   0.977
    11   1    -0.571613      C  1   0.991   C  2   0.986   (other: 0.024)
    12   1    -0.504589      C  8   1.133   H 12   0.853
    13   1    -0.504589      C  9   1.133   H 13   0.853
    14   1    -0.502844      C  8   1.124   H 14   0.864
    15   1    -0.502844      C  9   1.124   H 15   0.864
    16   1    -0.500348      C  1   1.128   H  5   0.858
    17   1    -0.498707      C  9   1.142   H 11   0.848
    18   1    -0.498707      C  8   1.142   H 10   0.848
    19   1    -0.494107      C  1   1.141   H  6   0.848
    20   1    -0.494107      C  1   1.141   H  7   0.848
    21   1    -0.302259      O  3   1.956   (other: 0.044)

 Localized orbitals saved to record      2200.2  (orbital set 4)


 **********************************************************************************************************************************
 DATASETS  * FILE   NREC   LENGTH (MB)   RECORD NAMES
              1      20      928.02       500      610      700      900      950      970     1000      129      960     1100   
                                          VAR    BASINP    GEOM    SYMINP    ZMAT    AOBASIS   BASIS     P2S    ABASIS      S 
                                         1400     1410     1200     1210     1080     1600     1650     1300     1700     1800   
                                           T        V       H0       H01     AOSYM     SMH    MOLCAS    ERIS     OPER     GRID   

              2       5        5.27       700     1000      520     1800     2200   
                                         GEOM     BASIS   MCVARS    GRID      UKS  

 PROGRAMS   *        TOTAL      IBBA       UKS       INT
 CPU TIMES  *       132.18      0.07    104.74     27.22
 REAL TIME  *       164.45 SEC
 DISK USED  *         3.90 GB      
 **********************************************************************************************************************************
 Molecular orbitals read from record     2200.2  Type=UKS/LOCAL(IBO)  
 Occupation numbers read from record     2200.2  Type=UKS/LOCAL(IBO)  
 Orbital energies read from record       2200.2  Type=UKS/LOCAL(IBO)  
 Redundancy group numbers read from rec  2200.2  Type=UKS/BETA (state 1.1)

 IBBA/TZVP energy=      0.000000000000

        UKS-SCF 
   -233.68462661
 **********************************************************************************************************************************
 Molpro calculation terminated
