
 Primary working directories    : /tmp/sb13343
 Secondary working directories  : /tmp/sb13343
 Wavefunction directory         : /tmp/sb13343/
 Main file repository           : /tmp/sb13343/

 SHA1      : b4a5b34a9e711420743f49e6833241d17c61fb3c
 NAME      : 2099.9.b4a5b34
 ARCHNAME  : linux/x86_64_openmp
 FC        : /cm/shared/languages/GCC-6.1/bin/gfortran
 BLASLIB   : -lblas
 id        : simonbennie

 Nodes     nprocs
 node32-006    1

 Using customized tuning parameters: mindgm=1; mindgv=20; mindgc=4; mindgr=1; noblas=0; minvec=7
 default implementation of scratch files=df  

 memory,500,m
 geomtyp=xyz
 nosym
 noorient
 geometry={
 C         -1.53233        0.02247        0.00000
 C         -0.00192        0.01421        0.00000
 O          0.37239        1.40356        0.00000
 H          1.34248        1.44036        0.00000
 H         -1.92991       -0.99819        0.00000
 H         -1.90797        0.54382       -0.88653
 H         -1.90797        0.54382        0.88653
 C          0.54303       -0.66466       -1.26580
 C          0.54303       -0.66466        1.26580
 H          0.17836       -0.14752       -2.15943
 H          0.17836       -0.14752        2.15943
 H          0.23752       -1.71600       -1.32280
 H          0.23752       -1.71600        1.32280
 H          1.64084       -0.63767       -1.28032
 H          1.64084       -0.63767        1.28032
 }
 basis={ default,SV(P) }
 {uks,B3LYP3,direct;wf,42,1,0}
 {ibba,bonds=1}

 Variables initialized (895), CPU time= 0.01 sec
 Commands  initialized (725), CPU time= 0.01 sec, 591 directives.
 Default parameters read. Elapsed time= 2.02 sec

 Checking input...
 Passed
1


                                         ***  PROGRAM SYSTEM MOLPRO  ***
                                       Copyright, TTI GmbH Stuttgart, 2015
                                    Version 2099.9 linked May 26 2017 16:03:21


 **********************************************************************************************************************************
 LABEL *                                                                                 
  64 bit serial version                                                                  DATE: 12-Jun-17          TIME: 13:15:00  
 **********************************************************************************************************************************

 SHA1:             b4a5b34a9e711420743f49e6833241d17c61fb3c
 **********************************************************************************************************************************
 SETTING GEOMTYP        =    XYZ

 Variable memory set to  500000000 words,  buffer space 

 ZSYMEL=NOSYM

 SETTING BASIS          =    SV(P)


 Recomputing integrals since basis changed


 Using spherical harmonics

 Library entry C      S def2-SV(P)           selected for orbital group  1
 Library entry C      P def2-SV(P)           selected for orbital group  1
 Library entry C      D def2-SV(P)           selected for orbital group  1
 Library entry O      S def2-SV(P)           selected for orbital group  2
 Library entry O      P def2-SV(P)           selected for orbital group  2
 Library entry O      D def2-SV(P)           selected for orbital group  2
 Library entry H      S def2-SV(P)           selected for orbital group  3


 PROGRAM * SEWARD (Integral evaluation for generally contracted gaussian basis sets)     Author: Roland Lindh, 1990

 Geometry written to block  1 of record 700


 Point group  C1  



 ATOMIC COORDINATES

 NR  ATOM    CHARGE       X              Y              Z

   1  C       6.00   -2.895684032    0.042462146    0.000000000
   2  C       6.00   -0.003628274    0.026853008    0.000000000
   3  O       8.00    0.703715112    2.652343999    0.000000000
   4  H       1.00    2.536919528    2.721885921    0.000000000
   5  H       1.00   -3.647001345   -1.886305720    0.000000000
   6  H       1.00   -3.605540754    1.027670861   -1.675298901
   7  H       1.00   -3.605540754    1.027670861    1.675298901
   8  C       6.00    1.026177977   -1.256025366   -2.392015328
   9  C       6.00    1.026177977   -1.256025366    2.392015328
  10  H       1.00    0.337051552   -0.278772398   -4.080731285
  11  H       1.00    0.337051552   -0.278772398    4.080731285
  12  H       1.00    0.448847749   -3.242770030   -2.499729718
  13  H       1.00    0.448847749   -3.242770030    2.499729718
  14  H       1.00    3.100738214   -1.205021658   -2.419454152
  15  H       1.00    3.100738214   -1.205021658    2.419454152

 Bond lengths in Bohr (Angstrom)

 1-2  2.892097881  1-5  2.069933136  1-6  2.069096224  1-7  2.069096224  2-3  2.719106031
     ( 1.530432290)     ( 1.095361444)     ( 1.094918569)     ( 1.094918569)     ( 1.438888946)

  2- 8  2.903104402   2- 9  2.903104402   3- 4  1.834522965   8-10  2.069222119   8-12  2.071730422
       ( 1.536256691)       ( 1.536256691)       ( 0.970787746)       ( 1.094985190)       ( 1.096312526)

  8-14  2.075368508   9-11  2.069222119   9-13  2.071730422   9-15  2.075368508
       ( 1.098237719)       ( 1.094985190)       ( 1.096312526)       ( 1.098237719)

 Bond angles

  1-2-3  104.76902697   1-2-8  110.92255387   1-2-9  110.92255387   2-1-5  110.97328220

  2- 1- 6  110.22090701   2- 1- 7  110.22090701   2- 3- 4  107.25071562   2- 8-10  110.21836376

  2- 8-12  111.57747468   2- 8-14  110.77023896   2- 9-11  110.21836376   2- 9-13  111.57747468

  2- 9-15  110.77023896   3- 2- 8  109.53648747   3- 2- 9  109.53648747   5- 1- 6  108.61190457

  5- 1- 7  108.61190457   6- 1- 7  108.12870271   8- 2- 9  110.96453384  10- 8-12  108.52192632

 10- 8-14  108.08997829  11- 9-13  108.52192632  11- 9-15  108.08997829  12- 8-14  107.54424578

 13- 9-15  107.54424578

 NUCLEAR CHARGE:                   42
 NUMBER OF PRIMITIVE AOS:         165
 NUMBER OF SYMMETRY AOS:          160
 NUMBER OF CONTRACTIONS:           90   (  90A   )
 NUMBER OF CORE ORBITALS:           5   (   5A   )
 NUMBER OF VALENCE ORBITALS:       30   (  30A   )


 NUCLEAR REPULSION ENERGY  198.77359127


 Eigenvalues of metric

         1 0.179E-02 0.600E-02 0.603E-02 0.144E-01 0.286E-01 0.297E-01 0.300E-01 0.361E-01


 Contracted 2-electron integrals neglected if value below      1.0D-11
 AO integral compression algorithm  1   Integral accuracy      1.0D-11

     37.487 MB (compressed) written to integral file ( 49.6%)


 NUMBER OF SORTED TWO-ELECTRON INTEGRALS:    8386560.     BUFFER LENGTH:  32768
 NUMBER OF SEGMENTS:   1  SEGMENT LENGTH:    8386560      RECORD LENGTH: 524288

 Memory used in sort:       8.94 MW

 SORT1 READ     9478508. AND WROTE     7931434. INTEGRALS IN     23 RECORDS. CPU TIME:     0.12 SEC, REAL TIME:     0.46 SEC
 SORT2 READ     7931434. AND WROTE     8386560. INTEGRALS IN    143 RECORDS. CPU TIME:     0.26 SEC, REAL TIME:     0.34 SEC

 FILE SIZES:   FILE 1:    68.0 MBYTE,  FILE 4:    96.5 MBYTE,   TOTAL:    164.5 MBYTE

 OPERATOR DM      FOR CENTER  0  COORDINATES:    0.000000    0.000000    0.000000


 **********************************************************************************************************************************
 DATASETS  * FILE   NREC   LENGTH (MB)   RECORD NAMES
              1      19       63.39       500      610      700      900      950      970     1000      129      960     1100   
                                          VAR    BASINP    GEOM    SYMINP    ZMAT    AOBASIS   BASIS     P2S    ABASIS      S 
                                         1400     1410     1200     1210     1080     1600     1650     1300     1700   
                                           T        V       H0       H01     AOSYM     SMH    MOLCAS    ERIS     OPER   

 PROGRAMS   *        TOTAL       INT
 CPU TIMES  *         1.88      1.74
 REAL TIME  *         7.18 SEC
 DISK USED  *       165.03 MB      
 **********************************************************************************************************************************

 Density functional group B3LYP3=B88+DIRAC+LYP+VWN3
 Functional: B88(Automatically generated (new) B88)                            Gradient terms: 1
 Functional: DIRAC(Automatically generated (new) DIRAC)                        Gradient terms: 0
 Functional: LYP(Automatically generated (new) LYP)                            Gradient terms: 1
 Functional: VWN3(Automatically generated (new) VWN3)                          Gradient terms: 0
 Use grid at  1800.2


 Exact exchange will be calculated, factor:  0.2000

 Functional: B88                       Factor:  0.7200
 Functional: DIRAC                     Factor:  0.0800
 Functional: LYP                       Factor:  0.8100
 Functional: VWN3                      Factor:  0.1900

 Generated new metagrid on record  1800.2 with target accuracy 1.0D-06 and 53396 points in CPU time    1.7
 Computed new grid on record 1800.1 in CPU time    1.9
   75909 words reserved for DFT integration

 PROGRAM * UKS-SCF (Unrestricted Kohn-Sham)     Authors: W. Meyer, H.-J. Werner, P.J. Knowles, 1993

 NUMBER OF ELECTRONS:      21+   21-    SPACE SYMMETRY=1    SPIN SYMMETRY: Singlet 
 CONVERGENCE THRESHOLDS:    1.00E-05 (Density)    1.00E-06 (Energy)
 MAX. NUMBER OF ITERATIONS:       60
 INTERPOLATION TYPE:            DIIS
 INTERPOLATION STEPS:              2 (START)      1 (STEP)
 LEVEL SHIFTS:                 -0.20 (ALPHA)  -0.20 (BETA) 



 Use fine grid record 1800.2 for energy threshold  1.0D-06
 Orbital guess generated from atomic densities. Full valence occupancy:   21

 Molecular orbital dump at record        2200.2

 Initial alpha occupation  21
 Initial beta  occupation  21

 ITERATION    DDIFF          GRAD             ENERGY        2-EL.EN.            DIPOLE MOMENTS         DIIS
    1      0.000D+00      0.000D+00      -233.25535116    623.394357    0.74501   -0.85388    0.00000    0
    2      0.160D-01      0.718D-02      -233.43822505    604.137326    0.32916   -0.43532    0.00000    1
    3      0.494D-02      0.326D-02      -233.47130678    609.035645    0.41237   -0.53245    0.00000    2
    4      0.116D-02      0.487D-03      -233.47236246    608.871844    0.39765   -0.48056    0.00000    3
    5      0.918D-03      0.208D-03      -233.47270275    608.784556    0.39024   -0.47411    0.00000    4
    6      0.395D-03      0.484D-04      -233.47273517    608.766893    0.38804   -0.46914    0.00000    5
    7      0.719D-04      0.116D-04      -233.47273647    608.753182    0.38723   -0.46903    0.00000    6
    8      0.213D-04      0.624D-05      -233.47273670    608.758517    0.38723   -0.46934    0.00000    7
    9      0.770D-05      0.109D-05      -233.47273672    608.758192    0.38716   -0.46925    0.00000    6
   10      0.182D-05      0.251D-06      -233.47273672    608.757981    0.38715   -0.46928    0.00000    7

 Final alpha occupancy:  21
 Final beta  occupancy:  21

 !UKS STATE 1.1 Energy               -233.472736716126
 Nuclear energy                       198.77359127
 One-electron energy                 -709.09872910
 Two-electron energy                  304.37899075
 Density functional                   -27.52658963     B88=-32.51666803 DIRAC=-29.31102427 LYP= -1.37199196 VWN3= -3.46522752
 Virial quotient                       -1.00963742
 !UKS STATE 1.1 Dipole moment           0.38714908    -0.46927946     0.00000000
 Dipole moment /Debye                   0.98397036    -1.19271130     0.00000000

 Orbital energies for positive spin:

         1.1          2.1          3.1          4.1          5.1          6.1          7.1          8.1          9.1         10.1
    -19.116865   -10.238461   -10.170411   -10.170392   -10.164438    -0.999849    -0.778657    -0.685135    -0.683744    -0.563916

        11.1         12.1         13.1         14.1         15.1         16.1         17.1         18.1         19.1         20.1
     -0.487619    -0.451190    -0.449199    -0.411852    -0.399263    -0.380852    -0.369053    -0.354218    -0.349362    -0.317556

        21.1         22.1         23.1
     -0.265690     0.038125     0.087517

 Orbital energies for negative spin:

         1.1          2.1          3.1          4.1          5.1          6.1          7.1          8.1          9.1         10.1
    -19.116865   -10.238461   -10.170411   -10.170392   -10.164438    -0.999849    -0.778657    -0.685135    -0.683744    -0.563916

        11.1         12.1         13.1         14.1         15.1         16.1         17.1         18.1         19.1         20.1
     -0.487619    -0.451190    -0.449199    -0.411852    -0.399263    -0.380852    -0.369053    -0.354218    -0.349362    -0.317556

        21.1         22.1         23.1
     -0.265690     0.038125     0.087517

 HOMO     21.1    -0.265690 =      -7.2298eV
 LUMO    -22.1     0.038125 =       1.0374eV
 LUMO-HOMO         0.303815 =       8.2672eV

 EXPECTATION VALUE OF S**2:            -0.00000000

 Natural orbitals saved to record    2200.2 (Orbital set 3)

 Orbital spaces for UNO-CAS (Min. occupation: 0.020  Max. occupation: 1.980):

 Closed:       21
 Active:        0


 **********************************************************************************************************************************
 DATASETS  * FILE   NREC   LENGTH (MB)   RECORD NAMES
              1      20       65.10       500      610      700      900      950      970     1000      129      960     1100   
                                          VAR    BASINP    GEOM    SYMINP    ZMAT    AOBASIS   BASIS     P2S    ABASIS      S 
                                         1400     1410     1200     1210     1080     1600     1650     1300     1700     1800   
                                           T        V       H0       H01     AOSYM     SMH    MOLCAS    ERIS     OPER     GRID   

              2       5        3.34       700     1000      520     1800     2200   
                                         GEOM     BASIS   MCVARS    GRID      UKS  

 PROGRAMS   *        TOTAL       UKS       INT
 CPU TIMES  *        19.61     17.72      1.74
 REAL TIME  *        31.40 SEC
 DISK USED  *       165.03 MB      
 **********************************************************************************************************************************


 PROGRAM * Intrinsic Basis Bonding Analysis (IBBA)          Author: G. Knizia

 Molecular orbitals read from record     2200.2  Type=UKS/ALPHA (state 1.1)
 Fock matrix read from record            2200.2  Type=UKS/TOTAL (state 1.1)
 Orbital energies read from record       2200.2  Type=UKS/ALPHA (state 1.1)
 Density matrix read from record         2200.2  Type=UKS/CHARGE (state 1.1)

 Number of core orbitals:           5 (   5 )
 Number of closed-shell orbitals:  16 (  16 )

 Basis set MINAO-AUTO-PP generated.      Number of basis functions:   35 

 Polarized AO type:                A = (O Ot + (1-O)(1-Ot)) P12
 Orthogonalization method:         Symmetric (Loewdin)
 Localization functional:          L = sum[A,i] <i|n_A|i>^4 -> max

 Localization group 1:  21 orbitals, occupancy  2.000
 Iterative localization: IB/PM,    7 iter; Final gradient 0.29E-08

 Bond order analysis:       [THRPRINT= 0.020]

   CEN ATOM   CEN ATOM     WIBERG.BO      RENORM.BO
     1   C  -   2   C       0.994356       0.993339
     1   C  -   5   H       0.967560       0.987278
     1   C  -   6   H       0.962881       0.982212
     1   C  -   7   H       0.962881       0.982212

     2   C  -   1   C       0.994356       0.993339
     2   C  -   9   C       0.993583       0.975589
     2   C  -   8   C       0.993583       0.975589
     2   C  -   3   O       0.940356       0.954969

     3   O  -   2   C       0.940356       0.954969
     3   O  -   4   H       0.880928       0.977148
     3   O  -   9   C       0.027296       0.014024
     3   O  -   8   C       0.027296       0.014024

     4   H  -   3   O       0.880928       0.977148

     5   H  -   1   C       0.967560       0.987278

     6   H  -   1   C       0.962881       0.982212

     7   H  -   1   C       0.962881       0.982212

     8   C  -   2   C       0.993583       0.975589
     8   C  -  14   H       0.966760       0.982741
     8   C  -  12   H       0.963493       0.982271
     8   C  -  10   H       0.963341       0.981975
     8   C  -   3   O       0.027296       0.014024

     9   C  -   2   C       0.993583       0.975589
     9   C  -  15   H       0.966760       0.982741
     9   C  -  13   H       0.963493       0.982271
     9   C  -  11   H       0.963341       0.981975
     9   C  -   3   O       0.027296       0.014024

    10   H  -   8   C       0.963341       0.981975

    11   H  -   9   C       0.963341       0.981975

    12   H  -   8   C       0.963493       0.982271

    13   H  -   9   C       0.963493       0.982271

    14   H  -   8   C       0.966760       0.982741

    15   H  -   9   C       0.966760       0.982741


 Valency analysis:

   CEN ATOM   TOT.VALENCE
     1   C       3.946582
     2   C       3.932993
     3   O       1.940907
     4   H       0.899826
     5   H       0.986075
     6   H       0.983535
     7   H       0.983535
     8   C       3.948898
     9   C       3.948898
    10   H       0.983556
    11   H       0.983556
    12   H       0.985116
    13   H       0.985116
    14   H       0.987390
    15   H       0.987390

 Total charge composition:

   CEN ATOM         s          p       ELECTRONS ->P.CHARGE
     1   C       3.01675    3.35086      6.36761   -0.36761
     2   C       2.92156    2.82649      5.74805    0.25195
     3   O       3.63189    4.90426      8.53615   -0.53615
     4   H       0.68350                 0.68350    0.31650
     5   H       0.88200                 0.88200    0.11800
     6   H       0.87169                 0.87169    0.12831
     7   H       0.87169                 0.87169    0.12831
     8   C       3.02309    3.35910      6.38219   -0.38219
     9   C       3.02309    3.35910      6.38219   -0.38219
    10   H       0.87177                 0.87177    0.12823
    11   H       0.87177                 0.87177    0.12823
    12   H       0.87800                 0.87800    0.12200
    13   H       0.87800                 0.87800    0.12200
    14   H       0.88771                 0.88771    0.11229
    15   H       0.88771                 0.88771    0.11229

 Total charge composition, AO contributions:

   CEN ATOM SHL      SPHERICAL COMPONENTS
     1   C  1s       1.99111
     1   C  2s       1.02564
     1   C  2p       1.04052    1.14868    1.16165

     2   C  1s       1.99270
     2   C  2s       0.92886
     2   C  2p       1.01519    0.79680    1.01451

     3   O  1s       1.99712
     3   O  2s       1.63477
     3   O  2p       1.45646    1.49110    1.95669

     4   H  1s       0.68350

     5   H  1s       0.88200

     6   H  1s       0.87169

     7   H  1s       0.87169

     8   C  1s       1.99121
     8   C  2s       1.03188
     8   C  2p       1.13225    1.13440    1.09245

     9   C  1s       1.99121
     9   C  2s       1.03188
     9   C  2p       1.13225    1.13440    1.09245

    10   H  1s       0.87177

    11   H  1s       0.87177

    12   H  1s       0.87800

    13   H  1s       0.87800

    14   H  1s       0.88771

    15   H  1s       0.88771

 Summary of localized orbital composition:   [THRPRINT= 0.020]

   ORB  GRP  ORB.ENERGY      CENTERS/CHARGES
     1   1   -18.964732      O  3   2.000
     2   1   -10.147073      C  2   2.000
     3   1   -10.057121      C  8   2.000
     4   1   -10.057121      C  9   2.000
     5   1   -10.050373      C  1   2.000
     6   1    -0.756440      O  3   1.319   H  4   0.672
     7   1    -0.718059      O  3   1.275   C  2   0.708
     8   1    -0.571945      C  8   1.008   C  2   0.977
     9   1    -0.571945      C  9   1.008   C  2   0.977
    10   1    -0.570596      C  1   0.989   C  2   0.987   (other: 0.024)
    11   1    -0.544236      O  3   1.982
    12   1    -0.504937      C  8   1.118   H 12   0.869
    13   1    -0.504937      C  9   1.118   H 13   0.869
    14   1    -0.504121      C  9   1.108   H 15   0.881
    15   1    -0.504121      C  8   1.108   H 14   0.881
    16   1    -0.500108      C  1   1.112   H  5   0.875
    17   1    -0.498838      C  8   1.126   H 10   0.864
    18   1    -0.498838      C  9   1.126   H 11   0.864
    19   1    -0.493286      C  1   1.125   H  7   0.864
    20   1    -0.493286      C  1   1.125   H  6   0.864
    21   1    -0.295691      O  3   1.957   (other: 0.043)

 Localized orbitals saved to record      2200.2  (orbital set 4)


 **********************************************************************************************************************************
 DATASETS  * FILE   NREC   LENGTH (MB)   RECORD NAMES
              1      20       65.10       500      610      700      900      950      970     1000      129      960     1100   
                                          VAR    BASINP    GEOM    SYMINP    ZMAT    AOBASIS   BASIS     P2S    ABASIS      S 
                                         1400     1410     1200     1210     1080     1600     1650     1300     1700     1800   
                                           T        V       H0       H01     AOSYM     SMH    MOLCAS    ERIS     OPER     GRID   

              2       5        3.40       700     1000      520     1800     2200   
                                         GEOM     BASIS   MCVARS    GRID      UKS  

 PROGRAMS   *        TOTAL      IBBA       UKS       INT
 CPU TIMES  *        19.65      0.04     17.72      1.74
 REAL TIME  *        32.01 SEC
 DISK USED  *       165.03 MB      
 **********************************************************************************************************************************
 Molecular orbitals read from record     2200.2  Type=UKS/LOCAL(IBO)  
 Occupation numbers read from record     2200.2  Type=UKS/LOCAL(IBO)  
 Orbital energies read from record       2200.2  Type=UKS/LOCAL(IBO)  
 Redundancy group numbers read from rec  2200.2  Type=UKS/BETA (state 1.1)

 IBBA/SV(P) energy=      0.000000000000

        UKS-SCF 
   -233.47273672
 **********************************************************************************************************************************
 Molpro calculation terminated
