
 Primary working directories    : /tmp/sb13343
 Secondary working directories  : /tmp/sb13343
 Wavefunction directory         : /panfs/panasas01/chem/sb13343/wfu/
 Main file repository           : /tmp/sb13343/

 SHA1      : b4a5b34a9e711420743f49e6833241d17c61fb3c
 NAME      : 2099.9.b4a5b34
 ARCHNAME  : linux/x86_64_openmp
 FC        : /cm/shared/languages/GCC-6.1/bin/gfortran
 BLASLIB   : -lblas
 id        : simonbennie

 Nodes     nprocs
 node32-002    1

 Using customized tuning parameters: mindgm=1; mindgv=20; mindgc=4; mindgr=1; noblas=0; minvec=7
 default implementation of scratch files=df  

 memory,500,m
 geomtyp=xyz
 nosym
 noorient
 geometry={
 C         -1.53233        0.02247        0.00000
 C         -0.00192        0.01421        0.00000
 O          0.37239        1.40356        0.00000
 H          1.34248        1.44036        0.00000
 H         -1.92991       -0.99819        0.00000
 H         -1.90797        0.54382       -0.88653
 H         -1.90797        0.54382        0.88653
 C          0.54303       -0.66466       -1.26580
 C          0.54303       -0.66466        1.26580
 H          0.17836       -0.14752       -2.15943
 H          0.17836       -0.14752        2.15943
 H          0.23752       -1.71600       -1.32280
 H          0.23752       -1.71600        1.32280
 H          1.64084       -0.63767       -1.28032
 H          1.64084       -0.63767        1.28032
 }
 basis={ default,sto-3g }
 {uks,B-VWN,direct;wf,42,1,0}
 {ibba,bonds=1}

 Variables initialized (895), CPU time= 0.01 sec
 Commands  initialized (725), CPU time= 0.01 sec, 591 directives.
 Default parameters read. Elapsed time= 0.12 sec

 Checking input...
 Passed
1


                                         ***  PROGRAM SYSTEM MOLPRO  ***
                                       Copyright, TTI GmbH Stuttgart, 2015
                                    Version 2099.9 linked May 26 2017 16:03:21


 **********************************************************************************************************************************
 LABEL *                                                                                 
  64 bit serial version                                                                  DATE: 09-Jun-17          TIME: 03:16:31  
 **********************************************************************************************************************************

 SHA1:             b4a5b34a9e711420743f49e6833241d17c61fb3c
 **********************************************************************************************************************************
 SETTING GEOMTYP        =    XYZ

 Variable memory set to  500000000 words,  buffer space 

 ZSYMEL=NOSYM

 SETTING BASIS          =    STO-3G


 Recomputing integrals since basis changed


 Using spherical harmonics

 Library entry C      S STO-3G               selected for orbital group  1
 Library entry C      P STO-3G               selected for orbital group  1
 Library entry O      S STO-3G               selected for orbital group  2
 Library entry O      P STO-3G               selected for orbital group  2
 Library entry H      S STO-3G               selected for orbital group  3


 PROGRAM * SEWARD (Integral evaluation for generally contracted gaussian basis sets)     Author: Roland Lindh, 1990

 Geometry written to block  1 of record 700


 Point group  C1  



 ATOMIC COORDINATES

 NR  ATOM    CHARGE       X              Y              Z

   1  C       6.00   -2.895684032    0.042462146    0.000000000
   2  C       6.00   -0.003628274    0.026853008    0.000000000
   3  O       8.00    0.703715112    2.652343999    0.000000000
   4  H       1.00    2.536919528    2.721885921    0.000000000
   5  H       1.00   -3.647001345   -1.886305720    0.000000000
   6  H       1.00   -3.605540754    1.027670861   -1.675298901
   7  H       1.00   -3.605540754    1.027670861    1.675298901
   8  C       6.00    1.026177977   -1.256025366   -2.392015328
   9  C       6.00    1.026177977   -1.256025366    2.392015328
  10  H       1.00    0.337051552   -0.278772398   -4.080731285
  11  H       1.00    0.337051552   -0.278772398    4.080731285
  12  H       1.00    0.448847749   -3.242770030   -2.499729718
  13  H       1.00    0.448847749   -3.242770030    2.499729718
  14  H       1.00    3.100738214   -1.205021658   -2.419454152
  15  H       1.00    3.100738214   -1.205021658    2.419454152

 Bond lengths in Bohr (Angstrom)

 1-2  2.892097881  1-5  2.069933136  1-6  2.069096224  1-7  2.069096224  2-3  2.719106031
     ( 1.530432290)     ( 1.095361444)     ( 1.094918569)     ( 1.094918569)     ( 1.438888946)

  2- 8  2.903104402   2- 9  2.903104402   3- 4  1.834522965   8-10  2.069222119   8-12  2.071730422
       ( 1.536256691)       ( 1.536256691)       ( 0.970787746)       ( 1.094985190)       ( 1.096312526)

  8-14  2.075368508   9-11  2.069222119   9-13  2.071730422   9-15  2.075368508
       ( 1.098237719)       ( 1.094985190)       ( 1.096312526)       ( 1.098237719)

 Bond angles

  1-2-3  104.76902697   1-2-8  110.92255387   1-2-9  110.92255387   2-1-5  110.97328220

  2- 1- 6  110.22090701   2- 1- 7  110.22090701   2- 3- 4  107.25071562   2- 8-10  110.21836376

  2- 8-12  111.57747468   2- 8-14  110.77023896   2- 9-11  110.21836376   2- 9-13  111.57747468

  2- 9-15  110.77023896   3- 2- 8  109.53648747   3- 2- 9  109.53648747   5- 1- 6  108.61190457

  5- 1- 7  108.61190457   6- 1- 7  108.12870271   8- 2- 9  110.96453384  10- 8-12  108.52192632

 10- 8-14  108.08997829  11- 9-13  108.52192632  11- 9-15  108.08997829  12- 8-14  107.54424578

 13- 9-15  107.54424578

 NUCLEAR CHARGE:                   42
 NUMBER OF PRIMITIVE AOS:         105
 NUMBER OF SYMMETRY AOS:          105
 NUMBER OF CONTRACTIONS:           35   (  35A   )
 NUMBER OF CORE ORBITALS:           5   (   5A   )
 NUMBER OF VALENCE ORBITALS:       30   (  30A   )


 NUCLEAR REPULSION ENERGY  198.77359127


 Eigenvalues of metric

         1 0.207E+00 0.227E+00 0.228E+00 0.304E+00 0.354E+00 0.360E+00 0.361E+00 0.363E+00


 Contracted 2-electron integrals neglected if value below      1.0D-11
 AO integral compression algorithm  1   Integral accuracy      1.0D-11

     1.573 MB (compressed) written to integral file ( 87.8%)


 NUMBER OF SORTED TWO-ELECTRON INTEGRALS:     198765.     BUFFER LENGTH:  32768
 NUMBER OF SEGMENTS:   1  SEGMENT LENGTH:     198765      RECORD LENGTH: 524288

 Memory used in sort:       0.76 MW

 SORT1 READ      224962. AND WROTE      188577. INTEGRALS IN      1 RECORDS. CPU TIME:     0.00 SEC, REAL TIME:     0.02 SEC
 SORT2 READ      188577. AND WROTE      198765. INTEGRALS IN      6 RECORDS. CPU TIME:     0.02 SEC, REAL TIME:     0.04 SEC

 FILE SIZES:   FILE 1:    31.8 MBYTE,  FILE 4:     4.2 MBYTE,   TOTAL:     36.0 MBYTE

 OPERATOR DM      FOR CENTER  0  COORDINATES:    0.000000    0.000000    0.000000


 **********************************************************************************************************************************
 DATASETS  * FILE   NREC   LENGTH (MB)   RECORD NAMES
              1      19       31.10       500      610      700      900      950      970     1000      129      960     1100   
                                          VAR    BASINP    GEOM    SYMINP    ZMAT    AOBASIS   BASIS     P2S    ABASIS      S 
                                         1400     1410     1200     1210     1080     1600     1650     1300     1700   
                                           T        V       H0       H01     AOSYM     SMH    MOLCAS    ERIS     OPER   

 PROGRAMS   *        TOTAL       INT
 CPU TIMES  *         0.64      0.49
 REAL TIME  *         2.75 SEC
 DISK USED  *        36.55 MB      
 **********************************************************************************************************************************

 Density functional group B-VWN=B88+VWN5
 Functional: B88(Automatically generated (new) B88)                            Gradient terms: 1
 Functional: VWN5(Automatically generated (new) VWN5)                          Gradient terms: 0
 Use grid at  1800.2

 Functional: B88                       Factor:  1.0000
 Functional: VWN5                      Factor:  1.0000

 Generated new metagrid on record  1800.2 with target accuracy 1.0D-06 and 53396 points in CPU time    1.7
 Computed new grid on record 1800.1 in CPU time    1.8
   32369 words reserved for DFT integration

 PROGRAM * UKS-SCF (Unrestricted Kohn-Sham)     Authors: W. Meyer, H.-J. Werner, P.J. Knowles, 1993

 NUMBER OF ELECTRONS:      21+   21-    SPACE SYMMETRY=1    SPIN SYMMETRY: Singlet 
 CONVERGENCE THRESHOLDS:    1.00E-05 (Density)    1.00E-06 (Energy)
 MAX. NUMBER OF ITERATIONS:       60
 INTERPOLATION TYPE:            DIIS
 INTERPOLATION STEPS:              2 (START)      1 (STEP)
 LEVEL SHIFTS:                 -0.20 (ALPHA)  -0.20 (BETA) 



 Use fine grid record 1800.2 for energy threshold  1.0D-06
 Orbital guess generated from atomic densities. Full valence occupancy:   21

 Molecular orbital dump at record        2200.2

 Initial alpha occupation  21
 Initial beta  occupation  21

 ITERATION    DDIFF          GRAD             ENERGY        2-EL.EN.            DIPOLE MOMENTS         DIIS
    1      0.000D+00      0.000D+00      -231.52127939    639.755904    0.77046   -1.06691    0.00000    0
    2      0.610D-01      0.196D-01      -231.84971451    620.712685    0.22253   -0.32177    0.00000    1
    3      0.102D-01      0.406D-02      -231.86225968    623.466323    0.30864   -0.35237    0.00000    2
    4      0.103D-02      0.414D-03      -231.86243857    623.424668    0.31604   -0.36104    0.00000    3
    5      0.511D-03      0.130D-03      -231.86246598    623.418929    0.31615   -0.35404    0.00000    4
    6      0.145D-03      0.310D-04      -231.86246794    623.417291    0.31649   -0.35380    0.00000    5
    7      0.325D-04      0.689D-05      -231.86246799    623.417947    0.31621   -0.35345    0.00000    5
    8      0.110D-04      0.461D-05      -231.86246801    623.417503    0.31628   -0.35358    0.00000    6
    9      0.168D-05      0.375D-06      -231.86246801    623.417578    0.31629   -0.35357    0.00000    6
   10      0.566D-06      0.187D-06      -231.86246801    623.417540    0.31628   -0.35357    0.00000    6

 Final alpha occupancy:  21
 Final beta  occupancy:  21

 !UKS STATE 1.1 Energy               -231.862468005435
 Nuclear energy                       198.77359127
 One-electron energy                 -707.07891259
 Two-electron energy                  311.70877021
 Density functional                   -35.26591690     B88=-32.59940508 VWN5= -2.66651182
 Virial quotient                       -1.02077718
 !UKS STATE 1.1 Dipole moment           0.31628346    -0.35357137     0.00000000
 Dipole moment /Debye                   0.80385973    -0.89862993     0.00000000

 Orbital energies for positive spin:

         1.1          2.1          3.1          4.1          5.1          6.1          7.1          8.1          9.1         10.1
    -18.548439    -9.848963    -9.789361    -9.789112    -9.789026    -0.872628    -0.683668    -0.603121    -0.602163    -0.474832

        11.1         12.1         13.1         14.1         15.1         16.1         17.1         18.1         19.1         20.1
     -0.400502    -0.373597    -0.373147    -0.333954    -0.329604    -0.306723    -0.306259    -0.274892    -0.271404    -0.171347

        21.1         22.1         23.1
     -0.087330     0.232372     0.290957

 Orbital energies for negative spin:

         1.1          2.1          3.1          4.1          5.1          6.1          7.1          8.1          9.1         10.1
    -18.548439    -9.848963    -9.789361    -9.789112    -9.789026    -0.872628    -0.683668    -0.603121    -0.602163    -0.474832

        11.1         12.1         13.1         14.1         15.1         16.1         17.1         18.1         19.1         20.1
     -0.400502    -0.373597    -0.373147    -0.333954    -0.329604    -0.306723    -0.306259    -0.274892    -0.271404    -0.171347

        21.1         22.1         23.1
     -0.087330     0.232372     0.290957

 HOMO     21.1    -0.087330 =      -2.3764eV
 LUMO     22.1     0.232372 =       6.3232eV
 LUMO-HOMO         0.319702 =       8.6995eV

 EXPECTATION VALUE OF S**2:            -0.00000000

 Natural orbitals saved to record    2200.2 (Orbital set 3)

 Orbital spaces for UNO-CAS (Min. occupation: 0.020  Max. occupation: 1.980):

 Closed:       21
 Active:        0


 **********************************************************************************************************************************
 DATASETS  * FILE   NREC   LENGTH (MB)   RECORD NAMES
              1      20       32.81       500      610      700      900      950      970     1000      129      960     1100   
                                          VAR    BASINP    GEOM    SYMINP    ZMAT    AOBASIS   BASIS     P2S    ABASIS      S 
                                         1400     1410     1200     1210     1080     1600     1650     1300     1700     1800   
                                           T        V       H0       H01     AOSYM     SMH    MOLCAS    ERIS     OPER     GRID   

              2       5        3.05       700     1000      520     1800     2200   
                                         GEOM     BASIS   MCVARS    GRID      UKS  

 PROGRAMS   *        TOTAL       UKS       INT
 CPU TIMES  *         7.02      6.37      0.49
 REAL TIME  *        12.90 SEC
 DISK USED  *        36.55 MB      
 **********************************************************************************************************************************


 PROGRAM * Intrinsic Basis Bonding Analysis (IBBA)          Author: G. Knizia

 Molecular orbitals read from record     2200.2  Type=UKS/ALPHA (state 1.1)
 Fock matrix read from record            2200.2  Type=UKS/TOTAL (state 1.1)
 Orbital energies read from record       2200.2  Type=UKS/ALPHA (state 1.1)
 Density matrix read from record         2200.2  Type=UKS/CHARGE (state 1.1)

 Number of core orbitals:           5 (   5 )
 Number of closed-shell orbitals:  16 (  16 )

 Basis set MINAO-AUTO-PP generated.      Number of basis functions:   35 

 Polarized AO type:                A = (O Ot + (1-O)(1-Ot)) P12
 Orthogonalization method:         Symmetric (Loewdin)
 Localization functional:          L = sum[A,i] <i|n_A|i>^4 -> max

 Localization group 1:  21 orbitals, occupancy  2.000
 Iterative localization: IB/PM,    7 iter; Final gradient 0.12E-08

 Bond order analysis:       [THRPRINT= 0.020]

   CEN ATOM   CEN ATOM     WIBERG.BO      RENORM.BO
     1   C  -   2   C       0.990166       0.985439
     1   C  -   5   H       0.968004       0.989800
     1   C  -   6   H       0.964619       0.986841
     1   C  -   7   H       0.964619       0.986841

     2   C  -   3   O       1.003232       0.982672
     2   C  -   1   C       0.990166       0.985439
     2   C  -   8   C       0.985302       0.959114
     2   C  -   9   C       0.985302       0.959114

     3   O  -   2   C       1.003232       0.982672
     3   O  -   4   H       0.930630       0.981330
     3   O  -   9   C       0.029484       0.015249
     3   O  -   8   C       0.029484       0.015249

     4   H  -   3   O       0.930630       0.981330

     5   H  -   1   C       0.968004       0.989800

     6   H  -   1   C       0.964619       0.986841

     7   H  -   1   C       0.964619       0.986841

     8   C  -   2   C       0.985302       0.959114
     8   C  -  14   H       0.967366       0.986065
     8   C  -  12   H       0.965749       0.986937
     8   C  -  10   H       0.965477       0.986525
     8   C  -   3   O       0.029484       0.015249

     9   C  -   2   C       0.985302       0.959114
     9   C  -  15   H       0.967366       0.986065
     9   C  -  13   H       0.965749       0.986937
     9   C  -  11   H       0.965477       0.986525
     9   C  -   3   O       0.029484       0.015249

    10   H  -   8   C       0.965477       0.986525

    11   H  -   9   C       0.965477       0.986525

    12   H  -   8   C       0.965749       0.986937

    13   H  -   9   C       0.965749       0.986937

    14   H  -   8   C       0.967366       0.986065

    15   H  -   9   C       0.967366       0.986065


 Valency analysis:

   CEN ATOM   TOT.VALENCE
     1   C       3.938183
     2   C       3.973112
     3   O       2.044568
     4   H       0.948601
     5   H       0.984084
     6   H       0.982572
     7   H       0.982572
     8   C       3.940961
     9   C       3.940961
    10   H       0.983187
    11   H       0.983187
    12   H       0.983741
    13   H       0.983741
    14   H       0.985490
    15   H       0.985490

 Total charge composition:

   CEN ATOM         s          p       ELECTRONS ->P.CHARGE
     1   C       2.99908    3.38035      6.37943   -0.37943
     2   C       2.94722    2.92975      5.87697    0.12303
     3   O       3.68830    4.64235      8.33065   -0.33065
     4   H       0.77329                 0.77329    0.22671
     5   H       0.87384                 0.87384    0.12616
     6   H       0.86798                 0.86798    0.13202
     7   H       0.86798                 0.86798    0.13202
     8   C       3.00429    3.38828      6.39256   -0.39256
     9   C       3.00429    3.38828      6.39256   -0.39256
    10   H       0.87033                 0.87033    0.12967
    11   H       0.87033                 0.87033    0.12967
    12   H       0.87249                 0.87249    0.12751
    13   H       0.87249                 0.87249    0.12751
    14   H       0.87954                 0.87954    0.12046
    15   H       0.87954                 0.87954    0.12046

 Total charge composition, AO contributions:

   CEN ATOM SHL      SPHERICAL COMPONENTS
     1   C  1s       1.99194
     1   C  2s       1.00714
     1   C  2p       1.04924    1.16162    1.16949

     2   C  1s       1.99334
     2   C  2s       0.95388
     2   C  2p       1.02897    0.87414    1.02663

     3   O  1s       1.99735
     3   O  2s       1.69095
     3   O  2p       1.34494    1.34574    1.95168

     4   H  1s       0.77329

     5   H  1s       0.87384

     6   H  1s       0.86798

     7   H  1s       0.86798

     8   C  1s       1.99204
     8   C  2s       1.01225
     8   C  2p       1.14438    1.14531    1.09859

     9   C  1s       1.99204
     9   C  2s       1.01225
     9   C  2p       1.14438    1.14531    1.09859

    10   H  1s       0.87033

    11   H  1s       0.87033

    12   H  1s       0.87249

    13   H  1s       0.87249

    14   H  1s       0.87954

    15   H  1s       0.87954

 Summary of localized orbital composition:   [THRPRINT= 0.020]

   ORB  GRP  ORB.ENERGY      CENTERS/CHARGES
     1   1   -18.377573      O  3   2.000
     2   1    -9.757529      C  2   2.000
     3   1    -9.679778      C  8   2.000
     4   1    -9.679778      C  9   2.000
     5   1    -9.679190      C  1   2.000
     6   1    -0.609083      O  3   1.225   H  4   0.765
     7   1    -0.563562      O  3   1.163   C  2   0.820
     8   1    -0.484160      C  2   0.994   C  1   0.984   (other: 0.023)
     9   1    -0.483540      C  8   0.999   C  2   0.987
    10   1    -0.483540      C  9   0.999   C  2   0.987
    11   1    -0.448244      O  3   1.985
    12   1    -0.434518      C  9   1.118   H 15   0.873
    13   1    -0.434518      C  8   1.118   H 14   0.873
    14   1    -0.433121      C  9   1.125   H 13   0.865
    15   1    -0.433121      C  8   1.125   H 12   0.865
    16   1    -0.431824      C  1   1.123   H  5   0.867
    17   1    -0.430337      C  9   1.128   H 11   0.863
    18   1    -0.430337      C  8   1.128   H 10   0.863
    19   1    -0.426162      C  1   1.130   H  6   0.861
    20   1    -0.426162      C  1   1.130   H  7   0.861
    21   1    -0.103999      O  3   1.952   C  2   0.023   (other: 0.026)

 Localized orbitals saved to record      2200.2  (orbital set 4)


 **********************************************************************************************************************************
 DATASETS  * FILE   NREC   LENGTH (MB)   RECORD NAMES
              1      20       32.81       500      610      700      900      950      970     1000      129      960     1100   
                                          VAR    BASINP    GEOM    SYMINP    ZMAT    AOBASIS   BASIS     P2S    ABASIS      S 
                                         1400     1410     1200     1210     1080     1600     1650     1300     1700     1800   
                                           T        V       H0       H01     AOSYM     SMH    MOLCAS    ERIS     OPER     GRID   

              2       5        3.06       700     1000      520     1800     2200   
                                         GEOM     BASIS   MCVARS    GRID      UKS  

 PROGRAMS   *        TOTAL      IBBA       UKS       INT
 CPU TIMES  *         7.05      0.03      6.37      0.49
 REAL TIME  *        13.07 SEC
 DISK USED  *        36.55 MB      
 **********************************************************************************************************************************
 Molecular orbitals read from record     2200.2  Type=UKS/LOCAL(IBO)  
 Occupation numbers read from record     2200.2  Type=UKS/LOCAL(IBO)  
 Orbital energies read from record       2200.2  Type=UKS/LOCAL(IBO)  
 Redundancy group numbers read from rec  2200.2  Type=UKS/BETA (state 1.1)

 IBBA/STO-3G energy=      0.000000000000

        UKS-SCF 
   -231.86246801
 **********************************************************************************************************************************
 Molpro calculation terminated
