
 Primary working directories    : /tmp/sb13343
 Secondary working directories  : /tmp/sb13343
 Wavefunction directory         : /panfs/panasas01/chem/sb13343/wfu/
 Main file repository           : /tmp/sb13343/

 SHA1      : b4a5b34a9e711420743f49e6833241d17c61fb3c
 NAME      : 2099.9.b4a5b34
 ARCHNAME  : linux/x86_64_openmp
 FC        : /cm/shared/languages/GCC-6.1/bin/gfortran
 BLASLIB   : -lblas
 id        : simonbennie

 Nodes     nprocs
 node32-018    1

 Using customized tuning parameters: mindgm=1; mindgv=20; mindgc=4; mindgr=1; noblas=0; minvec=7
 default implementation of scratch files=df  

 memory,500,m
 geomtyp=xyz
 nosym
 noorient
 geometry={
 C          0.00000        0.00000        0.00000
 C          1.54025       -0.00009       -0.00004
 C         -0.51333        1.45219       -0.00005
 C         -0.51349       -0.72611       -1.25756
 C         -0.51342       -0.72599        1.25765
 H         -1.60999        1.48489       -0.00002
 H         -1.61015       -0.74237       -1.28580
 H         -1.61008       -0.74225        1.28596
 H         -0.16312        1.99638        0.88591
 H         -0.16316        1.99630       -0.88608
 H         -0.16333       -0.23096       -2.17186
 H         -0.16339       -1.76551       -1.28580
 H         -0.16332       -1.76539        1.28596
 H         -0.16320       -0.23077        2.17189
 H          1.93652       -1.02316       -0.00001
 H          1.93658        0.51138       -0.88607
 H          1.93663        0.51146        0.88592
 }
 basis={ default,sto-3g }
 {uks,B3LYP3,direct;wf,42,1,0}
 {ibba,bonds=1}

 Variables initialized (895), CPU time= 0.00 sec
 Commands  initialized (725), CPU time= 0.02 sec, 591 directives.
 Default parameters read. Elapsed time= 0.06 sec

 Checking input...
 Passed
1


                                         ***  PROGRAM SYSTEM MOLPRO  ***
                                       Copyright, TTI GmbH Stuttgart, 2015
                                    Version 2099.9 linked May 26 2017 16:03:21


 **********************************************************************************************************************************
 LABEL *                                                                                 
  64 bit serial version                                                                  DATE: 08-Jun-17          TIME: 22:02:36  
 **********************************************************************************************************************************

 SHA1:             b4a5b34a9e711420743f49e6833241d17c61fb3c
 **********************************************************************************************************************************
 SETTING GEOMTYP        =    XYZ

 Variable memory set to  500000000 words,  buffer space 

 ZSYMEL=NOSYM

 SETTING BASIS          =    STO-3G


 Recomputing integrals since basis changed


 Using spherical harmonics

 Library entry C      S STO-3G               selected for orbital group  1
 Library entry C      P STO-3G               selected for orbital group  1
 Library entry H      S STO-3G               selected for orbital group  2


 PROGRAM * SEWARD (Integral evaluation for generally contracted gaussian basis sets)     Author: Roland Lindh, 1990

 Geometry written to block  1 of record 700


 Point group  C1  



 ATOMIC COORDINATES

 NR  ATOM    CHARGE       X              Y              Z

   1  C       6.00    0.000000000    0.000000000    0.000000000
   2  C       6.00    2.910650663   -0.000170075   -0.000075589
   3  C       6.00   -0.970053112    2.744241381   -0.000094486
   4  C       6.00   -0.970355468   -1.372149036   -2.376443985
   5  C       6.00   -0.970223187   -1.371922269    2.376614061
   6  H       1.00   -3.042440163    2.806035425   -0.000037795
   7  H       1.00   -3.042742519   -1.402875983   -2.429809851
   8  H       1.00   -3.042610239   -1.402649216    2.430112207
   9  H       1.00   -0.308252125    3.772611441    1.674127271
  10  H       1.00   -0.308327714    3.772460262   -1.674448524
  11  H       1.00   -0.308648968   -0.436451146   -4.104220581
  12  H       1.00   -0.308762351   -3.336330370   -2.429809851
  13  H       1.00   -0.308630071   -3.336103603    2.430112207
  14  H       1.00   -0.308403304   -0.436092098    4.104277273
  15  H       1.00    3.659492435   -1.933492182   -0.000018897
  16  H       1.00    3.659605818    0.966368146   -1.674429627
  17  H       1.00    3.659700305    0.966519324    1.674146168

 Bond lengths in Bohr (Angstrom)

  1- 2  2.910650669   1- 3  2.910646630   1- 4  2.910647475   1- 5  2.910635350   2-15  2.073282028
       ( 1.540250003)       ( 1.540247866)       ( 1.540248313)       ( 1.540241896)       ( 1.097133601)

  2-16  2.073304464   2-17  2.073302258   3- 6  2.073308129   3- 9  2.073293037   3-10  2.073300754
       ( 1.097145474)       ( 1.097144306)       ( 1.097147413)       ( 1.097139427)       ( 1.097143510)

  4- 7  2.073301752   4-11  2.073306055   4-12  2.073297296   5- 8  2.073305161   5-13  2.073300706
       ( 1.097144038)       ( 1.097146316)       ( 1.097141681)       ( 1.097145842)       ( 1.097143485)

  5-14  2.073307464
       ( 1.097147061)

 Bond angles

  1- 2-15  111.17643746   1- 2-16  111.17582452   1- 2-17  111.17607088   1- 3- 6  111.17575783

  1- 3- 9  111.17644989   1- 3-10  111.17611121   1- 4- 7  111.17614317   1- 4-11  111.17631877

  1- 4-12  111.17675056   1- 5- 8  111.17663037   1- 5-13  111.17645588   1- 5-14  111.17672823

  2-1-3  109.47117711   2-1-4  109.47117360   2-1-5  109.47107360   3-1-4  109.47144919

  3- 1- 5  109.47121161   4- 1- 5  109.47123870   6- 3- 9  107.71338639   6- 3-10  107.71391335

  7- 4-11  107.71323113   7- 4-12  107.71354587   8- 5-13  107.71328790   8- 5-14  107.71342022

  9- 3-10  107.71420977  11- 4-12  107.71378459  13- 5-14  107.71321488  15- 2-16  107.71365571

 15- 2-17  107.71411853  16- 2-17  107.71372051

 NUCLEAR CHARGE:                   42
 NUMBER OF PRIMITIVE AOS:         111
 NUMBER OF SYMMETRY AOS:          111
 NUMBER OF CONTRACTIONS:           37   (  37A   )
 NUMBER OF CORE ORBITALS:           5   (   5A   )
 NUMBER OF VALENCE ORBITALS:       32   (  32A   )


 NUCLEAR REPULSION ENERGY  197.66618863


 Eigenvalues of metric

         1 0.202E+00 0.229E+00 0.229E+00 0.229E+00 0.312E+00 0.362E+00 0.362E+00 0.362E+00


 Contracted 2-electron integrals neglected if value below      1.0D-11
 AO integral compression algorithm  1   Integral accuracy      1.0D-11

     2.097 MB (compressed) written to integral file ( 90.5%)


 NUMBER OF SORTED TWO-ELECTRON INTEGRALS:     247456.     BUFFER LENGTH:  32768
 NUMBER OF SEGMENTS:   1  SEGMENT LENGTH:     247456      RECORD LENGTH: 524288

 Memory used in sort:       0.80 MW

 SORT1 READ      274857. AND WROTE      242287. INTEGRALS IN      1 RECORDS. CPU TIME:     0.01 SEC, REAL TIME:     0.01 SEC
 SORT2 READ      242287. AND WROTE      247456. INTEGRALS IN      8 RECORDS. CPU TIME:     0.02 SEC, REAL TIME:     0.03 SEC

 FILE SIZES:   FILE 1:    32.4 MBYTE,  FILE 4:     4.2 MBYTE,   TOTAL:     36.6 MBYTE

 OPERATOR DM      FOR CENTER  0  COORDINATES:    0.000000    0.000000    0.000000


 **********************************************************************************************************************************
 DATASETS  * FILE   NREC   LENGTH (MB)   RECORD NAMES
              1      19       31.36       500      610      700      900      950      970     1000      129      960     1100   
                                          VAR    BASINP    GEOM    SYMINP    ZMAT    AOBASIS   BASIS     P2S    ABASIS      S 
                                         1400     1410     1200     1210     1080     1600     1650     1300     1700   
                                           T        V       H0       H01     AOSYM     SMH    MOLCAS    ERIS     OPER   

 PROGRAMS   *        TOTAL       INT
 CPU TIMES  *         0.79      0.65
 REAL TIME  *         1.08 SEC
 DISK USED  *        37.15 MB      
 **********************************************************************************************************************************

 Density functional group B3LYP3=B88+DIRAC+LYP+VWN3
 Functional: B88(Automatically generated (new) B88)                            Gradient terms: 1
 Functional: DIRAC(Automatically generated (new) DIRAC)                        Gradient terms: 0
 Functional: LYP(Automatically generated (new) LYP)                            Gradient terms: 1
 Functional: VWN3(Automatically generated (new) VWN3)                          Gradient terms: 0
 Use grid at  1800.2


 Exact exchange will be calculated, factor:  0.2000

 Functional: B88                       Factor:  0.7200
 Functional: DIRAC                     Factor:  0.0800
 Functional: LYP                       Factor:  0.8100
 Functional: VWN3                      Factor:  0.1900

 Generated new metagrid on record  1800.2 with target accuracy 1.0D-06 and 57016 points in CPU time    1.7
 Computed new grid on record 1800.1 in CPU time    1.9
   34023 words reserved for DFT integration

 PROGRAM * UKS-SCF (Unrestricted Kohn-Sham)     Authors: W. Meyer, H.-J. Werner, P.J. Knowles, 1993

 NUMBER OF ELECTRONS:      21+   21-    SPACE SYMMETRY=1    SPIN SYMMETRY: Singlet 
 CONVERGENCE THRESHOLDS:    1.00E-05 (Density)    1.00E-06 (Energy)
 MAX. NUMBER OF ITERATIONS:       60
 INTERPOLATION TYPE:            DIIS
 INTERPOLATION STEPS:              2 (START)      1 (STEP)
 LEVEL SHIFTS:                 -0.20 (ALPHA)  -0.20 (BETA) 



 Use fine grid record 1800.2 for energy threshold  1.0D-06
 Orbital guess generated from atomic densities. Full valence occupancy:   21

 Molecular orbital dump at record        2200.2

 Initial alpha occupation  21
 Initial beta  occupation  21

 ITERATION    DDIFF          GRAD             ENERGY        2-EL.EN.            DIPOLE MOMENTS         DIIS
    1      0.000D+00      0.000D+00      -195.07245388    589.222392   -0.00002   -0.00007   -0.00000    0
    2      0.563D-01      0.197D-01      -195.42036334    570.324265    0.00001   -0.00007   -0.00000    1
    3      0.758D-02      0.326D-02      -195.42897754    572.698082    0.00001   -0.00007   -0.00000    2
    4      0.752D-03      0.288D-03      -195.42908865    572.697008    0.00001   -0.00007   -0.00000    3
    5      0.209D-03      0.616D-04      -195.42909461    572.693049    0.00001   -0.00007   -0.00000    4
    6      0.304D-04      0.104D-04      -195.42909475    572.693421    0.00001   -0.00007   -0.00000    4
    7      0.101D-04      0.342D-05      -195.42909477    572.693096    0.00001   -0.00007   -0.00000    5
    8      0.117D-05      0.472D-06      -195.42909477    572.693261    0.00001   -0.00007   -0.00000    5
    9      0.193D-06      0.624D-07      -195.42909477    572.693207    0.00001   -0.00007   -0.00000    5

 Final alpha occupancy:  21
 Final beta  occupancy:  21

 !UKS STATE 1.1 Energy               -195.429094767057
 Nuclear energy                       197.66618863
 One-electron energy                 -653.84101461
 Two-electron energy                  286.34660340
 Density functional                   -25.60087219     B88=-30.15340965 DIRAC=-27.14211440 LYP= -1.32483026 VWN3= -3.39966097
 Virial quotient                       -1.01726634
 !UKS STATE 1.1 Dipole moment           0.00000904    -0.00006620    -0.00000061
 Dipole moment /Debye                   0.00002297    -0.00016825    -0.00000155

 Orbital energies for positive spin:

         1.1          2.1          3.1          4.1          5.1          6.1          7.1          8.1          9.1         10.1
    -10.027346    -9.995387    -9.995383    -9.995381    -9.995182    -0.778243    -0.645493    -0.645491    -0.645489    -0.496963

        11.1         12.1         13.1         14.1         15.1         16.1         17.1         18.1         19.1         20.1
     -0.409415    -0.409415    -0.409407    -0.361912    -0.361912    -0.326885    -0.326885    -0.326883    -0.276150    -0.276149

        21.1         22.1         23.1
     -0.276146     0.361049     0.361051

 Orbital energies for negative spin:

         1.1          2.1          3.1          4.1          5.1          6.1          7.1          8.1          9.1         10.1
    -10.027346    -9.995387    -9.995383    -9.995381    -9.995182    -0.778243    -0.645493    -0.645491    -0.645489    -0.496963

        11.1         12.1         13.1         14.1         15.1         16.1         17.1         18.1         19.1         20.1
     -0.409415    -0.409415    -0.409407    -0.361912    -0.361912    -0.326885    -0.326885    -0.326883    -0.276150    -0.276149

        21.1         22.1         23.1
     -0.276146     0.361049     0.361051

 HOMO     21.1    -0.276146 =      -7.5143eV
 LUMO     22.1     0.361049 =       9.8247eV
 LUMO-HOMO         0.637196 =      17.3390eV

 EXPECTATION VALUE OF S**2:            -0.00000000

 Natural orbitals saved to record    2200.2 (Orbital set 3)

 Orbital spaces for UNO-CAS (Min. occupation: 0.020  Max. occupation: 1.980):

 Closed:       21
 Active:        0


 **********************************************************************************************************************************
 DATASETS  * FILE   NREC   LENGTH (MB)   RECORD NAMES
              1      20       33.19       500      610      700      900      950      970     1000      129      960     1100   
                                          VAR    BASINP    GEOM    SYMINP    ZMAT    AOBASIS   BASIS     P2S    ABASIS      S 
                                         1400     1410     1200     1210     1080     1600     1650     1300     1700     1800   
                                           T        V       H0       H01     AOSYM     SMH    MOLCAS    ERIS     OPER     GRID   

              2       5        3.10       700     1000      520     1800     2200   
                                         GEOM     BASIS   MCVARS    GRID      UKS  

 PROGRAMS   *        TOTAL       UKS       INT
 CPU TIMES  *         7.17      6.38      0.65
 REAL TIME  *         7.85 SEC
 DISK USED  *        37.15 MB      
 **********************************************************************************************************************************


 PROGRAM * Intrinsic Basis Bonding Analysis (IBBA)          Author: G. Knizia

 Molecular orbitals read from record     2200.2  Type=UKS/ALPHA (state 1.1)
 Fock matrix read from record            2200.2  Type=UKS/TOTAL (state 1.1)
 Orbital energies read from record       2200.2  Type=UKS/ALPHA (state 1.1)
 Density matrix read from record         2200.2  Type=UKS/CHARGE (state 1.1)

 Number of core orbitals:           5 (   5 )
 Number of closed-shell orbitals:  16 (  16 )

 Basis set MINAO-AUTO-PP generated.      Number of basis functions:   37 

 Polarized AO type:                A = (O Ot + (1-O)(1-Ot)) P12
 Orthogonalization method:         Symmetric (Loewdin)
 Localization functional:          L = sum[A,i] <i|n_A|i>^4 -> max

 Localization group 1:  21 orbitals, occupancy  2.000
 Iterative localization: IB/PM,    7 iter; Final gradient 0.24E-08

 Bond order analysis:       [THRPRINT= 0.020]

   CEN ATOM   CEN ATOM     WIBERG.BO      RENORM.BO
     1   C  -   5   C       0.996196       0.996516
     1   C  -   3   C       0.996195       0.996516
     1   C  -   4   C       0.996195       0.996514
     1   C  -   2   C       0.996193       0.996513

     2   C  -   1   C       0.996193       0.996513
     2   C  -  15   H       0.967280       0.986273
     2   C  -  17   H       0.967275       0.986273
     2   C  -  16   H       0.967275       0.986273

     3   C  -   1   C       0.996195       0.996516
     3   C  -  10   H       0.967279       0.986273
     3   C  -   9   H       0.967279       0.986273
     3   C  -   6   H       0.967277       0.986274

     4   C  -   1   C       0.996195       0.996514
     4   C  -  11   H       0.967280       0.986273
     4   C  -   7   H       0.967278       0.986273
     4   C  -  12   H       0.967274       0.986273

     5   C  -   1   C       0.996196       0.996516
     5   C  -  14   H       0.967280       0.986273
     5   C  -   8   H       0.967278       0.986272
     5   C  -  13   H       0.967273       0.986273

     6   H  -   3   C       0.967277       0.986274

     7   H  -   4   C       0.967278       0.986273

     8   H  -   5   C       0.967278       0.986272

     9   H  -   3   C       0.967279       0.986273

    10   H  -   3   C       0.967279       0.986273

    11   H  -   4   C       0.967280       0.986273

    12   H  -   4   C       0.967274       0.986273

    13   H  -   5   C       0.967273       0.986273

    14   H  -   5   C       0.967280       0.986273

    15   H  -   2   C       0.967280       0.986273

    16   H  -   2   C       0.967275       0.986273

    17   H  -   2   C       0.967275       0.986273


 Valency analysis:

   CEN ATOM   TOT.VALENCE
     1   C       3.995109
     2   C       3.939061
     3   C       3.939068
     4   C       3.939063
     5   C       3.939064
     6   H       0.984100
     7   H       0.984102
     8   H       0.984102
     9   H       0.984103
    10   H       0.984103
    11   H       0.984103
    12   H       0.984097
    13   H       0.984097
    14   H       0.984103
    15   H       0.984103
    16   H       0.984099
    17   H       0.984099

 Total charge composition:

   CEN ATOM         s          p       ELECTRONS ->P.CHARGE
     1   C       2.93499    3.05349      5.98847    0.01153
     2   C       2.99790    3.38327      6.38116   -0.38116
     3   C       2.99790    3.38325      6.38114   -0.38114
     4   C       2.99790    3.38326      6.38116   -0.38116
     5   C       2.99790    3.38326      6.38116   -0.38116
     6   H       0.87391                 0.87391    0.12609
     7   H       0.87391                 0.87391    0.12609
     8   H       0.87391                 0.87391    0.12609
     9   H       0.87392                 0.87392    0.12608
    10   H       0.87392                 0.87392    0.12608
    11   H       0.87392                 0.87392    0.12608
    12   H       0.87389                 0.87389    0.12611
    13   H       0.87389                 0.87389    0.12611
    14   H       0.87392                 0.87392    0.12608
    15   H       0.87392                 0.87392    0.12608
    16   H       0.87390                 0.87390    0.12610
    17   H       0.87390                 0.87390    0.12610

 Total charge composition, AO contributions:

   CEN ATOM SHL      SPHERICAL COMPONENTS
     1   C  1s       1.99276
     1   C  2s       0.94223
     1   C  2p       1.01783    1.01783    1.01783

     2   C  1s       1.99197
     2   C  2s       1.00593
     2   C  2p       1.05399    1.16463    1.16464

     3   C  1s       1.99197
     3   C  2s       1.00593
     3   C  2p       1.15234    1.06628    1.16462

     4   C  1s       1.99197
     4   C  2s       1.00593
     4   C  2p       1.15233    1.14005    1.09087

     5   C  1s       1.99197
     5   C  2s       1.00593
     5   C  2p       1.15234    1.14006    1.09086

     6   H  1s       0.87391

     7   H  1s       0.87391

     8   H  1s       0.87391

     9   H  1s       0.87392

    10   H  1s       0.87392

    11   H  1s       0.87392

    12   H  1s       0.87389

    13   H  1s       0.87389

    14   H  1s       0.87392

    15   H  1s       0.87392

    16   H  1s       0.87390

    17   H  1s       0.87390

 Summary of localized orbital composition:   [THRPRINT= 0.020]

   ORB  GRP  ORB.ENERGY      CENTERS/CHARGES
     1   1    -9.928968      C  1   2.000
     2   1    -9.884073      C  3   2.000
     3   1    -9.884067      C  4   2.000
     4   1    -9.884067      C  5   2.000
     5   1    -9.884064      C  2   2.000
     6   1    -0.501315      C  5   0.993   C  1   0.985   (other: 0.022)
     7   1    -0.501312      C  3   0.993   C  1   0.985   (other: 0.022)
     8   1    -0.501311      C  4   0.993   C  1   0.985   (other: 0.022)
     9   1    -0.501309      C  2   0.993   C  1   0.985   (other: 0.022)
    10   1    -0.459261      C  2   1.125   H 15   0.867
    11   1    -0.459260      C  3   1.125   H  9   0.867
    12   1    -0.459257      C  3   1.125   H 10   0.867
    13   1    -0.459254      C  3   1.125   H  6   0.867
    14   1    -0.459254      C  4   1.125   H  7   0.867
    15   1    -0.459253      C  4   1.125   H 11   0.867
    16   1    -0.459253      C  5   1.125   H  8   0.867
    17   1    -0.459253      C  5   1.125   H 14   0.867
    18   1    -0.459251      C  2   1.125   H 17   0.867
    19   1    -0.459250      C  2   1.125   H 16   0.867
    20   1    -0.459247      C  4   1.125   H 12   0.867
    21   1    -0.459245      C  5   1.125   H 13   0.867

 Localized orbitals saved to record      2200.2  (orbital set 4)


 **********************************************************************************************************************************
 DATASETS  * FILE   NREC   LENGTH (MB)   RECORD NAMES
              1      20       33.19       500      610      700      900      950      970     1000      129      960     1100   
                                          VAR    BASINP    GEOM    SYMINP    ZMAT    AOBASIS   BASIS     P2S    ABASIS      S 
                                         1400     1410     1200     1210     1080     1600     1650     1300     1700     1800   
                                           T        V       H0       H01     AOSYM     SMH    MOLCAS    ERIS     OPER     GRID   

              2       5        3.11       700     1000      520     1800     2200   
                                         GEOM     BASIS   MCVARS    GRID      UKS  

 PROGRAMS   *        TOTAL      IBBA       UKS       INT
 CPU TIMES  *         7.20      0.03      6.38      0.65
 REAL TIME  *         7.98 SEC
 DISK USED  *        37.15 MB      
 **********************************************************************************************************************************
 Molecular orbitals read from record     2200.2  Type=UKS/LOCAL(IBO)  
 Occupation numbers read from record     2200.2  Type=UKS/LOCAL(IBO)  
 Orbital energies read from record       2200.2  Type=UKS/LOCAL(IBO)  
 Redundancy group numbers read from rec  2200.2  Type=UKS/BETA (state 1.1)

 IBBA/STO-3G energy=      0.000000000000

        UKS-SCF 
   -195.42909477
 **********************************************************************************************************************************
 Molpro calculation terminated
