
 Primary working directories    : /local
 Secondary working directories  : /local
 Wavefunction directory         : /local/
 Main file repository           : /local/

 SHA1      : b4a5b34a9e711420743f49e6833241d17c61fb3c
 NAME      : 2099.9.b4a5b34
 ARCHNAME  : linux/x86_64_openmp
 FC        : /cm/shared/languages/GCC-6.1/bin/gfortran
 BLASLIB   : -lblas
 id        : simonbennie

 Nodes     nprocs
 node35-036    1

 Using customized tuning parameters: mindgm=1; mindgv=20; mindgc=4; mindgr=1; noblas=0; minvec=7
 default implementation of scratch files=df  

 memory,500,m
 geomtyp=xyz
 nosym
 noorient
 geometry={
 C         -1.53233        0.02247        0.00000
 C         -0.00192        0.01421        0.00000
 O          0.37239        1.40356        0.00000
 H          1.34248        1.44036        0.00000
 H         -1.92991       -0.99819        0.00000
 H         -1.90797        0.54382       -0.88653
 H         -1.90797        0.54382        0.88653
 C          0.54303       -0.66466       -1.26580
 C          0.54303       -0.66466        1.26580
 H          0.17836       -0.14752       -2.15943
 H          0.17836       -0.14752        2.15943
 H          0.23752       -1.71600       -1.32280
 H          0.23752       -1.71600        1.32280
 H          1.64084       -0.63767       -1.28032
 H          1.64084       -0.63767        1.28032
 }
 basis={ default,tzvp }
 {ks,LDA,direct;wf,42,1,0}
 {ibba,bonds=1}

 Variables initialized (895), CPU time= 0.00 sec
 Commands  initialized (725), CPU time= 0.02 sec, 591 directives.
 Default parameters read. Elapsed time= 0.09 sec

 Checking input...
 Passed
1


                                         ***  PROGRAM SYSTEM MOLPRO  ***
                                       Copyright, TTI GmbH Stuttgart, 2015
                                    Version 2099.9 linked May 26 2017 16:03:21


 **********************************************************************************************************************************
 LABEL *                                                                                 
  64 bit serial version                                                                  DATE: 12-Jun-17          TIME: 20:07:04  
 **********************************************************************************************************************************

 SHA1:             b4a5b34a9e711420743f49e6833241d17c61fb3c
 **********************************************************************************************************************************
 SETTING GEOMTYP        =    XYZ

 Variable memory set to  500000000 words,  buffer space 

 ZSYMEL=NOSYM

 SETTING BASIS          =    TZVP


 Recomputing integrals since basis changed


 Using spherical harmonics

 Library entry C      S def2-TZVP            selected for orbital group  1
 Library entry C      P def2-TZVP            selected for orbital group  1
 Library entry C      D def2-TZVP            selected for orbital group  1
 Library entry C      F def2-TZVP            selected for orbital group  1
 Library entry O      S def2-TZVP            selected for orbital group  2
 Library entry O      P def2-TZVP            selected for orbital group  2
 Library entry O      D def2-TZVP            selected for orbital group  2
 Library entry O      F def2-TZVP            selected for orbital group  2
 Library entry H      S def2-TZVP            selected for orbital group  3
 Library entry H      P def2-TZVP            selected for orbital group  3


 PROGRAM * SEWARD (Integral evaluation for generally contracted gaussian basis sets)     Author: Roland Lindh, 1990

 Geometry written to block  1 of record 700


 Point group  C1  



 ATOMIC COORDINATES

 NR  ATOM    CHARGE       X              Y              Z

   1  C       6.00   -2.895684032    0.042462146    0.000000000
   2  C       6.00   -0.003628274    0.026853008    0.000000000
   3  O       8.00    0.703715112    2.652343999    0.000000000
   4  H       1.00    2.536919528    2.721885921    0.000000000
   5  H       1.00   -3.647001345   -1.886305720    0.000000000
   6  H       1.00   -3.605540754    1.027670861   -1.675298901
   7  H       1.00   -3.605540754    1.027670861    1.675298901
   8  C       6.00    1.026177977   -1.256025366   -2.392015328
   9  C       6.00    1.026177977   -1.256025366    2.392015328
  10  H       1.00    0.337051552   -0.278772398   -4.080731285
  11  H       1.00    0.337051552   -0.278772398    4.080731285
  12  H       1.00    0.448847749   -3.242770030   -2.499729718
  13  H       1.00    0.448847749   -3.242770030    2.499729718
  14  H       1.00    3.100738214   -1.205021658   -2.419454152
  15  H       1.00    3.100738214   -1.205021658    2.419454152

 Bond lengths in Bohr (Angstrom)

 1-2  2.892097881  1-5  2.069933136  1-6  2.069096224  1-7  2.069096224  2-3  2.719106031
     ( 1.530432290)     ( 1.095361444)     ( 1.094918569)     ( 1.094918569)     ( 1.438888946)

  2- 8  2.903104402   2- 9  2.903104402   3- 4  1.834522965   8-10  2.069222119   8-12  2.071730422
       ( 1.536256691)       ( 1.536256691)       ( 0.970787746)       ( 1.094985190)       ( 1.096312526)

  8-14  2.075368508   9-11  2.069222119   9-13  2.071730422   9-15  2.075368508
       ( 1.098237719)       ( 1.094985190)       ( 1.096312526)       ( 1.098237719)

 Bond angles

  1-2-3  104.76902697   1-2-8  110.92255387   1-2-9  110.92255387   2-1-5  110.97328220

  2- 1- 6  110.22090701   2- 1- 7  110.22090701   2- 3- 4  107.25071562   2- 8-10  110.21836376

  2- 8-12  111.57747468   2- 8-14  110.77023896   2- 9-11  110.21836376   2- 9-13  111.57747468

  2- 9-15  110.77023896   3- 2- 8  109.53648747   3- 2- 9  109.53648747   5- 1- 6  108.61190457

  5- 1- 7  108.61190457   6- 1- 7  108.12870271   8- 2- 9  110.96453384  10- 8-12  108.52192632

 10- 8-14  108.08997829  11- 9-13  108.52192632  11- 9-15  108.08997829  12- 8-14  107.54424578

 13- 9-15  107.54424578

 NUCLEAR CHARGE:                   42
 NUMBER OF PRIMITIVE AOS:         335
 NUMBER OF SYMMETRY AOS:          310
 NUMBER OF CONTRACTIONS:          215   ( 215A   )
 NUMBER OF CORE ORBITALS:           5   (   5A   )
 NUMBER OF VALENCE ORBITALS:       30   (  30A   )


 NUCLEAR REPULSION ENERGY  198.77359127


 Eigenvalues of metric

         1 0.262E-03 0.510E-03 0.539E-03 0.594E-03 0.697E-03 0.755E-03 0.210E-02 0.239E-02


 Contracted 2-electron integrals neglected if value below      1.0D-11
 AO integral compression algorithm  1   Integral accuracy      1.0D-11

     977.797 MB (compressed) written to integral file ( 41.7%)


 NUMBER OF SORTED TWO-ELECTRON INTEGRALS:  269595810.     BUFFER LENGTH:  32768
 NUMBER OF SEGMENTS:  17  SEGMENT LENGTH:   15999762      RECORD LENGTH: 524288

 Memory used in sort:      16.56 MW

 SORT1 READ   292827432. AND WROTE   238500613. INTEGRALS IN    690 RECORDS. CPU TIME:     3.77 SEC, REAL TIME:     7.71 SEC
 SORT2 READ   238500613. AND WROTE   269595810. INTEGRALS IN   3730 RECORDS. CPU TIME:     5.76 SEC, REAL TIME:     7.33 SEC

 FILE SIZES:   FILE 1:  1009.7 MBYTE,  FILE 4:  2894.1 MBYTE,   TOTAL:   3903.8 MBYTE

 OPERATOR DM      FOR CENTER  0  COORDINATES:    0.000000    0.000000    0.000000


 **********************************************************************************************************************************
 DATASETS  * FILE   NREC   LENGTH (MB)   RECORD NAMES
              1      19      926.27       500      610      700      900      950      970     1000      129      960     1100   
                                          VAR    BASINP    GEOM    SYMINP    ZMAT    AOBASIS   BASIS     P2S    ABASIS      S 
                                         1400     1410     1200     1210     1080     1600     1650     1300     1700   
                                           T        V       H0       H01     AOSYM     SMH    MOLCAS    ERIS     OPER   

 PROGRAMS   *        TOTAL       INT
 CPU TIMES  *        27.24     27.09
 REAL TIME  *        83.25 SEC
 DISK USED  *         3.90 GB      
 **********************************************************************************************************************************

 Density functional group LDA=DIRAC+VWN5
 Functional: DIRAC(Automatically generated (new) DIRAC)                        Gradient terms: 0
 Functional: VWN5(Automatically generated (new) VWN5)                          Gradient terms: 0
 Use grid at  1800.2

 Functional: DIRAC                     Factor:  1.0000
 Functional: VWN5                      Factor:  1.0000

 Generated new metagrid on record  1800.2 with target accuracy 1.0D-06 and 54596 points in CPU time    1.7
 Computed new grid on record 1800.1 in CPU time    1.9
   93304 words reserved for DFT integration

 PROGRAM * RKS-SCF (Restricted closed shell Kohn-Sham)     Authors: W. Meyer, H.-J. Werner, P.J. Knowles, 1993

 NUMBER OF ELECTRONS:      21+   21-    SPACE SYMMETRY=1    SPIN SYMMETRY: Singlet 
 CONVERGENCE THRESHOLDS:    1.00E-05 (Density)    1.00E-06 (Energy)
 MAX. NUMBER OF ITERATIONS:       60
 INTERPOLATION TYPE:            DIIS
 INTERPOLATION STEPS:              2 (START)      1 (STEP)
 LEVEL SHIFTS:                  0.00 (CLOSED)  0.00 (OPEN) 



 Use fine grid record 1800.2 for energy threshold  1.0D-06
 Orbital guess generated from atomic densities. Full valence occupancy:   21

 Molecular orbital dump at record        2100.2

 Initial occupancy:  21

 ITERATION    DDIFF          GRAD             ENERGY        2-EL.EN.            DIPOLE MOMENTS         DIIS   ORB.
    1      0.000D+00      0.000D+00      -231.37337313    641.150272    0.72229   -0.81163    0.00000    0    start
    2      0.000D+00      0.928D-02      -230.71945446    586.545425   -0.58668    0.31495    0.00000    1    diag
    3      0.205D-01      0.154D-01      -231.71005382    623.775729    0.45647   -0.70110    0.00000    2    diag
    4      0.175D-01      0.196D-02      -231.71994421    621.290978    0.35059   -0.37999    0.00000    3    diag
    5      0.147D-02      0.976D-03      -231.72285919    621.252171    0.34411   -0.53463    0.00000    4    diag
    6      0.540D-03      0.262D-03      -231.72307294    621.413392    0.35237   -0.49814    0.00000    5    diag
    7      0.148D-03      0.860D-04      -231.72309480    621.405827    0.35626   -0.49745    0.00000    6    diag
    8      0.330D-04      0.108D-04      -231.72309529    621.423694    0.35447   -0.50226    0.00000    7    diag
    9      0.112D-04      0.330D-05      -231.72309534    621.423710    0.35514   -0.50087    0.00000    8    diag
   10      0.312D-05      0.403D-06      -231.72309534    621.423322    0.35510   -0.50105    0.00000    0    orth

 Final occupancy:  21

 !RKS STATE 1.1 Energy               -231.723095339418
 Nuclear energy                       198.77359127
 One-electron energy                 -709.35460052
 Two-electron energy                  310.71166107
 Density functional                   -31.85374716     DIRAC=-29.20464278 VWN5= -2.64910438
 Virial quotient                       -1.00782807
 !RKS STATE 1.1 Dipole moment           0.35510150    -0.50104561     0.00000000
 Dipole moment /Debye                   0.90251888    -1.27344751     0.00000000

 Orbital energies:

         1.1          2.1          3.1          4.1          5.1          6.1          7.1          8.1          9.1         10.1
    -18.600709    -9.841487    -9.770893    -9.770887    -9.765480    -0.926537    -0.713254    -0.622855    -0.622122    -0.515029

        11.1         12.1         13.1         14.1         15.1         16.1         17.1         18.1         19.1         20.1
     -0.442937    -0.408162    -0.405623    -0.368155    -0.354844    -0.337865    -0.322880    -0.314405    -0.307546    -0.281798

        21.1         22.1         23.1
     -0.229790    -0.007614     0.039762

 HOMO     21.1    -0.229790 =      -6.2529eV
 LUMO     22.1    -0.007614 =      -0.2072eV
 LUMO-HOMO         0.222176 =       6.0457eV


 **********************************************************************************************************************************
 DATASETS  * FILE   NREC   LENGTH (MB)   RECORD NAMES
              1      20      928.02       500      610      700      900      950      970     1000      129      960     1100   
                                          VAR    BASINP    GEOM    SYMINP    ZMAT    AOBASIS   BASIS     P2S    ABASIS      S 
                                         1400     1410     1200     1210     1080     1600     1650     1300     1700     1800   
                                           T        V       H0       H01     AOSYM     SMH    MOLCAS    ERIS     OPER     GRID   

              2       5        3.96       700     1000      520     1800     2100   
                                         GEOM     BASIS   MCVARS    GRID      RKS  

 PROGRAMS   *        TOTAL        KS       INT
 CPU TIMES  *        61.46     34.22     27.09
 REAL TIME  *       119.16 SEC
 DISK USED  *         3.90 GB      
 **********************************************************************************************************************************


 PROGRAM * Intrinsic Basis Bonding Analysis (IBBA)          Author: G. Knizia

 Molecular orbitals read from record     2100.2  Type=RKS/CANONICAL (state 1.1)
 Fock matrix read from record            2100.2  Type=RKS/TOTAL (state 1.1)
 Orbital energies read from record       2100.2  Type=RKS/CANONICAL (state 1.1)
 Density matrix read from record         2100.2  Type=RKS/CHARGE (state 1.1)

 Number of core orbitals:           5 (   5 )
 Number of closed-shell orbitals:  16 (  16 )

 Basis set MINAO-AUTO-PP generated.      Number of basis functions:   35 

 Polarized AO type:                A = (O Ot + (1-O)(1-Ot)) P12
 Orthogonalization method:         Symmetric (Loewdin)
 Localization functional:          L = sum[A,i] <i|n_A|i>^4 -> max

 Localization group 1:  21 orbitals, occupancy  2.000
 Iterative localization: IB/PM,    7 iter; Final gradient 0.63E-08

 Bond order analysis:       [THRPRINT= 0.020]

   CEN ATOM   CEN ATOM     WIBERG.BO      RENORM.BO
     1   C  -   2   C       0.995906       0.991642
     1   C  -   5   H       0.955066       0.985552
     1   C  -   6   H       0.950044       0.979276
     1   C  -   7   H       0.950044       0.979276

     2   C  -   1   C       0.995906       0.991642
     2   C  -   9   C       0.994872       0.972600
     2   C  -   8   C       0.994872       0.972600
     2   C  -   3   O       0.937870       0.939964

     3   O  -   2   C       0.937870       0.939964
     3   O  -   4   H       0.856508       0.971930
     3   O  -   8   C       0.031331       0.016083
     3   O  -   9   C       0.031331       0.016083

     4   H  -   3   O       0.856508       0.971930

     5   H  -   1   C       0.955066       0.985552

     6   H  -   1   C       0.950044       0.979276

     7   H  -   1   C       0.950044       0.979276

     8   C  -   2   C       0.994872       0.972600
     8   C  -  14   H       0.954626       0.980023
     8   C  -  10   H       0.950700       0.979123
     8   C  -  12   H       0.950067       0.978724
     8   C  -   3   O       0.031331       0.016083

     9   C  -   2   C       0.994872       0.972600
     9   C  -  15   H       0.954626       0.980023
     9   C  -  11   H       0.950700       0.979123
     9   C  -  13   H       0.950067       0.978724
     9   C  -   3   O       0.031331       0.016083

    10   H  -   8   C       0.950700       0.979123

    11   H  -   9   C       0.950700       0.979123

    12   H  -   8   C       0.950067       0.978724

    13   H  -   9   C       0.950067       0.978724

    14   H  -   8   C       0.954626       0.980023

    15   H  -   9   C       0.954626       0.980023


 Valency analysis:

   CEN ATOM   TOT.VALENCE
     1   C       3.919473
     2   C       3.936594
     3   O       1.934572
     4   H       0.878987
     5   H       0.976918
     6   H       0.974157
     7   H       0.974157
     8   C       3.922493
     9   C       3.922493
    10   H       0.974194
    11   H       0.974194
    12   H       0.976053
    13   H       0.976053
    14   H       0.978853
    15   H       0.978853

 Total charge composition:

   CEN ATOM         s          p       ELECTRONS ->P.CHARGE
     1   C       3.03909    3.42624      6.46533   -0.46533
     2   C       2.92936    2.82837      5.75773    0.24227
     3   O       3.64360    4.91838      8.56198   -0.56198
     4   H       0.65213                 0.65213    0.34787
     5   H       0.84807                 0.84807    0.15193
     6   H       0.83924                 0.83924    0.16076
     7   H       0.83924                 0.83924    0.16076
     8   C       3.04590    3.43304      6.47895   -0.47895
     9   C       3.04590    3.43304      6.47895   -0.47895
    10   H       0.83936                 0.83936    0.16064
    11   H       0.83936                 0.83936    0.16064
    12   H       0.84525                 0.84525    0.15475
    13   H       0.84525                 0.84525    0.15475
    14   H       0.85458                 0.85458    0.14542
    15   H       0.85458                 0.85458    0.14542

 Total charge composition, AO contributions:

   CEN ATOM SHL      SPHERICAL COMPONENTS
     1   C  1s       1.99211
     1   C  2s       1.04698
     1   C  2p       1.04892    1.18218    1.19514

     2   C  1s       1.99366
     2   C  2s       0.93570
     2   C  2p       1.01300    0.79970    1.01567

     3   O  1s       1.99739
     3   O  2s       1.64620
     3   O  2p       1.47931    1.48866    1.95041

     4   H  1s       0.65213

     5   H  1s       0.84807

     6   H  1s       0.83924

     7   H  1s       0.83924

     8   C  1s       1.99220
     8   C  2s       1.05370
     8   C  2p       1.16277    1.16257    1.10770

     9   C  1s       1.99220
     9   C  2s       1.05370
     9   C  2p       1.16277    1.16257    1.10770

    10   H  1s       0.83936

    11   H  1s       0.83936

    12   H  1s       0.84525

    13   H  1s       0.84525

    14   H  1s       0.85458

    15   H  1s       0.85458

 Summary of localized orbital composition:   [THRPRINT= 0.020]

   ORB  GRP  ORB.ENERGY      CENTERS/CHARGES
     1   1   -18.453595      O  3   2.000
     2   1    -9.754094      C  2   2.000
     3   1    -9.661247      C  9   2.000
     4   1    -9.661247      C  8   2.000
     5   1    -9.655074      C  1   2.000
     6   1    -0.699506      O  3   1.351   H  4   0.639
     7   1    -0.661858      O  3   1.277   C  2   0.704
     8   1    -0.523130      C  9   1.008   C  2   0.976
     9   1    -0.523130      C  8   1.008   C  2   0.976
    10   1    -0.522500      C  1   0.990   C  2   0.983   (other: 0.026)
    11   1    -0.500799      O  3   1.979   (other: 0.021)
    12   1    -0.454462      C  8   1.149   H 12   0.834
    13   1    -0.454462      C  9   1.149   H 13   0.834
    14   1    -0.453414      C  9   1.140   H 15   0.846
    15   1    -0.453414      C  8   1.140   H 14   0.846
    16   1    -0.450147      C  1   1.144   H  5   0.840
    17   1    -0.448219      C  8   1.158   H 10   0.830
    18   1    -0.448219      C  9   1.158   H 11   0.830
    19   1    -0.443546      C  1   1.157   H  7   0.830
    20   1    -0.443546      C  1   1.157   H  6   0.830
    21   1    -0.257653      O  3   1.950   (other: 0.050)

 Localized orbitals saved to record      2100.2  (orbital set 2)


 **********************************************************************************************************************************
 DATASETS  * FILE   NREC   LENGTH (MB)   RECORD NAMES
              1      20      928.02       500      610      700      900      950      970     1000      129      960     1100   
                                          VAR    BASINP    GEOM    SYMINP    ZMAT    AOBASIS   BASIS     P2S    ABASIS      S 
                                         1400     1410     1200     1210     1080     1600     1650     1300     1700     1800   
                                           T        V       H0       H01     AOSYM     SMH    MOLCAS    ERIS     OPER     GRID   

              2       5        4.33       700     1000      520     1800     2100   
                                         GEOM     BASIS   MCVARS    GRID      RKS  

 PROGRAMS   *        TOTAL      IBBA        KS       INT
 CPU TIMES  *        61.53      0.07     34.22     27.09
 REAL TIME  *       119.34 SEC
 DISK USED  *         3.90 GB      
 **********************************************************************************************************************************
 Molecular orbitals read from record     2100.2  Type=RKS/LOCAL(IBO)  
 Occupation numbers read from record     2100.2  Type=RKS/LOCAL(IBO)  
 Orbital energies read from record       2100.2  Type=RKS/LOCAL(IBO)  
 Redundancy group numbers read from rec  2100.2  Type=RKS/LOCAL(IBO)  

 IBBA/TZVP energy=      0.000000000000

        KS-SCF  
   -231.72309534
 **********************************************************************************************************************************
 Molpro calculation terminated
