
 Primary working directories    : /tmp/sb13343
 Secondary working directories  : /tmp/sb13343
 Wavefunction directory         : /panfs/panasas01/chem/sb13343/wfu/
 Main file repository           : /tmp/sb13343/

 SHA1      : b4a5b34a9e711420743f49e6833241d17c61fb3c
 NAME      : 2099.9.b4a5b34
 ARCHNAME  : linux/x86_64_openmp
 FC        : /cm/shared/languages/GCC-6.1/bin/gfortran
 BLASLIB   : -lblas
 id        : simonbennie

 Nodes     nprocs
 node32-002    1

 Using customized tuning parameters: mindgm=1; mindgv=20; mindgc=4; mindgr=1; noblas=0; minvec=7
 default implementation of scratch files=df  

 memory,500,m
 geomtyp=xyz
 nosym
 noorient
 geometry={
 C          0.00000        0.00000        0.00000
 H          0.00000        0.00000        1.10056
 C          1.46209        0.00000       -0.46855
 C         -0.73105       -1.26621       -0.46855
 C         -0.73105        1.26621       -0.46855
 H          1.52118        0.00000       -1.56505
 H         -0.76059       -1.31738       -1.56505
 H         -0.76059        1.31738       -1.56505
 H          1.99755        0.88622       -0.10723
 H          1.99755       -0.88622       -0.10723
 H         -0.23129       -2.17304       -0.10723
 H         -1.76626       -1.28682       -0.10723
 H         -1.76626        1.28682       -0.10723
 H         -0.23129        2.17304       -0.10723
 }
 basis={ default,sto-3g }
 {uks,D,direct;wf,34,1,0}
 {ibba,bonds=1}

 Variables initialized (895), CPU time= 0.00 sec
 Commands  initialized (725), CPU time= 0.02 sec, 591 directives.
 Default parameters read. Elapsed time= 0.11 sec

 Checking input...
 Passed
1


                                         ***  PROGRAM SYSTEM MOLPRO  ***
                                       Copyright, TTI GmbH Stuttgart, 2015
                                    Version 2099.9 linked May 26 2017 16:03:21


 **********************************************************************************************************************************
 LABEL *                                                                                 
  64 bit serial version                                                                  DATE: 08-Jun-17          TIME: 23:50:21  
 **********************************************************************************************************************************

 SHA1:             b4a5b34a9e711420743f49e6833241d17c61fb3c
 **********************************************************************************************************************************
 SETTING GEOMTYP        =    XYZ

 Variable memory set to  500000000 words,  buffer space 

 ZSYMEL=NOSYM

 SETTING BASIS          =    STO-3G


 Recomputing integrals since basis changed


 Using spherical harmonics

 Library entry C      S STO-3G               selected for orbital group  1
 Library entry C      P STO-3G               selected for orbital group  1
 Library entry H      S STO-3G               selected for orbital group  2


 PROGRAM * SEWARD (Integral evaluation for generally contracted gaussian basis sets)     Author: Roland Lindh, 1990

 Geometry written to block  1 of record 700


 Point group  C1  



 ATOMIC COORDINATES

 NR  ATOM    CHARGE       X              Y              Z

   1  C       6.00    0.000000000    0.000000000    0.000000000
   2  H       1.00    0.000000000    0.000000000    2.079756984
   3  C       6.00    2.762949669    0.000000000   -0.885431176
   4  C       6.00   -1.381484283   -2.392790116   -0.885431176
   5  C       6.00   -1.381484283    2.392790116   -0.885431176
   6  H       1.00    2.874613586    0.000000000   -2.957515871
   7  H       1.00   -1.437306793   -2.489487402   -2.957515871
   8  H       1.00   -1.437306793    2.489487402   -2.957515871
   9  H       1.00    3.774822420    1.674713086   -0.202635332
  10  H       1.00    3.774822420   -1.674713086   -0.202635332
  11  H       1.00   -0.437074755   -4.106450458   -0.202635332
  12  H       1.00   -3.337747665   -2.431737372   -0.202635332
  13  H       1.00   -3.337747665    2.431737372   -0.202635332
  14  H       1.00   -0.437074755    4.106450458   -0.202635332

 Bond lengths in Bohr (Angstrom)

 1-2  2.079756984  1-3  2.901358172  1-4  2.901367218  1-5  2.901367218  3-6  2.075091279
     ( 1.100560000)     ( 1.535332625)     ( 1.535337412)     ( 1.535337412)     ( 1.098091015)

  3- 9  2.072380406   3-10  2.072380406   4- 7  2.075090722   4-11  2.072378172   4-12  2.072364222
       ( 1.096656483)       ( 1.096656483)       ( 1.098090721)       ( 1.096655301)       ( 1.096647919)

  5- 8  2.075090722   5-13  2.072364222   5-14  2.072378172
       ( 1.098090721)       ( 1.096647919)       ( 1.096655301)

 Bond angles

  1- 3- 6  110.85354902   1- 3- 9  111.37220114   1- 3-10  111.37220114   1- 4- 7  110.85320625

  1- 4-11  111.37204414   1- 4-12  111.37216555   1- 5- 8  110.85320625   1- 5-13  111.37216555

  1- 5-14  111.37204414   2- 1- 3  107.76888332   2- 1- 4  107.76882608   2- 1- 5  107.76882608

  3-1-4  111.11870751   3-1-5  111.11870751   4-1-5  111.11845005   6-3-9  107.62119374

  6- 3-10  107.62119374   7- 4-11  107.62125572   7- 4-12  107.62162102   8- 5-13  107.62162102

  8- 5-14  107.62125572   9- 3-10  107.82352924  11- 4-12  107.82360822  13- 5-14  107.82360822

 NUCLEAR CHARGE:                   34
 NUMBER OF PRIMITIVE AOS:          90
 NUMBER OF SYMMETRY AOS:           90
 NUMBER OF CONTRACTIONS:           30   (  30A   )
 NUMBER OF CORE ORBITALS:           4   (   4A   )
 NUMBER OF VALENCE ORBITALS:       26   (  26A   )


 NUCLEAR REPULSION ENERGY  134.07051350


 Eigenvalues of metric

         1 0.203E+00 0.229E+00 0.229E+00 0.287E+00 0.356E+00 0.362E+00 0.364E+00 0.364E+00


 Contracted 2-electron integrals neglected if value below      1.0D-11
 AO integral compression algorithm  1   Integral accuracy      1.0D-11

     1.049 MB (compressed) written to integral file ( 95.2%)


 NUMBER OF SORTED TWO-ELECTRON INTEGRALS:     108345.     BUFFER LENGTH:  32768
 NUMBER OF SEGMENTS:   1  SEGMENT LENGTH:     108345      RECORD LENGTH: 524288

 Memory used in sort:       0.67 MW

 SORT1 READ      123158. AND WROTE      102148. INTEGRALS IN      1 RECORDS. CPU TIME:     0.00 SEC, REAL TIME:     0.01 SEC
 SORT2 READ      102148. AND WROTE      108345. INTEGRALS IN      4 RECORDS. CPU TIME:     0.01 SEC, REAL TIME:     0.03 SEC

 FILE SIZES:   FILE 1:    31.3 MBYTE,  FILE 4:     4.2 MBYTE,   TOTAL:     35.5 MBYTE

 OPERATOR DM      FOR CENTER  0  COORDINATES:    0.000000    0.000000    0.000000


 **********************************************************************************************************************************
 DATASETS  * FILE   NREC   LENGTH (MB)   RECORD NAMES
              1      19       30.69       500      610      700      900      950      970     1000      129      960     1100   
                                          VAR    BASINP    GEOM    SYMINP    ZMAT    AOBASIS   BASIS     P2S    ABASIS      S 
                                         1400     1410     1200     1210     1080     1600     1650     1300     1700   
                                           T        V       H0       H01     AOSYM     SMH    MOLCAS    ERIS     OPER   

 PROGRAMS   *        TOTAL       INT
 CPU TIMES  *         0.52      0.38
 REAL TIME  *         1.79 SEC
 DISK USED  *        35.98 MB      
 **********************************************************************************************************************************

 Density functional group D=DIRAC
 Functional: DIRAC(Automatically generated (new) DIRAC)                        Gradient terms: 0
 Use grid at  1800.2

 Functional: DIRAC                     Factor:  1.0000

 Generated new metagrid on record  1800.2 with target accuracy 1.0D-06 and 45620 points in CPU time    1.1
 Computed new grid on record 1800.1 in CPU time    1.3
   16856 words reserved for DFT integration

 PROGRAM * UKS-SCF (Unrestricted Kohn-Sham)     Authors: W. Meyer, H.-J. Werner, P.J. Knowles, 1993

 NUMBER OF ELECTRONS:      17+   17-    SPACE SYMMETRY=1    SPIN SYMMETRY: Singlet 
 CONVERGENCE THRESHOLDS:    1.00E-05 (Density)    1.00E-06 (Energy)
 MAX. NUMBER OF ITERATIONS:       60
 INTERPOLATION TYPE:            DIIS
 INTERPOLATION STEPS:              2 (START)      1 (STEP)
 LEVEL SHIFTS:                 -0.20 (ALPHA)  -0.20 (BETA) 



 Use fine grid record 1800.2 for energy threshold  1.0D-06
 Orbital guess generated from atomic densities. Full valence occupancy:   17

 Molecular orbital dump at record        2200.2

 Initial alpha occupation  17
 Initial beta  occupation  17

 ITERATION    DDIFF          GRAD             ENERGY        2-EL.EN.            DIPOLE MOMENTS         DIIS
    1      0.000D+00      0.000D+00      -152.63268287    433.549088   -0.00003   -0.00000   -0.03844    0
    2      0.711D-01      0.230D-01      -152.92069580    417.036590   -0.00004   -0.00000   -0.01474    1
    3      0.153D-01      0.654D-02      -152.94400341    420.431355   -0.00003   -0.00000    0.00518    2
    4      0.723D-03      0.258D-03      -152.94406472    420.431272   -0.00003   -0.00000    0.00880    3
    5      0.212D-03      0.640D-04      -152.94406885    420.429135   -0.00003   -0.00000    0.00945    4
    6      0.641D-04      0.183D-04      -152.94406916    420.428948   -0.00003   -0.00000    0.00937    5
    7      0.105D-04      0.396D-05      -152.94406917    420.428986   -0.00003   -0.00000    0.00935    5
    8      0.907D-06      0.234D-06      -152.94406917    420.429019   -0.00003   -0.00000    0.00936    5
    9      0.124D-06      0.307D-07      -152.94406917    420.429003   -0.00003   -0.00000    0.00936    5

 Final alpha occupancy:  17
 Final beta  occupancy:  17

 !UKS STATE 1.1 Energy               -152.944069172092
 Nuclear energy                       134.07051350
 One-electron energy                 -475.40456587
 Two-electron energy                  210.21450139
 Density functional                   -21.82451819     DIRAC=-21.82451819
 Virial quotient                       -0.99533433
 !UKS STATE 1.1 Dipole moment          -0.00003399    -0.00000000     0.00935634
 Dipole moment /Debye                  -0.00008638    -0.00000000     0.02377989

 Orbital energies for positive spin:

         1.1          2.1          3.1          4.1          5.1          6.1          7.1          8.1          9.1         10.1
     -9.509601    -9.484610    -9.484610    -9.484398    -0.616574    -0.505853    -0.505851    -0.395912    -0.309481    -0.278050

        11.1         12.1         13.1         14.1         15.1         16.1         17.1         18.1         19.1
     -0.278045    -0.230063    -0.230062    -0.210462    -0.173583    -0.173583    -0.166718     0.388787     0.401369

 Orbital energies for negative spin:

         1.1          2.1          3.1          4.1          5.1          6.1          7.1          8.1          9.1         10.1
     -9.509601    -9.484610    -9.484610    -9.484398    -0.616574    -0.505853    -0.505851    -0.395912    -0.309481    -0.278050

        11.1         12.1         13.1         14.1         15.1         16.1         17.1         18.1         19.1
     -0.278045    -0.230063    -0.230062    -0.210462    -0.173583    -0.173583    -0.166718     0.388787     0.401369

 HOMO     17.1    -0.166718 =      -4.5366eV
 LUMO     18.1     0.388787 =      10.5794eV
 LUMO-HOMO         0.555505 =      15.1161eV

 EXPECTATION VALUE OF S**2:            -0.00000000

 Natural orbitals saved to record    2200.2 (Orbital set 3)

 Orbital spaces for UNO-CAS (Min. occupation: 0.020  Max. occupation: 1.980):

 Closed:       17
 Active:        0


 **********************************************************************************************************************************
 DATASETS  * FILE   NREC   LENGTH (MB)   RECORD NAMES
              1      20       32.15       500      610      700      900      950      970     1000      129      960     1100   
                                          VAR    BASINP    GEOM    SYMINP    ZMAT    AOBASIS   BASIS     P2S    ABASIS      S 
                                         1400     1410     1200     1210     1080     1600     1650     1300     1700     1800   
                                           T        V       H0       H01     AOSYM     SMH    MOLCAS    ERIS     OPER     GRID   

              2       5        3.02       700     1000      520     1800     2200   
                                         GEOM     BASIS   MCVARS    GRID      UKS  

 PROGRAMS   *        TOTAL       UKS       INT
 CPU TIMES  *         3.43      2.91      0.38
 REAL TIME  *         6.50 SEC
 DISK USED  *        35.98 MB      
 **********************************************************************************************************************************


 PROGRAM * Intrinsic Basis Bonding Analysis (IBBA)          Author: G. Knizia

 Molecular orbitals read from record     2200.2  Type=UKS/ALPHA (state 1.1)
 Fock matrix read from record            2200.2  Type=UKS/TOTAL (state 1.1)
 Orbital energies read from record       2200.2  Type=UKS/ALPHA (state 1.1)
 Density matrix read from record         2200.2  Type=UKS/CHARGE (state 1.1)

 Number of core orbitals:           4 (   4 )
 Number of closed-shell orbitals:  13 (  13 )

 Basis set MINAO-AUTO-PP generated.      Number of basis functions:   30 

 Polarized AO type:                A = (O Ot + (1-O)(1-Ot)) P12
 Orthogonalization method:         Symmetric (Loewdin)
 Localization functional:          L = sum[A,i] <i|n_A|i>^4 -> max

 Localization group 1:  17 orbitals, occupancy  2.000
 Iterative localization: IB/PM,    7 iter; Final gradient 0.78E-08

 Bond order analysis:       [THRPRINT= 0.020]

   CEN ATOM   CEN ATOM     WIBERG.BO      RENORM.BO
     1   C  -   3   C       1.008159       1.005689
     1   C  -   5   C       1.008157       1.005687
     1   C  -   4   C       1.008157       1.005687
     1   C  -   2   H       0.936091       0.961242

     2   H  -   1   C       0.936091       0.961242

     3   C  -   1   C       1.008159       1.005689
     3   C  -   6   H       0.962309       0.984008
     3   C  -   9   H       0.962072       0.986128
     3   C  -  10   H       0.962072       0.986128

     4   C  -   1   C       1.008157       1.005687
     4   C  -   7   H       0.962310       0.984008
     4   C  -  11   H       0.962075       0.986128
     4   C  -  12   H       0.962071       0.986128

     5   C  -   1   C       1.008157       1.005687
     5   C  -   8   H       0.962310       0.984008
     5   C  -  14   H       0.962075       0.986128
     5   C  -  13   H       0.962071       0.986128

     6   H  -   3   C       0.962309       0.984008

     7   H  -   4   C       0.962310       0.984008

     8   H  -   5   C       0.962310       0.984008

     9   H  -   3   C       0.962072       0.986128

    10   H  -   3   C       0.962072       0.986128

    11   H  -   4   C       0.962075       0.986128

    12   H  -   4   C       0.962071       0.986128

    13   H  -   5   C       0.962071       0.986128

    14   H  -   5   C       0.962075       0.986128


 Valency analysis:

   CEN ATOM   TOT.VALENCE
     1   C       3.972180
     2   H       0.981444
     3   C       3.926320
     4   C       3.926320
     5   C       3.926320
     6   H       0.981827
     7   H       0.981827
     8   H       0.981827
     9   H       0.980866
    10   H       0.980866
    11   H       0.980868
    12   H       0.980864
    13   H       0.980864
    14   H       0.980868

 Total charge composition:

   CEN ATOM         s          p       ELECTRONS ->P.CHARGE
     1   C       2.94400    3.18809      6.13209   -0.13209
     2   H       0.86378                 0.86378    0.13622
     3   C       2.99015    3.42269      6.41283   -0.41283
     4   C       2.99015    3.42269      6.41284   -0.41284
     5   C       2.99015    3.42269      6.41284   -0.41284
     6   H       0.86519                 0.86519    0.13481
     7   H       0.86519                 0.86519    0.13481
     8   H       0.86519                 0.86519    0.13481
     9   H       0.86168                 0.86168    0.13832
    10   H       0.86168                 0.86168    0.13832
    11   H       0.86168                 0.86168    0.13832
    12   H       0.86167                 0.86167    0.13833
    13   H       0.86167                 0.86167    0.13833
    14   H       0.86168                 0.86168    0.13832

 Total charge composition, AO contributions:

   CEN ATOM SHL      SPHERICAL COMPONENTS
     1   C  1s       1.99343
     1   C  2s       0.95057
     1   C  2p       1.02535    1.02535    1.13738

     2   H  1s       0.86378

     3   C  1s       1.99299
     3   C  2s       0.99716
     3   C  2p       1.07352    1.18017    1.16900

     4   C  1s       1.99299
     4   C  2s       0.99716
     4   C  2p       1.15351    1.10017    1.16900

     5   C  1s       1.99299
     5   C  2s       0.99716
     5   C  2p       1.15351    1.10017    1.16900

     6   H  1s       0.86519

     7   H  1s       0.86519

     8   H  1s       0.86519

     9   H  1s       0.86168

    10   H  1s       0.86168

    11   H  1s       0.86168

    12   H  1s       0.86167

    13   H  1s       0.86167

    14   H  1s       0.86168

 Summary of localized orbital composition:   [THRPRINT= 0.020]

   ORB  GRP  ORB.ENERGY      CENTERS/CHARGES
     1   1    -9.410946      C  1   2.000
     2   1    -9.378638      C  3   2.000
     3   1    -9.378637      C  5   2.000
     4   1    -9.378637      C  4   2.000
     5   1    -0.382650      C  3   0.993   C  1   0.990
     6   1    -0.382646      C  5   0.993   C  1   0.990
     7   1    -0.382646      C  4   0.993   C  1   0.990
     8   1    -0.335563      C  4   1.137   H 11   0.854
     9   1    -0.335563      C  5   1.137   H 14   0.854
    10   1    -0.335562      C  3   1.137   H 10   0.854
    11   1    -0.335562      C  3   1.137   H  9   0.854
    12   1    -0.335562      C  4   1.137   H 12   0.854
    13   1    -0.335562      C  5   1.137   H 13   0.854
    14   1    -0.333133      C  3   1.134   H  6   0.858
    15   1    -0.333132      C  4   1.134   H  7   0.858
    16   1    -0.333132      C  5   1.134   H  8   0.858
    17   1    -0.329887      C  1   1.126   H  2   0.850   (other: 0.024)

 Localized orbitals saved to record      2200.2  (orbital set 4)


 **********************************************************************************************************************************
 DATASETS  * FILE   NREC   LENGTH (MB)   RECORD NAMES
              1      20       32.15       500      610      700      900      950      970     1000      129      960     1100   
                                          VAR    BASINP    GEOM    SYMINP    ZMAT    AOBASIS   BASIS     P2S    ABASIS      S 
                                         1400     1410     1200     1210     1080     1600     1650     1300     1700     1800   
                                           T        V       H0       H01     AOSYM     SMH    MOLCAS    ERIS     OPER     GRID   

              2       5        3.03       700     1000      520     1800     2200   
                                         GEOM     BASIS   MCVARS    GRID      UKS  

 PROGRAMS   *        TOTAL      IBBA       UKS       INT
 CPU TIMES  *         3.46      0.03      2.91      0.38
 REAL TIME  *         6.62 SEC
 DISK USED  *        35.98 MB      
 **********************************************************************************************************************************
 Molecular orbitals read from record     2200.2  Type=UKS/LOCAL(IBO)  
 Occupation numbers read from record     2200.2  Type=UKS/LOCAL(IBO)  
 Orbital energies read from record       2200.2  Type=UKS/LOCAL(IBO)  
 Redundancy group numbers read from rec  2200.2  Type=UKS/BETA (state 1.1)

 IBBA/STO-3G energy=      0.000000000000

        UKS-SCF 
   -152.94406917
 **********************************************************************************************************************************
 Molpro calculation terminated
