
 Primary working directories    : /tmp/sb13343
 Secondary working directories  : /tmp/sb13343
 Wavefunction directory         : /panfs/panasas01/chem/sb13343/wfu/
 Main file repository           : /tmp/sb13343/

 SHA1      : b4a5b34a9e711420743f49e6833241d17c61fb3c
 NAME      : 2099.9.b4a5b34
 ARCHNAME  : linux/x86_64_openmp
 FC        : /cm/shared/languages/GCC-6.1/bin/gfortran
 BLASLIB   : -lblas
 id        : simonbennie

 Nodes     nprocs
 node32-019    1

 Using customized tuning parameters: mindgm=1; mindgv=20; mindgc=4; mindgr=1; noblas=0; minvec=7
 default implementation of scratch files=df  

 memory,500,m
 geomtyp=xyz
 nosym
 noorient
 geometry={
 C          0.00000        0.00000        0.00000
 H          0.00000        0.00000        1.10056
 C          1.46209        0.00000       -0.46855
 C         -0.73105       -1.26621       -0.46855
 C         -0.73105        1.26621       -0.46855
 H          1.52118        0.00000       -1.56505
 H         -0.76059       -1.31738       -1.56505
 H         -0.76059        1.31738       -1.56505
 H          1.99755        0.88622       -0.10723
 H          1.99755       -0.88622       -0.10723
 H         -0.23129       -2.17304       -0.10723
 H         -1.76626       -1.28682       -0.10723
 H         -1.76626        1.28682       -0.10723
 H         -0.23129        2.17304       -0.10723
 }
 basis={ default,svp }
 {ks,VWN,direct;wf,34,1,0}
 {ibba,bonds=1}

 Variables initialized (895), CPU time= 0.00 sec
 Commands  initialized (725), CPU time= 0.02 sec, 591 directives.
 Default parameters read. Elapsed time= 0.07 sec

 Checking input...
 Passed
1


                                         ***  PROGRAM SYSTEM MOLPRO  ***
                                       Copyright, TTI GmbH Stuttgart, 2015
                                    Version 2099.9 linked May 26 2017 16:03:21


 **********************************************************************************************************************************
 LABEL *                                                                                 
  64 bit serial version                                                                  DATE: 09-Jun-17          TIME: 00:13:17  
 **********************************************************************************************************************************

 SHA1:             b4a5b34a9e711420743f49e6833241d17c61fb3c
 **********************************************************************************************************************************
 SETTING GEOMTYP        =    XYZ

 Variable memory set to  500000000 words,  buffer space 

 ZSYMEL=NOSYM

 SETTING BASIS          =    SVP


 Recomputing integrals since basis changed


 Using spherical harmonics

 Library entry C      S def2-SVP             selected for orbital group  1
 Library entry C      P def2-SVP             selected for orbital group  1
 Library entry C      D def2-SVP             selected for orbital group  1
 Library entry H      S def2-SVP             selected for orbital group  2
 Library entry H      P def2-SVP             selected for orbital group  2


 PROGRAM * SEWARD (Integral evaluation for generally contracted gaussian basis sets)     Author: Roland Lindh, 1990

 Geometry written to block  1 of record 700


 Point group  C1  



 ATOMIC COORDINATES

 NR  ATOM    CHARGE       X              Y              Z

   1  C       6.00    0.000000000    0.000000000    0.000000000
   2  H       1.00    0.000000000    0.000000000    2.079756984
   3  C       6.00    2.762949669    0.000000000   -0.885431176
   4  C       6.00   -1.381484283   -2.392790116   -0.885431176
   5  C       6.00   -1.381484283    2.392790116   -0.885431176
   6  H       1.00    2.874613586    0.000000000   -2.957515871
   7  H       1.00   -1.437306793   -2.489487402   -2.957515871
   8  H       1.00   -1.437306793    2.489487402   -2.957515871
   9  H       1.00    3.774822420    1.674713086   -0.202635332
  10  H       1.00    3.774822420   -1.674713086   -0.202635332
  11  H       1.00   -0.437074755   -4.106450458   -0.202635332
  12  H       1.00   -3.337747665   -2.431737372   -0.202635332
  13  H       1.00   -3.337747665    2.431737372   -0.202635332
  14  H       1.00   -0.437074755    4.106450458   -0.202635332

 Bond lengths in Bohr (Angstrom)

 1-2  2.079756984  1-3  2.901358172  1-4  2.901367218  1-5  2.901367218  3-6  2.075091279
     ( 1.100560000)     ( 1.535332625)     ( 1.535337412)     ( 1.535337412)     ( 1.098091015)

  3- 9  2.072380406   3-10  2.072380406   4- 7  2.075090722   4-11  2.072378172   4-12  2.072364222
       ( 1.096656483)       ( 1.096656483)       ( 1.098090721)       ( 1.096655301)       ( 1.096647919)

  5- 8  2.075090722   5-13  2.072364222   5-14  2.072378172
       ( 1.098090721)       ( 1.096647919)       ( 1.096655301)

 Bond angles

  1- 3- 6  110.85354902   1- 3- 9  111.37220114   1- 3-10  111.37220114   1- 4- 7  110.85320625

  1- 4-11  111.37204414   1- 4-12  111.37216555   1- 5- 8  110.85320625   1- 5-13  111.37216555

  1- 5-14  111.37204414   2- 1- 3  107.76888332   2- 1- 4  107.76882608   2- 1- 5  107.76882608

  3-1-4  111.11870751   3-1-5  111.11870751   4-1-5  111.11845005   6-3-9  107.62119374

  6- 3-10  107.62119374   7- 4-11  107.62125572   7- 4-12  107.62162102   8- 5-13  107.62162102

  8- 5-14  107.62125572   9- 3-10  107.82352924  11- 4-12  107.82360822  13- 5-14  107.82360822

 NUCLEAR CHARGE:                   34
 NUMBER OF PRIMITIVE AOS:         170
 NUMBER OF SYMMETRY AOS:          166
 NUMBER OF CONTRACTIONS:          106   ( 106A   )
 NUMBER OF CORE ORBITALS:           4   (   4A   )
 NUMBER OF VALENCE ORBITALS:       26   (  26A   )


 NUCLEAR REPULSION ENERGY  134.07051350


 Eigenvalues of metric

         1 0.225E-02 0.614E-02 0.614E-02 0.233E-01 0.256E-01 0.268E-01 0.268E-01 0.277E-01


 Contracted 2-electron integrals neglected if value below      1.0D-11
 AO integral compression algorithm  1   Integral accuracy      1.0D-11

     64.750 MB (compressed) written to integral file ( 46.7%)


 NUMBER OF SORTED TWO-ELECTRON INTEGRALS:   16082956.     BUFFER LENGTH:  32768
 NUMBER OF SEGMENTS:   2  SEGMENT LENGTH:   15997996      RECORD LENGTH: 524288

 Memory used in sort:      16.56 MW

 SORT1 READ    17384690. AND WROTE    14795173. INTEGRALS IN     44 RECORDS. CPU TIME:     0.23 SEC, REAL TIME:     0.47 SEC
 SORT2 READ    14795173. AND WROTE    16082956. INTEGRALS IN    247 RECORDS. CPU TIME:     0.41 SEC, REAL TIME:     0.54 SEC

 FILE SIZES:   FILE 1:    95.4 MBYTE,  FILE 4:   184.6 MBYTE,   TOTAL:    279.9 MBYTE

 OPERATOR DM      FOR CENTER  0  COORDINATES:    0.000000    0.000000    0.000000


 **********************************************************************************************************************************
 DATASETS  * FILE   NREC   LENGTH (MB)   RECORD NAMES
              1      19       87.57       500      610      700      900      950      970     1000      129      960     1100   
                                          VAR    BASINP    GEOM    SYMINP    ZMAT    AOBASIS   BASIS     P2S    ABASIS      S 
                                         1400     1410     1200     1210     1080     1600     1650     1300     1700   
                                           T        V       H0       H01     AOSYM     SMH    MOLCAS    ERIS     OPER   

 PROGRAMS   *        TOTAL       INT
 CPU TIMES  *         2.81      2.66
 REAL TIME  *         3.63 SEC
 DISK USED  *       280.45 MB      
 **********************************************************************************************************************************

 Density functional group VWN=VWN5
 Functional: VWN5(Automatically generated (new) VWN5)                          Gradient terms: 0
 Use grid at  1800.2

 Functional: VWN5                      Factor:  1.0000

 Generated new metagrid on record  1800.2 with target accuracy 1.0D-06 and 45620 points in CPU time    1.1
 Computed new grid on record 1800.1 in CPU time    1.3
   47956 words reserved for DFT integration

 PROGRAM * RKS-SCF (Restricted closed shell Kohn-Sham)     Authors: W. Meyer, H.-J. Werner, P.J. Knowles, 1993

 NUMBER OF ELECTRONS:      17+   17-    SPACE SYMMETRY=1    SPIN SYMMETRY: Singlet 
 CONVERGENCE THRESHOLDS:    1.00E-05 (Density)    1.00E-06 (Energy)
 MAX. NUMBER OF ITERATIONS:       60
 INTERPOLATION TYPE:            DIIS
 INTERPOLATION STEPS:              2 (START)      1 (STEP)
 LEVEL SHIFTS:                  0.00 (CLOSED)  0.00 (OPEN) 



 Use fine grid record 1800.2 for energy threshold  1.0D-06
 Orbital guess generated from atomic densities. Full valence occupancy:   17

 Molecular orbital dump at record        2100.2

 Initial occupancy:  17

 ITERATION    DDIFF          GRAD             ENERGY        2-EL.EN.            DIPOLE MOMENTS         DIIS   ORB.
    1      0.000D+00      0.000D+00      -135.55129463    392.186708   -0.00022   -0.00000    0.18801    0    start
    2      0.000D+00      0.782D-02      -135.24471676    418.421533   -0.00002   -0.00000    0.07110    1    diag
    3      0.281D-01      0.159D-01      -135.63225796    398.759325   -0.00010   -0.00000    0.12090    2    diag
    4      0.210D-01      0.102D-02      -135.63404006    400.276002   -0.00013   -0.00000    0.14194    3    diag
    5      0.256D-02      0.204D-03      -135.63412227    400.027181   -0.00011   -0.00000    0.13203    4    diag
    6      0.598D-03      0.593D-04      -135.63412669    400.021550   -0.00012   -0.00000    0.13264    5    diag
    7      0.754D-04      0.184D-04      -135.63412723    400.029693   -0.00012   -0.00000    0.13369    6    diag
    8      0.236D-04      0.273D-05      -135.63412724    400.032389   -0.00012   -0.00000    0.13355    7    diag
    9      0.623D-05      0.222D-06      -135.63412724    400.032764   -0.00012   -0.00000    0.13355    0    orth

 Final occupancy:  17

 !RKS STATE 1.1 Energy               -135.634127239717
 Nuclear energy                       134.07051350
 One-electron energy                 -467.69537755
 Two-electron energy                  200.01638197
 Density functional                    -2.02564516     VWN5=-2.02564516
 Virial quotient                       -0.92342680
 !RKS STATE 1.1 Dipole moment          -0.00011956    -0.00000000     0.13355095
 Dipole moment /Debye                  -0.00030388    -0.00000000     0.33943041

 Orbital energies:

         1.1          2.1          3.1          4.1          5.1          6.1          7.1          8.1          9.1         10.1
     -8.251630    -8.249619    -8.249616    -8.247774    -0.435809    -0.314008    -0.314008    -0.214999    -0.164019    -0.130814

        11.1         12.1         13.1         14.1         15.1         16.1         17.1         18.1         19.1
     -0.130812    -0.074648    -0.074645    -0.044422    -0.028863    -0.028863    -0.018460     0.168056     0.215203

 HOMO     17.1    -0.018460 =      -0.5023eV
 LUMO     18.1     0.168056 =       4.5730eV
 LUMO-HOMO         0.186516 =       5.0754eV


 **********************************************************************************************************************************
 DATASETS  * FILE   NREC   LENGTH (MB)   RECORD NAMES
              1      20       89.03       500      610      700      900      950      970     1000      129      960     1100   
                                          VAR    BASINP    GEOM    SYMINP    ZMAT    AOBASIS   BASIS     P2S    ABASIS      S 
                                         1400     1410     1200     1210     1080     1600     1650     1300     1700     1800   
                                           T        V       H0       H01     AOSYM     SMH    MOLCAS    ERIS     OPER     GRID   

              2       5        3.22       700     1000      520     1800     2100   
                                         GEOM     BASIS   MCVARS    GRID      RKS  

 PROGRAMS   *        TOTAL        KS       INT
 CPU TIMES  *         9.17      6.35      2.66
 REAL TIME  *        10.30 SEC
 DISK USED  *       280.45 MB      
 **********************************************************************************************************************************


 PROGRAM * Intrinsic Basis Bonding Analysis (IBBA)          Author: G. Knizia

 Molecular orbitals read from record     2100.2  Type=RKS/CANONICAL (state 1.1)
 Fock matrix read from record            2100.2  Type=RKS/TOTAL (state 1.1)
 Orbital energies read from record       2100.2  Type=RKS/CANONICAL (state 1.1)
 Density matrix read from record         2100.2  Type=RKS/CHARGE (state 1.1)

 Number of core orbitals:           4 (   4 )
 Number of closed-shell orbitals:  13 (  13 )

 Basis set MINAO-AUTO-PP generated.      Number of basis functions:   30 

 Polarized AO type:                A = (O Ot + (1-O)(1-Ot)) P12
 Orthogonalization method:         Symmetric (Loewdin)
 Localization functional:          L = sum[A,i] <i|n_A|i>^4 -> max

 Localization group 1:  17 orbitals, occupancy  2.000
 Iterative localization: IB/PM,    8 iter; Final gradient 0.68E-09

 Bond order analysis:       [THRPRINT= 0.020]

   CEN ATOM   CEN ATOM     WIBERG.BO      RENORM.BO
     1   C  -   3   C       1.017756       1.028523
     1   C  -   4   C       1.017748       1.028515
     1   C  -   5   C       1.017748       1.028515
     1   C  -   2   H       0.899807       0.933239

     2   H  -   1   C       0.899807       0.933239
     2   H  -   6   H       0.027806       0.029589
     2   H  -   8   H       0.027806       0.029589
     2   H  -   7   H       0.027806       0.029589

     3   C  -   1   C       1.017756       1.028523
     3   C  -   9   H       0.959907       0.967366
     3   C  -  10   H       0.959907       0.967366
     3   C  -   6   H       0.948880       0.950314

     4   C  -   1   C       1.017748       1.028515
     4   C  -  12   H       0.959910       0.967374
     4   C  -  11   H       0.959909       0.967369
     4   C  -   7   H       0.948877       0.950310

     5   C  -   1   C       1.017748       1.028515
     5   C  -  13   H       0.959910       0.967374
     5   C  -  14   H       0.959909       0.967369
     5   C  -   8   H       0.948877       0.950310

     6   H  -   3   C       0.948880       0.950314
     6   H  -   2   H       0.027806       0.029589

     7   H  -   4   C       0.948877       0.950310
     7   H  -   2   H       0.027806       0.029589

     8   H  -   5   C       0.948877       0.950310
     8   H  -   2   H       0.027806       0.029589

     9   H  -   3   C       0.959907       0.967366

    10   H  -   3   C       0.959907       0.967366

    11   H  -   4   C       0.959909       0.967369

    12   H  -   4   C       0.959910       0.967374

    13   H  -   5   C       0.959910       0.967374

    14   H  -   5   C       0.959909       0.967369


 Valency analysis:

   CEN ATOM   TOT.VALENCE
     1   C       3.971912
     2   H       0.999361
     3   C       3.965908
     4   C       3.965903
     5   C       3.965903
     6   H       0.998712
     7   H       0.998711
     8   H       0.998711
     9   H       0.998396
    10   H       0.998396
    11   H       0.998397
    12   H       0.998395
    13   H       0.998395
    14   H       0.998397

 Total charge composition:

   CEN ATOM         s          p       ELECTRONS ->P.CHARGE
     1   C       2.84033    3.08766      5.92799    0.07201
     2   H       0.97472                 0.97472    0.02528
     3   C       2.89725    3.25116      6.14841   -0.14841
     4   C       2.89725    3.25118      6.14843   -0.14843
     5   C       2.89725    3.25118      6.14843   -0.14843
     6   H       0.96411                 0.96411    0.03589
     7   H       0.96410                 0.96410    0.03590
     8   H       0.96410                 0.96410    0.03590
     9   H       0.95995                 0.95995    0.04005
    10   H       0.95995                 0.95995    0.04005
    11   H       0.95996                 0.95996    0.04004
    12   H       0.95994                 0.95994    0.04006
    13   H       0.95994                 0.95994    0.04006
    14   H       0.95996                 0.95996    0.04004

 Total charge composition, AO contributions:

   CEN ATOM SHL      SPHERICAL COMPONENTS
     1   C  1s       1.99804
     1   C  2s       0.84229
     1   C  2p       1.02199    1.02199    1.04368

     2   H  1s       0.97472

     3   C  1s       1.99777
     3   C  2s       0.89948
     3   C  2p       1.05438    1.10156    1.09522

     4   C  1s       1.99777
     4   C  2s       0.89948
     4   C  2p       1.08977    1.06617    1.09524

     5   C  1s       1.99777
     5   C  2s       0.89948
     5   C  2p       1.08977    1.06617    1.09524

     6   H  1s       0.96411

     7   H  1s       0.96410

     8   H  1s       0.96410

     9   H  1s       0.95995

    10   H  1s       0.95995

    11   H  1s       0.95996

    12   H  1s       0.95994

    13   H  1s       0.95994

    14   H  1s       0.95996

 Summary of localized orbital composition:   [THRPRINT= 0.020]

   ORB  GRP  ORB.ENERGY      CENTERS/CHARGES
     1   1    -8.175799      C  1   2.000
     2   1    -8.170041      C  3   2.000
     3   1    -8.170035      C  4   2.000
     4   1    -8.170035      C  5   2.000
     5   1    -0.227435      C  3   1.007   C  1   0.964   (other: 0.029)
     6   1    -0.227432      C  5   1.007   C  1   0.964   (other: 0.029)
     7   1    -0.227432      C  4   1.007   C  1   0.964   (other: 0.029)
     8   1    -0.161738      C  1   0.980   H  2   0.957   (other: 0.063)
     9   1    -0.161640      C  3   1.033   H  6   0.948
    10   1    -0.161634      C  5   1.033   H  8   0.948
    11   1    -0.161634      C  4   1.033   H  7   0.948
    12   1    -0.159694      C  3   1.037   H 10   0.947
    13   1    -0.159694      C  3   1.037   H  9   0.947
    14   1    -0.159693      C  4   1.037   H 11   0.947
    15   1    -0.159693      C  5   1.037   H 14   0.947
    16   1    -0.159691      C  4   1.037   H 12   0.947
    17   1    -0.159691      C  5   1.037   H 13   0.947

 Localized orbitals saved to record      2100.2  (orbital set 2)


 **********************************************************************************************************************************
 DATASETS  * FILE   NREC   LENGTH (MB)   RECORD NAMES
              1      20       89.03       500      610      700      900      950      970     1000      129      960     1100   
                                          VAR    BASINP    GEOM    SYMINP    ZMAT    AOBASIS   BASIS     P2S    ABASIS      S 
                                         1400     1410     1200     1210     1080     1600     1650     1300     1700     1800   
                                           T        V       H0       H01     AOSYM     SMH    MOLCAS    ERIS     OPER     GRID   

              2       5        3.31       700     1000      520     1800     2100   
                                         GEOM     BASIS   MCVARS    GRID      RKS  

 PROGRAMS   *        TOTAL      IBBA        KS       INT
 CPU TIMES  *         9.21      0.03      6.35      2.66
 REAL TIME  *        10.43 SEC
 DISK USED  *       280.45 MB      
 **********************************************************************************************************************************
 Molecular orbitals read from record     2100.2  Type=RKS/LOCAL(IBO)  
 Occupation numbers read from record     2100.2  Type=RKS/LOCAL(IBO)  
 Orbital energies read from record       2100.2  Type=RKS/LOCAL(IBO)  
 Redundancy group numbers read from rec  2100.2  Type=RKS/LOCAL(IBO)  

 IBBA/SVP energy=      0.000000000000

        KS-SCF  
   -135.63412724
 **********************************************************************************************************************************
 Molpro calculation terminated
