
 Primary working directories    : /tmp/sb13343
 Secondary working directories  : /tmp/sb13343
 Wavefunction directory         : /panfs/panasas01/chem/sb13343/wfu/
 Main file repository           : /tmp/sb13343/

 SHA1      : b4a5b34a9e711420743f49e6833241d17c61fb3c
 NAME      : 2099.9.b4a5b34
 ARCHNAME  : linux/x86_64_openmp
 FC        : /cm/shared/languages/GCC-6.1/bin/gfortran
 BLASLIB   : -lblas
 id        : simonbennie

 Nodes     nprocs
 node35-048    1

 Using customized tuning parameters: mindgm=1; mindgv=20; mindgc=4; mindgr=1; noblas=0; minvec=7
 default implementation of scratch files=df  

 memory,500,m
 geomtyp=xyz
 nosym
 noorient
 geometry={
 C          0.00000        0.00000        0.00000
 C          0.00000        0.00000        1.53307
 O          1.40344        0.00000        1.86307
 C          1.76314        0.00000        3.22887
 H         -1.02289        0.00000       -0.39176
 H          0.51995       -0.88625       -0.37815
 H          0.51995        0.88625       -0.37815
 H          2.85677        0.00000        3.25413
 H          1.40708       -0.89217        3.76475
 H          1.40708        0.89217        3.76475
 C         -0.69252       -1.26694        2.06222
 C         -0.69252        1.26694        2.06222
 H         -0.15366       -2.16088        1.72982
 H         -0.15366        2.16088        1.72982
 H         -1.72011       -1.32515        1.68649
 H         -1.72011        1.32515        1.68649
 H         -0.74365       -1.28188        3.15638
 H         -0.74365        1.28188        3.15638
 }
 basis={ default,sto-3g }
 {uks,B3LYP5,direct;wf,50,1,0}
 {ibba,bonds=1}

 Variables initialized (895), CPU time= 0.00 sec
 Commands  initialized (725), CPU time= 0.02 sec, 591 directives.
 Default parameters read. Elapsed time= 0.09 sec

 Checking input...
 Passed
1


                                         ***  PROGRAM SYSTEM MOLPRO  ***
                                       Copyright, TTI GmbH Stuttgart, 2015
                                    Version 2099.9 linked May 26 2017 16:03:21


 **********************************************************************************************************************************
 LABEL *                                                                                 
  64 bit serial version                                                                  DATE: 09-Jun-17          TIME: 01:32:13  
 **********************************************************************************************************************************

 SHA1:             b4a5b34a9e711420743f49e6833241d17c61fb3c
 **********************************************************************************************************************************
 SETTING GEOMTYP        =    XYZ

 Variable memory set to  500000000 words,  buffer space 

 ZSYMEL=NOSYM

 SETTING BASIS          =    STO-3G


 Recomputing integrals since basis changed


 Using spherical harmonics

 Library entry C      S STO-3G               selected for orbital group  1
 Library entry C      P STO-3G               selected for orbital group  1
 Library entry O      S STO-3G               selected for orbital group  2
 Library entry O      P STO-3G               selected for orbital group  2
 Library entry H      S STO-3G               selected for orbital group  4


 PROGRAM * SEWARD (Integral evaluation for generally contracted gaussian basis sets)     Author: Roland Lindh, 1990

 Geometry written to block  1 of record 700


 Point group  C1  



 ATOMIC COORDINATES

 NR  ATOM    CHARGE       X              Y              Z

   1  C       6.00    0.000000000    0.000000000    0.000000000
   2  C       6.00    0.000000000    0.000000000    2.897082430
   3  O       8.00    2.652117232    0.000000000    3.520692051
   4  C       6.00    3.331851719    0.000000000    6.101679992
   5  H       1.00   -1.932981956    0.000000000   -0.740319107
   6  H       1.00    0.982563098   -1.674769778   -0.714599934
   7  H       1.00    0.982563098    1.674769778   -0.714599934
   8  H       1.00    5.398512901    0.000000000    6.149414474
   9  H       1.00    2.658995835   -1.685956957    7.114346427
  10  H       1.00    2.658995835    1.685956957    7.114346427
  11  C       6.00   -1.308673136   -2.394169616    3.897031009
  12  C       6.00   -1.308673136    2.394169616    3.897031009
  13  H       1.00   -0.290375316   -4.083471388    3.268886045
  14  H       1.00   -0.290375316    4.083471388    3.268886045
  15  H       1.00   -3.250536804   -2.504170574    3.187004212
  16  H       1.00   -3.250536804    2.504170574    3.187004212
  17  H       1.00   -1.405294833   -2.422402125    5.964693745
  18  H       1.00   -1.405294833    2.422402125    5.964693745

 Bond lengths in Bohr (Angstrom)

 1-2  2.897082430  1-5  2.069901355  1-6  2.069042560  1-7  2.069042560  2-3  2.724447609
     ( 1.533070000)     ( 1.095344626)     ( 1.094890171)     ( 1.094890171)     ( 1.441715587)

  2-11  2.905954351   2-12  2.905954351   3- 4  2.668995640   4- 8  2.067212379   4- 9  2.078624355
       ( 1.537764818)       ( 1.537764818)       ( 1.412371669)       ( 1.093921681)       ( 1.099960639)

  4-10  2.078624355  11-13  2.070081404  11-15  2.070524757  11-17  2.070111596  12-14  2.070081404
       ( 1.099960639)       ( 1.095439904)       ( 1.095674516)       ( 1.095455880)       ( 1.095439904)

 12-16  2.070524757  12-18  2.070111596
       ( 1.095674516)       ( 1.095455880)

 Bond angles

  1- 2- 3  103.23196371   1- 2-11  110.12706952   1- 2-12  110.12706952   2- 1- 5  110.95650426

  2- 1- 6  110.20481748   2- 1- 7  110.20481748   2- 3- 4  117.98647004   2-11-13  110.26679927

  2-11-15  110.37287188   2-11-17  112.08316935   2-12-14  110.26679927   2-12-16  110.37287188

  2-12-18  112.08316935   3- 2-11  111.07703285   3- 2-12  111.07703285   3- 4- 8  106.07765410

  3- 4- 9  112.87219182   3- 4-10  112.87219182   5- 1- 6  108.65976572   5- 1- 7  108.65976572

  6- 1- 7  108.08288210   8- 4- 9  108.20190897   8- 4-10  108.20190897   9- 4-10  108.40564999

 11- 2-12  110.95103964  13-11-15  108.29648994  13-11-17  108.35544687  14-12-16  108.29648994

 14-12-18  108.35544687  15-11-17  107.33851825  16-12-18  107.33851825

 NUCLEAR CHARGE:                   50
 NUMBER OF PRIMITIVE AOS:         126
 NUMBER OF SYMMETRY AOS:          126
 NUMBER OF CONTRACTIONS:           42   (  42A   )
 NUMBER OF CORE ORBITALS:           6   (   6A   )
 NUMBER OF VALENCE ORBITALS:       36   (  36A   )


 NUCLEAR REPULSION ENERGY  270.15500869


 Eigenvalues of metric

         1 0.207E+00 0.226E+00 0.228E+00 0.234E+00 0.307E+00 0.355E+00 0.359E+00 0.362E+00


 Contracted 2-electron integrals neglected if value below      1.0D-11
 AO integral compression algorithm  1   Integral accuracy      1.0D-11

     2.884 MB (compressed) written to integral file ( 84.3%)


 NUMBER OF SORTED TWO-ELECTRON INTEGRALS:     408156.     BUFFER LENGTH:  32768
 NUMBER OF SEGMENTS:   1  SEGMENT LENGTH:     408156      RECORD LENGTH: 524288

 Memory used in sort:       0.97 MW

 SORT1 READ      453477. AND WROTE      382834. INTEGRALS IN      2 RECORDS. CPU TIME:     0.01 SEC, REAL TIME:     0.03 SEC
 SORT2 READ      382834. AND WROTE      408156. INTEGRALS IN     11 RECORDS. CPU TIME:     0.03 SEC, REAL TIME:     0.04 SEC

 FILE SIZES:   FILE 1:    33.2 MBYTE,  FILE 4:     8.4 MBYTE,   TOTAL:     41.6 MBYTE

 OPERATOR DM      FOR CENTER  0  COORDINATES:    0.000000    0.000000    0.000000


 **********************************************************************************************************************************
 DATASETS  * FILE   NREC   LENGTH (MB)   RECORD NAMES
              1      19       31.98       500      610      700      900      950      970     1000      129      960     1100   
                                          VAR    BASINP    GEOM    SYMINP    ZMAT    AOBASIS   BASIS     P2S    ABASIS      S 
                                         1400     1410     1200     1210     1080     1600     1650     1300     1700   
                                           T        V       H0       H01     AOSYM     SMH    MOLCAS    ERIS     OPER   

 PROGRAMS   *        TOTAL       INT
 CPU TIMES  *         0.97      0.82
 REAL TIME  *         1.49 SEC
 DISK USED  *        42.19 MB      
 **********************************************************************************************************************************

 Density functional group B3LYP5=B88+DIRAC+LYP+VWN5
 Functional: B88(Automatically generated (new) B88)                            Gradient terms: 1
 Functional: DIRAC(Automatically generated (new) DIRAC)                        Gradient terms: 0
 Functional: LYP(Automatically generated (new) LYP)                            Gradient terms: 1
 Functional: VWN5(Automatically generated (new) VWN5)                          Gradient terms: 0
 Use grid at  1800.2


 Exact exchange will be calculated, factor:  0.2000

 Functional: B88                       Factor:  0.7200
 Functional: DIRAC                     Factor:  0.0800
 Functional: LYP                       Factor:  0.8100
 Functional: VWN5                      Factor:  0.1900

 Generated new metagrid on record  1800.2 with target accuracy 1.0D-06 and 66012 points in CPU time    2.0
 Computed new grid on record 1800.1 in CPU time    2.3
   38106 words reserved for DFT integration

 PROGRAM * UKS-SCF (Unrestricted Kohn-Sham)     Authors: W. Meyer, H.-J. Werner, P.J. Knowles, 1993

 NUMBER OF ELECTRONS:      25+   25-    SPACE SYMMETRY=1    SPIN SYMMETRY: Singlet 
 CONVERGENCE THRESHOLDS:    1.00E-05 (Density)    1.00E-06 (Energy)
 MAX. NUMBER OF ITERATIONS:       60
 INTERPOLATION TYPE:            DIIS
 INTERPOLATION STEPS:              2 (START)      1 (STEP)
 LEVEL SHIFTS:                 -0.20 (ALPHA)  -0.20 (BETA) 



 Use fine grid record 1800.2 for energy threshold  1.0D-06
 Orbital guess generated from atomic densities. Full valence occupancy:   25

 Molecular orbital dump at record        2200.2

 Initial alpha occupation  25
 Initial beta  occupation  25

 ITERATION    DDIFF          GRAD             ENERGY        2-EL.EN.            DIPOLE MOMENTS         DIIS
    1      0.000D+00      0.000D+00      -269.02015594    807.279986   -0.93699    0.00000    0.82676    0
    2      0.489D-01      0.171D-01      -269.38891494    786.525865   -0.27883    0.00000    0.12499    1
    3      0.509D-02      0.217D-02      -269.39397778    788.105034   -0.33433    0.00000    0.21761    2
    4      0.113D-02      0.381D-03      -269.39425040    788.060684   -0.34337    0.00000    0.22597    3
    5      0.441D-03      0.121D-03      -269.39428360    788.053103   -0.34376    0.00000    0.22905    4
    6      0.169D-03      0.312D-04      -269.39428668    788.053148   -0.34209    0.00000    0.22884    5
    7      0.389D-04      0.106D-04      -269.39428686    788.053413   -0.34270    0.00000    0.22935    5
    8      0.133D-04      0.411D-05      -269.39428689    788.052639   -0.34236    0.00000    0.22917    6
    9      0.281D-05      0.572D-06      -269.39428689    788.052890   -0.34239    0.00000    0.22918    6
   10      0.607D-06      0.158D-06      -269.39428689    788.052760   -0.34238    0.00000    0.22918    6

 Final alpha occupancy:  25
 Final beta  occupancy:  25

 !UKS STATE 1.1 Energy               -269.394286889214
 Nuclear energy                       270.15500869
 One-electron energy                 -901.19212538
 Two-electron energy                  394.02638022
 Density functional                   -32.38355042     B88=-38.46202266 DIRAC=-34.66941165 LYP= -1.62483898 VWN5= -3.16432424
 Virial quotient                       -1.01582016
 !UKS STATE 1.1 Dipole moment          -0.34237981     0.00000000     0.22917527
 Dipole moment /Debye                  -0.87018568     0.00000000     0.58246728

 Orbital energies for positive spin:

         1.1          2.1          3.1          4.1          5.1          6.1          7.1          8.1          9.1         10.1
    -18.860017   -10.062745   -10.040069    -9.997107    -9.996765    -9.996676    -0.953318    -0.750518    -0.654312    -0.651778

        11.1         12.1         13.1         14.1         15.1         16.1         17.1         18.1         19.1         20.1
     -0.626046    -0.499193    -0.434700    -0.412594    -0.409528    -0.390372    -0.369766    -0.353871    -0.344241    -0.329189

        21.1         22.1         23.1         24.1         25.1         26.1         27.1
     -0.326360    -0.296186    -0.289895    -0.183965    -0.122328     0.282402     0.363331

 Orbital energies for negative spin:

         1.1          2.1          3.1          4.1          5.1          6.1          7.1          8.1          9.1         10.1
    -18.860017   -10.062745   -10.040069    -9.997107    -9.996765    -9.996676    -0.953318    -0.750518    -0.654312    -0.651778

        11.1         12.1         13.1         14.1         15.1         16.1         17.1         18.1         19.1         20.1
     -0.626046    -0.499193    -0.434700    -0.412594    -0.409528    -0.390372    -0.369766    -0.353871    -0.344241    -0.329189

        21.1         22.1         23.1         24.1         25.1         26.1         27.1
     -0.326360    -0.296186    -0.289895    -0.183965    -0.122328     0.282402     0.363331

 HOMO     25.1    -0.122328 =      -3.3287eV
 LUMO     26.1     0.282402 =       7.6845eV
 LUMO-HOMO         0.404730 =      11.0133eV

 EXPECTATION VALUE OF S**2:            -0.00000000

 Natural orbitals saved to record    2200.2 (Orbital set 3)

 Orbital spaces for UNO-CAS (Min. occupation: 0.020  Max. occupation: 1.980):

 Closed:       25
 Active:        0


 **********************************************************************************************************************************
 DATASETS  * FILE   NREC   LENGTH (MB)   RECORD NAMES
              1      20       34.09       500      610      700      900      950      970     1000      129      960     1100   
                                          VAR    BASINP    GEOM    SYMINP    ZMAT    AOBASIS   BASIS     P2S    ABASIS      S 
                                         1400     1410     1200     1210     1080     1600     1650     1300     1700     1800   
                                           T        V       H0       H01     AOSYM     SMH    MOLCAS    ERIS     OPER     GRID   

              2       5        3.13       700     1000      520     1800     2200   
                                         GEOM     BASIS   MCVARS    GRID      UKS  

 PROGRAMS   *        TOTAL       UKS       INT
 CPU TIMES  *        10.47      9.50      0.82
 REAL TIME  *        13.36 SEC
 DISK USED  *        42.19 MB      
 **********************************************************************************************************************************


 PROGRAM * Intrinsic Basis Bonding Analysis (IBBA)          Author: G. Knizia

 Molecular orbitals read from record     2200.2  Type=UKS/ALPHA (state 1.1)
 Fock matrix read from record            2200.2  Type=UKS/TOTAL (state 1.1)
 Orbital energies read from record       2200.2  Type=UKS/ALPHA (state 1.1)
 Density matrix read from record         2200.2  Type=UKS/CHARGE (state 1.1)

 Number of core orbitals:           6 (   6 )
 Number of closed-shell orbitals:  19 (  19 )

 Basis set MINAO-AUTO-PP generated.      Number of basis functions:   42 

 Polarized AO type:                A = (O Ot + (1-O)(1-Ot)) P12
 Orthogonalization method:         Symmetric (Loewdin)
 Localization functional:          L = sum[A,i] <i|n_A|i>^4 -> max

 Localization group 1:  25 orbitals, occupancy  2.000
 Iterative localization: IB/PM,    7 iter; Final gradient 0.25E-08

 Bond order analysis:       [THRPRINT= 0.020]

   CEN ATOM   CEN ATOM     WIBERG.BO      RENORM.BO
     1   C  -   2   C       0.990692       0.988902
     1   C  -   5   H       0.967287       0.990045
     1   C  -   6   H       0.964089       0.987503
     1   C  -   7   H       0.964089       0.987503

     2   C  -   1   C       0.990692       0.988902
     2   C  -  12   C       0.987461       0.964903
     2   C  -  11   C       0.987461       0.964903
     2   C  -   3   O       0.975818       0.961299

     3   O  -   4   C       1.019428       1.013871
     3   O  -   2   C       0.975818       0.961299
     3   O  -   9   H       0.029235       0.017264
     3   O  -  10   H       0.029235       0.017264
     3   O  -  11   C       0.024554       0.012984
     3   O  -  12   C       0.024554       0.012984

     4   C  -   3   O       1.019428       1.013871
     4   C  -   8   H       0.955426       0.975204
     4   C  -   9   H       0.954512       0.946967
     4   C  -  10   H       0.954512       0.946967

     5   H  -   1   C       0.967287       0.990045

     6   H  -   1   C       0.964089       0.987503

     7   H  -   1   C       0.964089       0.987503

     8   H  -   4   C       0.955426       0.975204

     9   H  -   4   C       0.954512       0.946967
     9   H  -   3   O       0.029235       0.017264

    10   H  -   4   C       0.954512       0.946967
    10   H  -   3   O       0.029235       0.017264

    11   C  -   2   C       0.987461       0.964903
    11   C  -  17   H       0.966171       0.986374
    11   C  -  15   H       0.964973       0.989885
    11   C  -  13   H       0.964703       0.987370
    11   C  -   3   O       0.024554       0.012984

    12   C  -   2   C       0.987461       0.964903
    12   C  -  18   H       0.966171       0.986374
    12   C  -  16   H       0.964973       0.989885
    12   C  -  14   H       0.964703       0.987370
    12   C  -   3   O       0.024554       0.012984

    13   H  -  11   C       0.964703       0.987370

    14   H  -  12   C       0.964703       0.987370

    15   H  -  11   C       0.964973       0.989885

    16   H  -  12   C       0.964973       0.989885

    17   H  -  11   C       0.966171       0.986374

    18   H  -  12   C       0.966171       0.986374


 Valency analysis:

   CEN ATOM   TOT.VALENCE
     1   C       3.934748
     2   C       3.970424
     3   O       2.156598
     4   C       3.905797
     5   H       0.983414
     6   H       0.981625
     7   H       0.981625
     8   H       0.980586
     9   H       0.987875
    10   H       0.987875
    11   C       3.936228
    12   C       3.936228
    13   H       0.982279
    14   H       0.982279
    15   H       0.982455
    16   H       0.982455
    17   H       0.984128
    18   H       0.984128

 Total charge composition:

   CEN ATOM         s          p       ELECTRONS ->P.CHARGE
     1   C       2.99794    3.38814      6.38607   -0.38607
     2   C       2.94662    2.92810      5.87472    0.12528
     3   O       3.65672    4.57072      8.22744   -0.22744
     4   C       3.00289    3.25334      6.25623   -0.25623
     5   H       0.87121                 0.87121    0.12879
     6   H       0.86444                 0.86444    0.13556
     7   H       0.86444                 0.86444    0.13556
     8   H       0.86067                 0.86067    0.13933
     9   H       0.88989                 0.88989    0.11011
    10   H       0.88989                 0.88989    0.11011
    11   C       2.99861    3.40045      6.39906   -0.39906
    12   C       2.99861    3.40045      6.39906   -0.39906
    13   H       0.86688                 0.86688    0.13312
    14   H       0.86688                 0.86688    0.13312
    15   H       0.86754                 0.86754    0.13246
    16   H       0.86754                 0.86754    0.13246
    17   H       0.87402                 0.87402    0.12598
    18   H       0.87402                 0.87402    0.12598

 Total charge composition, AO contributions:

   CEN ATOM SHL      SPHERICAL COMPONENTS
     1   C  1s       1.99187
     1   C  2s       1.00607
     1   C  2p       1.16615    1.17478    1.04721

     2   C  1s       1.99331
     2   C  2s       0.95331
     2   C  2p       0.86718    1.03026    1.03066

     3   O  1s       1.99744
     3   O  2s       1.65928
     3   O  2p       1.31757    1.91718    1.33597

     4   C  1s       1.99242
     4   C  2s       1.01047
     4   C  2p       1.16477    1.17253    0.91604

     5   H  1s       0.87121

     6   H  1s       0.86444

     7   H  1s       0.86444

     8   H  1s       0.86067

     9   H  1s       0.88989

    10   H  1s       0.88989

    11   C  1s       1.99193
    11   C  2s       1.00668
    11   C  2p       1.14884    1.09790    1.15371

    12   C  1s       1.99193
    12   C  2s       1.00668
    12   C  2p       1.14884    1.09790    1.15371

    13   H  1s       0.86688

    14   H  1s       0.86688

    15   H  1s       0.86754

    16   H  1s       0.86754

    17   H  1s       0.87402

    18   H  1s       0.87402

 Summary of localized orbital composition:   [THRPRINT= 0.020]

   ORB  GRP  ORB.ENERGY      CENTERS/CHARGES
     1   1   -18.694445      O  3   2.000
     2   1    -9.969910      C  2   2.000
     3   1    -9.932395      C  4   2.000
     4   1    -9.884848      C 11   2.000
     5   1    -9.884848      C 12   2.000
     6   1    -9.884561      C  1   2.000
     7   1    -0.653299      O  3   1.161   C  4   0.830
     8   1    -0.618796      O  3   1.170   C  2   0.806   (other: 0.024)
     9   1    -0.521737      C 11   0.995   C  2   0.991
    10   1    -0.521737      C 12   0.995   C  2   0.991
    11   1    -0.521411      C  2   0.996   C  1   0.981   (other: 0.023)
    12   1    -0.496235      O  3   1.970   (other: 0.030)
    13   1    -0.480165      C  4   1.126   H 10   0.872
    14   1    -0.480165      C  4   1.126   H  9   0.872
    15   1    -0.480103      C  4   1.139   H  8   0.852
    16   1    -0.465785      C 12   1.124   H 18   0.867
    17   1    -0.465785      C 11   1.124   H 17   0.867
    18   1    -0.465365      C 11   1.129   H 15   0.861
    19   1    -0.465365      C 12   1.129   H 16   0.861
    20   1    -0.465170      C  1   1.125   H  5   0.865
    21   1    -0.461790      C 12   1.131   H 14   0.860
    22   1    -0.461790      C 11   1.131   H 13   0.860
    23   1    -0.458491      C  1   1.133   H  6   0.858
    24   1    -0.458491      C  1   1.133   H  7   0.858
    25   1    -0.158871      O  3   1.917   (other: 0.083)

 Localized orbitals saved to record      2200.2  (orbital set 4)


 **********************************************************************************************************************************
 DATASETS  * FILE   NREC   LENGTH (MB)   RECORD NAMES
              1      20       34.09       500      610      700      900      950      970     1000      129      960     1100   
                                          VAR    BASINP    GEOM    SYMINP    ZMAT    AOBASIS   BASIS     P2S    ABASIS      S 
                                         1400     1410     1200     1210     1080     1600     1650     1300     1700     1800   
                                           T        V       H0       H01     AOSYM     SMH    MOLCAS    ERIS     OPER     GRID   

              2       5        3.15       700     1000      520     1800     2200   
                                         GEOM     BASIS   MCVARS    GRID      UKS  

 PROGRAMS   *        TOTAL      IBBA       UKS       INT
 CPU TIMES  *        10.51      0.04      9.50      0.82
 REAL TIME  *        13.56 SEC
 DISK USED  *        42.19 MB      
 **********************************************************************************************************************************
 Molecular orbitals read from record     2200.2  Type=UKS/LOCAL(IBO)  
 Occupation numbers read from record     2200.2  Type=UKS/LOCAL(IBO)  
 Orbital energies read from record       2200.2  Type=UKS/LOCAL(IBO)  
 Redundancy group numbers read from rec  2200.2  Type=UKS/BETA (state 1.1)

 IBBA/STO-3G energy=      0.000000000000

        UKS-SCF 
   -269.39428689
 **********************************************************************************************************************************
 Molpro calculation terminated
