
 Primary working directories    : /tmp/sb13343
 Secondary working directories  : /tmp/sb13343
 Wavefunction directory         : /panfs/panasas01/chem/sb13343/wfu/
 Main file repository           : /tmp/sb13343/

 SHA1      : b4a5b34a9e711420743f49e6833241d17c61fb3c
 NAME      : 2099.9.b4a5b34
 ARCHNAME  : linux/x86_64_openmp
 FC        : /cm/shared/languages/GCC-6.1/bin/gfortran
 BLASLIB   : -lblas
 id        : simonbennie

 Nodes     nprocs
 node32-030    1

 Using customized tuning parameters: mindgm=1; mindgv=20; mindgc=4; mindgr=1; noblas=0; minvec=7
 default implementation of scratch files=df  

 memory,500,m
 geomtyp=xyz
 nosym
 noorient
 geometry={
 H         -1.13405        1.76167        0.00000
 C         -1.32915        0.67205        0.00000
 C         -0.06360       -0.12883        0.00000
 C          0.67426       -0.31636        1.28970
 C          0.67426       -0.31636       -1.28970
 H         -1.94006        0.46750        0.88859
 H         -1.94006        0.46750       -0.88859
 H          1.28359        0.56876        1.55544
 H         -0.01165       -0.48291        2.13019
 H          1.36783       -1.16569        1.24157
 H          1.28359        0.56876       -1.55544
 H         -0.01165       -0.48291       -2.13019
 H          1.36783       -1.16569       -1.24157
 }
 basis={ default,svp }
 {uks,LYP88,direct;wf,33,1,1}
 {ibba,bonds=1}

 Variables initialized (895), CPU time= 0.01 sec
 Commands  initialized (725), CPU time= 0.01 sec, 591 directives.
 Default parameters read. Elapsed time= 0.08 sec

 Checking input...
 Passed
1


                                         ***  PROGRAM SYSTEM MOLPRO  ***
                                       Copyright, TTI GmbH Stuttgart, 2015
                                    Version 2099.9 linked May 26 2017 16:03:21


 **********************************************************************************************************************************
 LABEL *                                                                                 
  64 bit serial version                                                                  DATE: 08-Jun-17          TIME: 20:39:21  
 **********************************************************************************************************************************

 SHA1:             b4a5b34a9e711420743f49e6833241d17c61fb3c
 **********************************************************************************************************************************
 SETTING GEOMTYP        =    XYZ

 Variable memory set to  500000000 words,  buffer space 

 ZSYMEL=NOSYM

 SETTING BASIS          =    SVP


 Recomputing integrals since basis changed


 Using spherical harmonics

 Library entry H      S def2-SVP             selected for orbital group  1
 Library entry H      P def2-SVP             selected for orbital group  1
 Library entry C      S def2-SVP             selected for orbital group  2
 Library entry C      P def2-SVP             selected for orbital group  2
 Library entry C      D def2-SVP             selected for orbital group  2


 PROGRAM * SEWARD (Integral evaluation for generally contracted gaussian basis sets)     Author: Roland Lindh, 1990

 Geometry written to block  1 of record 700


 Point group  C1  



 ATOMIC COORDINATES

 NR  ATOM    CHARGE       X              Y              Z

   1  H       1.00   -2.143043912    3.329073822    0.000000000
   2  C       6.00   -2.511729478    1.269990442    0.000000000
   3  C       6.00   -0.120186582   -0.243453417    0.000000000
   4  C       6.00    1.274166737   -0.597833757    2.437179783
   5  C       6.00    1.274166737   -0.597833757   -2.437179783
   6  H       1.00   -3.666182065    0.883446963    1.679191737
   7  H       1.00   -3.666182065    0.883446963   -1.679191737
   8  H       1.00    2.425633556    1.074800631    2.939355603
   9  H       1.00   -0.022015309   -0.912567643    4.025475693
  10  H       1.00    2.584824085   -2.202834846    2.346227264
  11  H       1.00    2.425633556    1.074800631   -2.939355603
  12  H       1.00   -0.022015309   -0.912567643   -4.025475693
  13  H       1.00    2.584824085   -2.202834846   -2.346227264

 Bond lengths in Bohr (Angstrom)

 1-2  2.091830159  2-3  2.830192527  2-6  2.074092940  2-7  2.074092940  3-4  2.830132841
     ( 1.106948849)     ( 1.497673388)     ( 1.097562717)     ( 1.097562717)     ( 1.497641803)

  3- 5  2.830132841   4- 8  2.091832255   4- 9  2.074085151   4-10  2.074156104   5-11  2.091832255
       ( 1.497641803)       ( 1.106949959)       ( 1.097558596)       ( 1.097596142)       ( 1.106949959)

  5-12  2.074085151   5-13  2.074156104
       ( 1.097558596)       ( 1.097596142)

 Bond angles

  1-2-3  112.17549786   1-2-6  106.35284965   1-2-7  106.35284965   2-3-4  118.89987932

  2-3-5  118.89987932   3-2-6  111.75744418   3-2-7  111.75744418   3-4-8  112.19808176

  3- 4- 9  111.75014522   3- 4-10  111.74379558   3- 5-11  112.19808176   3- 5-12  111.75014522

  3- 5-13  111.74379558   4- 3- 5  118.89276928   6- 2- 7  108.11431090   8- 4- 9  106.34995457

  8- 4-10  106.34572146   9- 4-10  108.12296896  11- 5-12  106.34995457  11- 5-13  106.34572146

 12- 5-13  108.12296896

 NUCLEAR CHARGE:                   33
 NUMBER OF PRIMITIVE AOS:         163
 NUMBER OF SYMMETRY AOS:          159
 NUMBER OF CONTRACTIONS:          101   ( 101A   )
 NUMBER OF CORE ORBITALS:           4   (   4A   )
 NUMBER OF VALENCE ORBITALS:       25   (  25A   )


 NUCLEAR REPULSION ENERGY  124.92676597


 Eigenvalues of metric

         1 0.371E-02 0.424E-02 0.424E-02 0.242E-01 0.242E-01 0.268E-01 0.277E-01 0.371E-01


 Contracted 2-electron integrals neglected if value below      1.0D-11
 AO integral compression algorithm  1   Integral accuracy      1.0D-11

     53.477 MB (compressed) written to integral file ( 46.4%)


 NUMBER OF SORTED TWO-ELECTRON INTEGRALS:   13268976.     BUFFER LENGTH:  32768
 NUMBER OF SEGMENTS:   1  SEGMENT LENGTH:   13268976      RECORD LENGTH: 524288

 Memory used in sort:      13.83 MW

 SORT1 READ    14422061. AND WROTE    12225547. INTEGRALS IN     35 RECORDS. CPU TIME:     0.18 SEC, REAL TIME:     0.35 SEC
 SORT2 READ    12225547. AND WROTE    13268976. INTEGRALS IN    204 RECORDS. CPU TIME:     0.35 SEC, REAL TIME:     0.44 SEC

 FILE SIZES:   FILE 1:    84.0 MBYTE,  FILE 4:   146.8 MBYTE,   TOTAL:    230.9 MBYTE

 OPERATOR DM      FOR CENTER  0  COORDINATES:    0.000000    0.000000    0.000000


 **********************************************************************************************************************************
 DATASETS  * FILE   NREC   LENGTH (MB)   RECORD NAMES
              1      19       77.16       500      610      700      900      950      970     1000      129      960     1100   
                                          VAR    BASINP    GEOM    SYMINP    ZMAT    AOBASIS   BASIS     P2S    ABASIS      S 
                                         1400     1410     1200     1210     1080     1600     1650     1300     1700   
                                           T        V       H0       H01     AOSYM     SMH    MOLCAS    ERIS     OPER   

 PROGRAMS   *        TOTAL       INT
 CPU TIMES  *         2.43      2.29
 REAL TIME  *         3.15 SEC
 DISK USED  *       231.35 MB      
 **********************************************************************************************************************************

 Density functional group LYP88=LYP
 Functional: LYP(Automatically generated (new) LYP)                            Gradient terms: 1
 Use grid at  1800.2

 Functional: LYP                       Factor:  1.0000

 Generated new metagrid on record  1800.2 with target accuracy 1.0D-06 and 45406 points in CPU time    1.3
 Computed new grid on record 1800.1 in CPU time    1.5
   84355 words reserved for DFT integration

 PROGRAM * UKS-SCF (Unrestricted Kohn-Sham)     Authors: W. Meyer, H.-J. Werner, P.J. Knowles, 1993

 NUMBER OF ELECTRONS:      17+   16-    SPACE SYMMETRY=1    SPIN SYMMETRY: Doublet 
 CONVERGENCE THRESHOLDS:    1.00E-05 (Density)    1.00E-06 (Energy)
 MAX. NUMBER OF ITERATIONS:       60
 INTERPOLATION TYPE:            DIIS
 INTERPOLATION STEPS:              2 (START)      1 (STEP)
 LEVEL SHIFTS:                 -0.20 (ALPHA)  -0.20 (BETA) 



 Use fine grid record 1800.2 for energy threshold  1.0D-06
 Orbital guess generated from atomic densities. Full valence occupancy:   17

 Molecular orbital dump at record        2200.2

 Initial alpha occupation  17
 Initial beta  occupation  16

 ITERATION    DDIFF          GRAD             ENERGY        2-EL.EN.            DIPOLE MOMENTS         DIIS
    1      0.000D+00      0.000D+00      -134.23438487    371.277115   -0.38981   -0.78923    0.00000    0
    2      0.259D-01      0.487D-02      -134.29907120    386.793751   -0.16267   -0.32930    0.00000    1
    3      0.550D-02      0.344D-02      -134.35302374    380.734815   -0.20398   -0.41291    0.00000    2
    4      0.471D-02      0.260D-03      -134.35404120    380.881410   -0.17083   -0.34581    0.00000    3
    5      0.309D-02      0.182D-03      -134.35454151    380.940841   -0.15637   -0.31651    0.00000    4
    6      0.626D-02      0.135D-03      -134.35530992    381.009607   -0.12351   -0.24992   -0.00000    5
    7      0.493D-02      0.886D-04      -134.35575810    381.040724   -0.10534   -0.21308   -0.00000    6
    8      0.368D-02      0.514D-04      -134.35596805    381.074137   -0.08812   -0.17812    0.00000    7
    9      0.189D-02      0.252D-04      -134.35601536    381.076195   -0.08173   -0.16517    0.00000    8
   10      0.514D-03      0.875D-05      -134.35601929    381.081158   -0.07877   -0.15916    0.00000    9
   11      0.848D-04      0.244D-05      -134.35601951    381.084661   -0.07879   -0.15921    0.00000    8
   12      0.143D-04      0.156D-05      -134.35601953    381.081207   -0.07872   -0.15906    0.00000    9
   13      0.682D-05      0.579D-06      -134.35601954    381.082136   -0.07873   -0.15909   -0.00000    9
   14      0.126D-05      0.853D-07      -134.35601954    381.082023   -0.07873   -0.15909    0.00000    9

 Final alpha occupancy:  17
 Final beta  occupancy:  16

 !UKS STATE 1.1 Energy               -134.356019535667
 Nuclear energy                       124.92676597
 One-electron energy                 -448.80974182
 Two-electron energy                  190.54101159
 Density functional                    -1.01405528     LYP=-1.01405528
 Virial quotient                       -0.91866358
 !UKS STATE 1.1 Dipole moment          -0.07873222    -0.15908729     0.00000000
 Dipole moment /Debye                  -0.20010423    -0.40433307     0.00000000

 Orbital energies for positive spin:

         1.1          2.1          3.1          4.1          5.1          6.1          7.1          8.1          9.1         10.1
     -8.215054    -8.215050    -8.214841    -8.198682    -0.404483    -0.302013    -0.302001    -0.165870    -0.127490    -0.118558

        11.1         12.1         13.1         14.1         15.1         16.1         17.1         18.1         19.1
     -0.118558    -0.057597    -0.057556    -0.029482    -0.021111    -0.021105     0.141188     0.180958     0.235731

 Orbital energies for negative spin:

         1.1          2.1          3.1          4.1          5.1          6.1          7.1          8.1          9.1         10.1
     -8.215100    -8.215096    -8.214924    -8.200026    -0.407985    -0.303345    -0.303332    -0.168662    -0.132291    -0.119977

        11.1         12.1         13.1         14.1         15.1         16.1         17.1         18.1         19.1
     -0.119976    -0.059400    -0.059359    -0.030021    -0.022812    -0.022809     0.128332     0.177600     0.232773

 HOMO     17.1     0.141188 =       3.8419eV
 LUMO    -17.1     0.128332 =       3.4921eV
 LUMO-HOMO        -0.012856 =      -0.3498eV

 EXPECTATION VALUE OF S**2:             0.75029789

 Occupation number threshold for canonical orbitals:  1.999000 (occupied),  0.001000 (virtual)

 Number of pseudo-canonical orbitals per symmetry:   16
 Number of active natural orbitals per symmetry:      1

 Natural orbitals saved to record    2200.2 (Orbital set 3)

 Orbital spaces for UNO-CAS (Min. occupation: 0.020  Max. occupation: 1.980):

 Closed:       16
 Active:        1


 **********************************************************************************************************************************
 DATASETS  * FILE   NREC   LENGTH (MB)   RECORD NAMES
              1      20       78.61       500      610      700      900      950      970     1000      129      960     1100   
                                          VAR    BASINP    GEOM    SYMINP    ZMAT    AOBASIS   BASIS     P2S    ABASIS      S 
                                         1400     1410     1200     1210     1080     1600     1650     1300     1700     1800   
                                           T        V       H0       H01     AOSYM     SMH    MOLCAS    ERIS     OPER     GRID   

              2       5        3.39       700     1000      520     1800     2200   
                                         GEOM     BASIS   MCVARS    GRID      UKS  

 PROGRAMS   *        TOTAL       UKS       INT
 CPU TIMES  *        20.52     18.09      2.29
 REAL TIME  *        22.10 SEC
 DISK USED  *       231.35 MB      
 **********************************************************************************************************************************


 PROGRAM * Intrinsic Basis Bonding Analysis (IBBA)          Author: G. Knizia

 Molecular orbitals read from record     2200.2  Type=UKS/ALPHA (state 1.1)
 Fock matrix read from record            2200.2  Type=UKS/TOTAL (state 1.1)
 Orbital energies read from record       2200.2  Type=UKS/ALPHA (state 1.1)
 Density matrix read from record         2200.2  Type=UKS/CHARGE (state 1.1)

 Number of core orbitals:           4 (   4 )
 Number of closed-shell orbitals:  12 (  12 )
 Number of active  orbitals:        1 (   1 )

 Basis set MINAO-AUTO-PP generated.      Number of basis functions:   29 

 Polarized AO type:                A = (O Ot + (1-O)(1-Ot)) P12
 Orthogonalization method:         Symmetric (Loewdin)
 Localization functional:          L = sum[A,i] <i|n_A|i>^4 -> max

 Localization group 1:  16 orbitals, occupancy  2.000
 Iterative localization: IB/PM,    8 iter; Final gradient 0.26E-08

 Bond order analysis:       [THRPRINT= 0.020]

   CEN ATOM   CEN ATOM     WIBERG.BO      RENORM.BO
     1   H  -   2   C       0.879879       0.995689
     1   H  -   3   C       0.058253       0.161792

     2   C  -   3   C       1.124646       1.306129
     2   C  -   7   H       0.939862       0.971517
     2   C  -   6   H       0.939862       0.971517
     2   C  -   1   H       0.879879       0.995689

     3   C  -   2   C       1.124646       1.306129
     3   C  -   5   C       1.124609       1.306065
     3   C  -   4   C       1.124609       1.306065
     3   C  -   1   H       0.058253       0.161792
     3   C  -  11   H       0.058202       0.161642
     3   C  -   8   H       0.058202       0.161642

     4   C  -   3   C       1.124609       1.306065
     4   C  -   9   H       0.939924       0.971499
     4   C  -  10   H       0.939778       0.971545
     4   C  -   8   H       0.879941       0.995678

     5   C  -   3   C       1.124609       1.306065
     5   C  -  12   H       0.939924       0.971499
     5   C  -  13   H       0.939778       0.971545
     5   C  -  11   H       0.879941       0.995678

     6   H  -   2   C       0.939862       0.971517

     7   H  -   2   C       0.939862       0.971517

     8   H  -   4   C       0.879941       0.995678
     8   H  -   3   C       0.058202       0.161642

     9   H  -   4   C       0.939924       0.971499

    10   H  -   4   C       0.939778       0.971545

    11   H  -   5   C       0.879941       0.995678
    11   H  -   3   C       0.058202       0.161642

    12   H  -   5   C       0.939924       0.971499

    13   H  -   5   C       0.939778       0.971545


 Valency analysis:

   CEN ATOM   TOT.VALENCE
     1   H       0.980073
     2   C       3.958729
     3   C       3.634953
     4   C       3.958720
     5   C       3.958720
     6   H       0.995718
     7   H       0.995718
     8   H       0.980084
     9   H       0.995727
    10   H       0.995707
    11   H       0.980084
    12   H       0.995727
    13   H       0.995707
 Localization group 2:   1 orbitals, occupancy  1.000
 Iterative localization: IB/PM,    1 iter; Final gradient 0.00E+00

 Bond order analysis:       [THRPRINT= 0.020]

   CEN ATOM   CEN ATOM     WIBERG.BO      RENORM.BO
     1   H  -   3   C       0.124665       0.500000
     1   H  -  11   H       0.021737       0.500000
     1   H  -   8   H       0.021737       0.500000


     3   C  -   1   H       0.124665       0.500000
     3   C  -  11   H       0.124631       0.500000
     3   C  -   8   H       0.124631       0.500000





     8   H  -   3   C       0.124631       0.500000
     8   H  -   1   H       0.021737       0.500000
     8   H  -  11   H       0.021731       0.500000



    11   H  -   3   C       0.124631       0.500000
    11   H  -   1   H       0.021737       0.500000
    11   H  -   8   H       0.021731       0.500000




 Valency analysis:

   CEN ATOM   TOT.VALENCE
     1   H       0.186789
     2   C       0.004104
     3   C       0.480861
     4   C       0.004096
     5   C       0.004096
     6   H       0.027364
     7   H       0.027364
     8   H       0.186744
     9   H       0.027261
    10   H       0.027495
    11   H       0.186744
    12   H       0.027261
    13   H       0.027495

 Total charge composition:

   CEN ATOM         s          p       ELECTRONS ->P.CHARGE
     1   H       0.96310                 0.96310    0.03690
     2   C       2.88845    3.28753      6.17598   -0.17598
     3   C       2.87425    3.01781      5.89206    0.10794
     4   C       2.88844    3.28756      6.17600   -0.17600
     5   C       2.88844    3.28756      6.17600   -0.17600
     6   H       0.94844                 0.94844    0.05156
     7   H       0.94844                 0.94844    0.05156
     8   H       0.96311                 0.96311    0.03689
     9   H       0.94845                 0.94845    0.05155
    10   H       0.94842                 0.94842    0.05158
    11   H       0.96311                 0.96311    0.03689
    12   H       0.94845                 0.94845    0.05155
    13   H       0.94842                 0.94842    0.05158

 Total charge composition, AO contributions:

   CEN ATOM SHL      SPHERICAL COMPONENTS
     1   H  1s       0.96310

     2   C  1s       1.99775
     2   C  2s       0.89070
     2   C  2p       1.08442    1.09437    1.10874

     3   C  1s       1.99830
     3   C  2s       0.87595
     3   C  2p       1.00698    1.00242    1.00841

     4   C  1s       1.99775
     4   C  2s       0.89069
     4   C  2p       1.10066    1.09967    1.08723

     5   C  1s       1.99775
     5   C  2s       0.89069
     5   C  2p       1.10066    1.09967    1.08723

     6   H  1s       0.94844

     7   H  1s       0.94844

     8   H  1s       0.96311

     9   H  1s       0.94845

    10   H  1s       0.94842

    11   H  1s       0.96311

    12   H  1s       0.94845

    13   H  1s       0.94842

 Active orbital charges:

   CEN ATOM         s          p       ELECTRONS ->SPIN.DEN
     1   H       0.10427                 0.10427    0.10427
     2   C       0.00191    0.00014      0.00206    0.00206
     3   C       0.00954    0.58829      0.59782    0.59782
     4   C       0.00191    0.00014      0.00205    0.00205
     5   C       0.00191    0.00014      0.00205    0.00205
     6   H       0.01387                 0.01387    0.01387
     7   H       0.01387                 0.01387    0.01387
     8   H       0.10424                 0.10424    0.10424
     9   H       0.01382                 0.01382    0.01382
    10   H       0.01394                 0.01394    0.01394
    11   H       0.10424                 0.10424    0.10424
    12   H       0.01382                 0.01382    0.01382
    13   H       0.01394                 0.01394    0.01394

 Active orbital charges, AO contributions:

   CEN ATOM SHL      SPHERICAL COMPONENTS
     1   H  1s       0.10427

     2   C  1s       0.00000
     2   C  2s       0.00191
     2   C  2p       0.00001    0.00013    0.00000

     3   C  1s       0.00000
     3   C  2s       0.00954
     3   C  2p       0.11513    0.47315    0.00000

     4   C  1s       0.00000
     4   C  2s       0.00191
     4   C  2p       0.00003    0.00010    0.00000

     5   C  1s       0.00000
     5   C  2s       0.00191
     5   C  2p       0.00003    0.00010    0.00000

     6   H  1s       0.01387

     7   H  1s       0.01387

     8   H  1s       0.10424

     9   H  1s       0.01382

    10   H  1s       0.01394

    11   H  1s       0.10424

    12   H  1s       0.01382

    13   H  1s       0.01394

 Summary of localized orbital composition:   [THRPRINT= 0.020]

   ORB  GRP  ORB.ENERGY      CENTERS/CHARGES
     1   1    -8.134426      C  2   2.000
     2   1    -8.134421      C  5   2.000
     3   1    -8.134421      C  4   2.000
     4   1    -8.128728      C  3   2.000
     5   1    -0.233610      C  4   1.027   C  3   0.948   (other: 0.024)
     6   1    -0.233610      C  5   1.027   C  3   0.948   (other: 0.024)
     7   1    -0.233593      C  2   1.027   C  3   0.948   (other: 0.024)
     8   1    -0.154441      C  2   1.046   H  1   0.846   C  3   0.099
     9   1    -0.154428      C  4   1.046   H  8   0.846   C  3   0.099
    10   1    -0.154428      C  5   1.046   H 11   0.846   C  3   0.099
    11   1    -0.147680      C  2   1.041   H  7   0.921   C  3   0.025
    12   1    -0.147680      C  2   1.041   H  6   0.921   C  3   0.025
    13   1    -0.147677      C  5   1.041   H 13   0.921   C  3   0.025
    14   1    -0.147677      C  4   1.041   H 10   0.921   C  3   0.025
    15   1    -0.147671      C  5   1.041   H 12   0.922   C  3   0.025
    16   1    -0.147671      C  4   1.041   H  9   0.922   C  3   0.025
    17   2     0.134770      C  3   0.598   H  1   0.104   H 11   0.104   H  8   0.104   (other: 0.089)

 Localized orbitals saved to record      2200.2  (orbital set 4)


 **********************************************************************************************************************************
 DATASETS  * FILE   NREC   LENGTH (MB)   RECORD NAMES
              1      20       78.61       500      610      700      900      950      970     1000      129      960     1100   
                                          VAR    BASINP    GEOM    SYMINP    ZMAT    AOBASIS   BASIS     P2S    ABASIS      S 
                                         1400     1410     1200     1210     1080     1600     1650     1300     1700     1800   
                                           T        V       H0       H01     AOSYM     SMH    MOLCAS    ERIS     OPER     GRID   

              2       5        3.47       700     1000      520     1800     2200   
                                         GEOM     BASIS   MCVARS    GRID      UKS  

 PROGRAMS   *        TOTAL      IBBA       UKS       INT
 CPU TIMES  *        20.56      0.03     18.09      2.29
 REAL TIME  *        22.22 SEC
 DISK USED  *       231.35 MB      
 **********************************************************************************************************************************
 Molecular orbitals read from record     2200.2  Type=UKS/LOCAL(IBO)  
 Occupation numbers read from record     2200.2  Type=UKS/LOCAL(IBO)  
 Orbital energies read from record       2200.2  Type=UKS/LOCAL(IBO)  
 Redundancy group numbers read from rec  2200.2  Type=UKS/BETA (state 1.1)

 IBBA/SVP energy=      0.000000000000

        UKS-SCF 
   -134.35601954
 **********************************************************************************************************************************
 Molpro calculation terminated
