
 Primary working directories    : /local
 Secondary working directories  : /local
 Wavefunction directory         : /local/
 Main file repository           : /local/

 SHA1      : b4a5b34a9e711420743f49e6833241d17c61fb3c
 NAME      : 2099.9.b4a5b34
 ARCHNAME  : linux/x86_64_openmp
 FC        : /cm/shared/languages/GCC-6.1/bin/gfortran
 BLASLIB   : -lblas
 id        : simonbennie

 Nodes     nprocs
 node35-022    1

 Using customized tuning parameters: mindgm=1; mindgv=20; mindgc=4; mindgr=1; noblas=0; minvec=7
 default implementation of scratch files=df  

 memory,500,m
 geomtyp=xyz
 nosym
 noorient
 geometry={
 C         -1.53233        0.02247        0.00000
 C         -0.00192        0.01421        0.00000
 O          0.37239        1.40356        0.00000
 H          1.34248        1.44036        0.00000
 H         -1.92991       -0.99819        0.00000
 H         -1.90797        0.54382       -0.88653
 H         -1.90797        0.54382        0.88653
 C          0.54303       -0.66466       -1.26580
 C          0.54303       -0.66466        1.26580
 H          0.17836       -0.14752       -2.15943
 H          0.17836       -0.14752        2.15943
 H          0.23752       -1.71600       -1.32280
 H          0.23752       -1.71600        1.32280
 H          1.64084       -0.63767       -1.28032
 H          1.64084       -0.63767        1.28032
 }
 basis={ default,tzvp }
 {ks,M05,direct;wf,42,1,0}
 {ibba,bonds=1}

 Variables initialized (895), CPU time= 0.00 sec
 Commands  initialized (725), CPU time= 0.02 sec, 591 directives.
 Default parameters read. Elapsed time= 0.20 sec

 Checking input...
 Passed
1


                                         ***  PROGRAM SYSTEM MOLPRO  ***
                                       Copyright, TTI GmbH Stuttgart, 2015
                                    Version 2099.9 linked May 26 2017 16:03:21


 **********************************************************************************************************************************
 LABEL *                                                                                 
  64 bit serial version                                                                  DATE: 12-Jun-17          TIME: 18:50:57  
 **********************************************************************************************************************************

 SHA1:             b4a5b34a9e711420743f49e6833241d17c61fb3c
 **********************************************************************************************************************************
 SETTING GEOMTYP        =    XYZ

 Variable memory set to  500000000 words,  buffer space 

 ZSYMEL=NOSYM

 SETTING BASIS          =    TZVP


 Recomputing integrals since basis changed


 Using spherical harmonics

 Library entry C      S def2-TZVP            selected for orbital group  1
 Library entry C      P def2-TZVP            selected for orbital group  1
 Library entry C      D def2-TZVP            selected for orbital group  1
 Library entry C      F def2-TZVP            selected for orbital group  1
 Library entry O      S def2-TZVP            selected for orbital group  2
 Library entry O      P def2-TZVP            selected for orbital group  2
 Library entry O      D def2-TZVP            selected for orbital group  2
 Library entry O      F def2-TZVP            selected for orbital group  2
 Library entry H      S def2-TZVP            selected for orbital group  3
 Library entry H      P def2-TZVP            selected for orbital group  3


 PROGRAM * SEWARD (Integral evaluation for generally contracted gaussian basis sets)     Author: Roland Lindh, 1990

 Geometry written to block  1 of record 700


 Point group  C1  



 ATOMIC COORDINATES

 NR  ATOM    CHARGE       X              Y              Z

   1  C       6.00   -2.895684032    0.042462146    0.000000000
   2  C       6.00   -0.003628274    0.026853008    0.000000000
   3  O       8.00    0.703715112    2.652343999    0.000000000
   4  H       1.00    2.536919528    2.721885921    0.000000000
   5  H       1.00   -3.647001345   -1.886305720    0.000000000
   6  H       1.00   -3.605540754    1.027670861   -1.675298901
   7  H       1.00   -3.605540754    1.027670861    1.675298901
   8  C       6.00    1.026177977   -1.256025366   -2.392015328
   9  C       6.00    1.026177977   -1.256025366    2.392015328
  10  H       1.00    0.337051552   -0.278772398   -4.080731285
  11  H       1.00    0.337051552   -0.278772398    4.080731285
  12  H       1.00    0.448847749   -3.242770030   -2.499729718
  13  H       1.00    0.448847749   -3.242770030    2.499729718
  14  H       1.00    3.100738214   -1.205021658   -2.419454152
  15  H       1.00    3.100738214   -1.205021658    2.419454152

 Bond lengths in Bohr (Angstrom)

 1-2  2.892097881  1-5  2.069933136  1-6  2.069096224  1-7  2.069096224  2-3  2.719106031
     ( 1.530432290)     ( 1.095361444)     ( 1.094918569)     ( 1.094918569)     ( 1.438888946)

  2- 8  2.903104402   2- 9  2.903104402   3- 4  1.834522965   8-10  2.069222119   8-12  2.071730422
       ( 1.536256691)       ( 1.536256691)       ( 0.970787746)       ( 1.094985190)       ( 1.096312526)

  8-14  2.075368508   9-11  2.069222119   9-13  2.071730422   9-15  2.075368508
       ( 1.098237719)       ( 1.094985190)       ( 1.096312526)       ( 1.098237719)

 Bond angles

  1-2-3  104.76902697   1-2-8  110.92255387   1-2-9  110.92255387   2-1-5  110.97328220

  2- 1- 6  110.22090701   2- 1- 7  110.22090701   2- 3- 4  107.25071562   2- 8-10  110.21836376

  2- 8-12  111.57747468   2- 8-14  110.77023896   2- 9-11  110.21836376   2- 9-13  111.57747468

  2- 9-15  110.77023896   3- 2- 8  109.53648747   3- 2- 9  109.53648747   5- 1- 6  108.61190457

  5- 1- 7  108.61190457   6- 1- 7  108.12870271   8- 2- 9  110.96453384  10- 8-12  108.52192632

 10- 8-14  108.08997829  11- 9-13  108.52192632  11- 9-15  108.08997829  12- 8-14  107.54424578

 13- 9-15  107.54424578

 NUCLEAR CHARGE:                   42
 NUMBER OF PRIMITIVE AOS:         335
 NUMBER OF SYMMETRY AOS:          310
 NUMBER OF CONTRACTIONS:          215   ( 215A   )
 NUMBER OF CORE ORBITALS:           5   (   5A   )
 NUMBER OF VALENCE ORBITALS:       30   (  30A   )


 NUCLEAR REPULSION ENERGY  198.77359127


 Eigenvalues of metric

         1 0.262E-03 0.510E-03 0.539E-03 0.594E-03 0.697E-03 0.755E-03 0.210E-02 0.239E-02


 Contracted 2-electron integrals neglected if value below      1.0D-11
 AO integral compression algorithm  1   Integral accuracy      1.0D-11

     977.797 MB (compressed) written to integral file ( 41.7%)


 NUMBER OF SORTED TWO-ELECTRON INTEGRALS:  269595810.     BUFFER LENGTH:  32768
 NUMBER OF SEGMENTS:  17  SEGMENT LENGTH:   15999762      RECORD LENGTH: 524288

 Memory used in sort:      16.56 MW

 SORT1 READ   292827432. AND WROTE   238500613. INTEGRALS IN    690 RECORDS. CPU TIME:     3.92 SEC, REAL TIME:    12.15 SEC
 SORT2 READ   238500613. AND WROTE   269595810. INTEGRALS IN   3730 RECORDS. CPU TIME:     6.17 SEC, REAL TIME:    23.43 SEC

 FILE SIZES:   FILE 1:  1009.7 MBYTE,  FILE 4:  2894.1 MBYTE,   TOTAL:   3903.8 MBYTE

 OPERATOR DM      FOR CENTER  0  COORDINATES:    0.000000    0.000000    0.000000


 **********************************************************************************************************************************
 DATASETS  * FILE   NREC   LENGTH (MB)   RECORD NAMES
              1      19      926.27       500      610      700      900      950      970     1000      129      960     1100   
                                          VAR    BASINP    GEOM    SYMINP    ZMAT    AOBASIS   BASIS     P2S    ABASIS      S 
                                         1400     1410     1200     1210     1080     1600     1650     1300     1700   
                                           T        V       H0       H01     AOSYM     SMH    MOLCAS    ERIS     OPER   

 PROGRAMS   *        TOTAL       INT
 CPU TIMES  *        28.10     27.94
 REAL TIME  *        64.26 SEC
 DISK USED  *         3.90 GB      
 **********************************************************************************************************************************

 Density functional group M05=XC-M05
 Functional: XC-M05(via MFM 1.6)                                               Gradient terms: 1
 Use grid at  1800.2


 Exact exchange will be calculated, factor:  0.2800

 Functional: XC-M05                    Factor:  1.0000

 Generated new metagrid on record  1800.2 with target accuracy 1.0D-06 and 54596 points in CPU time    1.7
 Computed new grid on record 1800.1 in CPU time    1.9
  175219 words reserved for DFT integration

 PROGRAM * RKS-SCF (Restricted closed shell Kohn-Sham)     Authors: W. Meyer, H.-J. Werner, P.J. Knowles, 1993

 NUMBER OF ELECTRONS:      21+   21-    SPACE SYMMETRY=1    SPIN SYMMETRY: Singlet 
 CONVERGENCE THRESHOLDS:    1.00E-05 (Density)    1.00E-06 (Energy)
 MAX. NUMBER OF ITERATIONS:       60
 INTERPOLATION TYPE:            DIIS
 INTERPOLATION STEPS:              2 (START)      1 (STEP)
 LEVEL SHIFTS:                  0.00 (CLOSED)  0.00 (OPEN) 



 Use fine grid record 1800.2 for energy threshold  1.0D-06
 Orbital guess generated from atomic densities. Full valence occupancy:   21

 Molecular orbital dump at record        2100.2

 Initial occupancy:  21

 ITERATION    DDIFF          GRAD             ENERGY        2-EL.EN.            DIPOLE MOMENTS         DIIS   ORB.
    1      0.000D+00      0.000D+00      -233.38673137    617.984884    0.69931   -0.84834    0.00000    0    start
    2      0.000D+00      0.678D-02      -233.30411310    586.714827   -0.13523   -0.02183    0.00000    1    diag
    3      0.976D-02      0.863D-02      -233.57927800    604.411133    0.37248   -0.58731    0.00000    2    diag
    4      0.627D-02      0.926D-03      -233.58168243    603.946872    0.35216   -0.46161    0.00000    3    diag
    5      0.496D-03      0.330D-03      -233.58199581    603.999442    0.35619   -0.51175    0.00000    4    diag
    6      0.234D-03      0.915D-04      -233.58201899    604.119496    0.35843   -0.50054    0.00000    5    diag
    7      0.587D-04      0.428D-04      -233.58202540    604.089257    0.35854   -0.50039    0.00000    6    diag
    8      0.193D-04      0.564D-05      -233.58202551    604.092721    0.35833   -0.50197    0.00000    7    diag
    9      0.439D-05      0.128D-05      -233.58202551    604.091987    0.35845   -0.50105    0.00000    0    orth

 Final occupancy:  21

 !RKS STATE 1.1 Energy               -233.582025513025
 Nuclear energy                       198.77359127
 One-electron energy                 -709.60856010
 Two-electron energy                  302.04599365
 SCF exchange energy                  -32.53922348     Factor= 0.2800
 Density functional                   -24.79305033     XC-M05=-24.79305033
 Virial quotient                       -1.00464850
 !RKS STATE 1.1 Dipole moment           0.35845277    -0.50104609     0.00000000
 Dipole moment /Debye                   0.91103639    -1.27344873     0.00000000

 Orbital energies:

         1.1          2.1          3.1          4.1          5.1          6.1          7.1          8.1          9.1         10.1
    -19.165827   -10.276022   -10.201299   -10.201291   -10.195857    -1.040843    -0.808877    -0.711021    -0.709827    -0.582580

        11.1         12.1         13.1         14.1         15.1         16.1         17.1         18.1         19.1         20.1
     -0.501300    -0.463302    -0.460181    -0.423122    -0.408502    -0.390747    -0.377388    -0.367071    -0.359567    -0.331123

        21.1         22.1         23.1
     -0.282553     0.024154     0.071898

 HOMO     21.1    -0.282553 =      -7.6887eV
 LUMO     22.1     0.024154 =       0.6573eV
 LUMO-HOMO         0.306707 =       8.3459eV


 **********************************************************************************************************************************
 DATASETS  * FILE   NREC   LENGTH (MB)   RECORD NAMES
              1      20      928.02       500      610      700      900      950      970     1000      129      960     1100   
                                          VAR    BASINP    GEOM    SYMINP    ZMAT    AOBASIS   BASIS     P2S    ABASIS      S 
                                         1400     1410     1200     1210     1080     1600     1650     1300     1700     1800   
                                           T        V       H0       H01     AOSYM     SMH    MOLCAS    ERIS     OPER     GRID   

              2       5        3.96       700     1000      520     1800     2100   
                                         GEOM     BASIS   MCVARS    GRID      RKS  

 PROGRAMS   *        TOTAL        KS       INT
 CPU TIMES  *       143.44    115.34     27.94
 REAL TIME  *       183.64 SEC
 DISK USED  *         3.90 GB      
 **********************************************************************************************************************************


 PROGRAM * Intrinsic Basis Bonding Analysis (IBBA)          Author: G. Knizia

 Molecular orbitals read from record     2100.2  Type=RKS/CANONICAL (state 1.1)
 Fock matrix read from record            2100.2  Type=RKS/TOTAL (state 1.1)
 Orbital energies read from record       2100.2  Type=RKS/CANONICAL (state 1.1)
 Density matrix read from record         2100.2  Type=RKS/CHARGE (state 1.1)

 Number of core orbitals:           5 (   5 )
 Number of closed-shell orbitals:  16 (  16 )

 Basis set MINAO-AUTO-PP generated.      Number of basis functions:   35 

 Polarized AO type:                A = (O Ot + (1-O)(1-Ot)) P12
 Orthogonalization method:         Symmetric (Loewdin)
 Localization functional:          L = sum[A,i] <i|n_A|i>^4 -> max

 Localization group 1:  21 orbitals, occupancy  2.000
 Iterative localization: IB/PM,    7 iter; Final gradient 0.32E-08

 Bond order analysis:       [THRPRINT= 0.020]

   CEN ATOM   CEN ATOM     WIBERG.BO      RENORM.BO
     1   C  -   2   C       0.996053       0.993180
     1   C  -   5   H       0.963402       0.987613
     1   C  -   6   H       0.958677       0.982148
     1   C  -   7   H       0.958677       0.982148

     2   C  -   1   C       0.996053       0.993180
     2   C  -   9   C       0.994548       0.975222
     2   C  -   8   C       0.994548       0.975222
     2   C  -   3   O       0.931593       0.952226

     3   O  -   2   C       0.931593       0.952226
     3   O  -   4   H       0.857710       0.977340
     3   O  -   8   C       0.027409       0.013969
     3   O  -   9   C       0.027409       0.013969

     4   H  -   3   O       0.857710       0.977340

     5   H  -   1   C       0.963402       0.987613

     6   H  -   1   C       0.958677       0.982148

     7   H  -   1   C       0.958677       0.982148

     8   C  -   2   C       0.994548       0.975222
     8   C  -  14   H       0.962924       0.982810
     8   C  -  12   H       0.959196       0.982232
     8   C  -  10   H       0.958936       0.981932
     8   C  -   3   O       0.027409       0.013969

     9   C  -   2   C       0.994548       0.975222
     9   C  -  15   H       0.962924       0.982810
     9   C  -  13   H       0.959196       0.982232
     9   C  -  11   H       0.958936       0.981932
     9   C  -   3   O       0.027409       0.013969

    10   H  -   8   C       0.958936       0.981932

    11   H  -   9   C       0.958936       0.981932

    12   H  -   8   C       0.959196       0.982232

    13   H  -   9   C       0.959196       0.982232

    14   H  -   8   C       0.962924       0.982810

    15   H  -   9   C       0.962924       0.982810


 Valency analysis:

   CEN ATOM   TOT.VALENCE
     1   C       3.935043
     2   C       3.926301
     3   O       1.908804
     4   H       0.876618
     5   H       0.981152
     6   H       0.978556
     7   H       0.978556
     8   C       3.937446
     9   C       3.937446
    10   H       0.978466
    11   H       0.978466
    12   H       0.980342
    13   H       0.980342
    14   H       0.982697
    15   H       0.982697

 Total charge composition:

   CEN ATOM         s          p       ELECTRONS ->P.CHARGE
     1   C       3.04876    3.37521      6.42396   -0.42396
     2   C       2.94050    2.79155      5.73205    0.26795
     3   O       3.65134    4.93495      8.58629   -0.58629
     4   H       0.64874                 0.64874    0.35126
     5   H       0.86271                 0.86271    0.13729
     6   H       0.85356                 0.85356    0.14644
     7   H       0.85356                 0.85356    0.14644
     8   C       3.05524    3.38281      6.43804   -0.43804
     9   C       3.05524    3.38281      6.43804   -0.43804
    10   H       0.85326                 0.85326    0.14674
    11   H       0.85326                 0.85326    0.14674
    12   H       0.85979                 0.85979    0.14021
    13   H       0.85979                 0.85979    0.14021
    14   H       0.86846                 0.86846    0.13154
    15   H       0.86846                 0.86846    0.13154

 Total charge composition, AO contributions:

   CEN ATOM SHL      SPHERICAL COMPONENTS
     1   C  1s       1.99102
     1   C  2s       1.05774
     1   C  2p       1.03844    1.16258    1.17419

     2   C  1s       1.99264
     2   C  2s       0.94787
     2   C  2p       1.00545    0.77886    1.00724

     3   O  1s       1.99712
     3   O  2s       1.65422
     3   O  2p       1.48069    1.49784    1.95642

     4   H  1s       0.64874

     5   H  1s       0.86271

     6   H  1s       0.85356

     7   H  1s       0.85356

     8   C  1s       1.99112
     8   C  2s       1.06412
     8   C  2p       1.14461    1.14386    1.09433

     9   C  1s       1.99112
     9   C  2s       1.06412
     9   C  2p       1.14461    1.14386    1.09433

    10   H  1s       0.85326

    11   H  1s       0.85326

    12   H  1s       0.85979

    13   H  1s       0.85979

    14   H  1s       0.86846

    15   H  1s       0.86846

 Summary of localized orbital composition:   [THRPRINT= 0.020]

   ORB  GRP  ORB.ENERGY      CENTERS/CHARGES
     1   1   -19.002445      O  3   2.000
     2   1   -10.183583      C  2   2.000
     3   1   -10.084888      C  9   2.000
     4   1   -10.084888      C  8   2.000
     5   1   -10.078649      C  1   2.000
     6   1    -0.777125      O  3   1.353   H  4   0.638
     7   1    -0.733569      O  3   1.292   C  2   0.690
     8   1    -0.597049      O  3   1.982
     9   1    -0.590041      C  8   1.009   C  2   0.976
    10   1    -0.590041      C  9   1.009   C  2   0.976
    11   1    -0.589934      C  1   0.992   C  2   0.985   (other: 0.023)
    12   1    -0.519307      C  9   1.136   H 13   0.851
    13   1    -0.519307      C  8   1.136   H 12   0.851
    14   1    -0.517384      C  9   1.127   H 15   0.862
    15   1    -0.517384      C  8   1.127   H 14   0.862
    16   1    -0.515472      C  1   1.131   H  5   0.856
    17   1    -0.512905      C  8   1.144   H 10   0.845
    18   1    -0.512905      C  9   1.144   H 11   0.845
    19   1    -0.507772      C  1   1.143   H  7   0.846
    20   1    -0.507772      C  1   1.143   H  6   0.846
    21   1    -0.315878      O  3   1.956   (other: 0.044)

 Localized orbitals saved to record      2100.2  (orbital set 2)


 **********************************************************************************************************************************
 DATASETS  * FILE   NREC   LENGTH (MB)   RECORD NAMES
              1      20      928.02       500      610      700      900      950      970     1000      129      960     1100   
                                          VAR    BASINP    GEOM    SYMINP    ZMAT    AOBASIS   BASIS     P2S    ABASIS      S 
                                         1400     1410     1200     1210     1080     1600     1650     1300     1700     1800   
                                           T        V       H0       H01     AOSYM     SMH    MOLCAS    ERIS     OPER     GRID   

              2       5        4.33       700     1000      520     1800     2100   
                                         GEOM     BASIS   MCVARS    GRID      RKS  

 PROGRAMS   *        TOTAL      IBBA        KS       INT
 CPU TIMES  *       143.50      0.06    115.34     27.94
 REAL TIME  *       183.94 SEC
 DISK USED  *         3.90 GB      
 **********************************************************************************************************************************
 Molecular orbitals read from record     2100.2  Type=RKS/LOCAL(IBO)  
 Occupation numbers read from record     2100.2  Type=RKS/LOCAL(IBO)  
 Orbital energies read from record       2100.2  Type=RKS/LOCAL(IBO)  
 Redundancy group numbers read from rec  2100.2  Type=RKS/LOCAL(IBO)  

 IBBA/TZVP energy=      0.000000000000

        KS-SCF  
   -233.58202551
 **********************************************************************************************************************************
 Molpro calculation terminated
