
 Primary working directories    : /local
 Secondary working directories  : /local
 Wavefunction directory         : /local/
 Main file repository           : /local/

 SHA1      : b4a5b34a9e711420743f49e6833241d17c61fb3c
 NAME      : 2099.9.b4a5b34
 ARCHNAME  : linux/x86_64_openmp
 FC        : /cm/shared/languages/GCC-6.1/bin/gfortran
 BLASLIB   : -lblas
 id        : simonbennie

 Nodes     nprocs
 node36-002    1

 Using customized tuning parameters: mindgm=1; mindgv=20; mindgc=4; mindgr=1; noblas=0; minvec=7
 default implementation of scratch files=df  

 memory,500,m
 geomtyp=xyz
 nosym
 noorient
 geometry={
 C         -1.53233        0.02247        0.00000
 C         -0.00192        0.01421        0.00000
 O          0.37239        1.40356        0.00000
 H          1.34248        1.44036        0.00000
 H         -1.92991       -0.99819        0.00000
 H         -1.90797        0.54382       -0.88653
 H         -1.90797        0.54382        0.88653
 C          0.54303       -0.66466       -1.26580
 C          0.54303       -0.66466        1.26580
 H          0.17836       -0.14752       -2.15943
 H          0.17836       -0.14752        2.15943
 H          0.23752       -1.71600       -1.32280
 H          0.23752       -1.71600        1.32280
 H          1.64084       -0.63767       -1.28032
 H          1.64084       -0.63767        1.28032
 }
 basis={ default,avdz }
 {ks,MM06-L,direct;wf,42,1,0}
 {ibba,bonds=1}

 Variables initialized (895), CPU time= 0.00 sec
 Commands  initialized (725), CPU time= 0.02 sec, 591 directives.
 Default parameters read. Elapsed time= 0.20 sec

 Checking input...
 Passed
1


                                         ***  PROGRAM SYSTEM MOLPRO  ***
                                       Copyright, TTI GmbH Stuttgart, 2015
                                    Version 2099.9 linked May 26 2017 16:03:21


 **********************************************************************************************************************************
 LABEL *                                                                                 
  64 bit serial version                                                                  DATE: 12-Jun-17          TIME: 16:27:23  
 **********************************************************************************************************************************

 SHA1:             b4a5b34a9e711420743f49e6833241d17c61fb3c
 **********************************************************************************************************************************
 SETTING GEOMTYP        =    XYZ

 Variable memory set to  500000000 words,  buffer space 

 ZSYMEL=NOSYM

 SETTING BASIS          =    AVDZ


 Recomputing integrals since basis changed


 Using spherical harmonics

 Library entry C      S aug-cc-pVDZ          selected for orbital group  1
 Library entry C      P aug-cc-pVDZ          selected for orbital group  1
 Library entry C      D aug-cc-pVDZ          selected for orbital group  1
 Library entry O      S aug-cc-pVDZ          selected for orbital group  2
 Library entry O      P aug-cc-pVDZ          selected for orbital group  2
 Library entry O      D aug-cc-pVDZ          selected for orbital group  2
 Library entry H      S aug-cc-pVDZ          selected for orbital group  3
 Library entry H      P aug-cc-pVDZ          selected for orbital group  3


 PROGRAM * SEWARD (Integral evaluation for generally contracted gaussian basis sets)     Author: Roland Lindh, 1990

 Geometry written to block  1 of record 700


 Point group  C1  



 ATOMIC COORDINATES

 NR  ATOM    CHARGE       X              Y              Z

   1  C       6.00   -2.895684032    0.042462146    0.000000000
   2  C       6.00   -0.003628274    0.026853008    0.000000000
   3  O       8.00    0.703715112    2.652343999    0.000000000
   4  H       1.00    2.536919528    2.721885921    0.000000000
   5  H       1.00   -3.647001345   -1.886305720    0.000000000
   6  H       1.00   -3.605540754    1.027670861   -1.675298901
   7  H       1.00   -3.605540754    1.027670861    1.675298901
   8  C       6.00    1.026177977   -1.256025366   -2.392015328
   9  C       6.00    1.026177977   -1.256025366    2.392015328
  10  H       1.00    0.337051552   -0.278772398   -4.080731285
  11  H       1.00    0.337051552   -0.278772398    4.080731285
  12  H       1.00    0.448847749   -3.242770030   -2.499729718
  13  H       1.00    0.448847749   -3.242770030    2.499729718
  14  H       1.00    3.100738214   -1.205021658   -2.419454152
  15  H       1.00    3.100738214   -1.205021658    2.419454152

 Bond lengths in Bohr (Angstrom)

 1-2  2.892097881  1-5  2.069933136  1-6  2.069096224  1-7  2.069096224  2-3  2.719106031
     ( 1.530432290)     ( 1.095361444)     ( 1.094918569)     ( 1.094918569)     ( 1.438888946)

  2- 8  2.903104402   2- 9  2.903104402   3- 4  1.834522965   8-10  2.069222119   8-12  2.071730422
       ( 1.536256691)       ( 1.536256691)       ( 0.970787746)       ( 1.094985190)       ( 1.096312526)

  8-14  2.075368508   9-11  2.069222119   9-13  2.071730422   9-15  2.075368508
       ( 1.098237719)       ( 1.094985190)       ( 1.096312526)       ( 1.098237719)

 Bond angles

  1-2-3  104.76902697   1-2-8  110.92255387   1-2-9  110.92255387   2-1-5  110.97328220

  2- 1- 6  110.22090701   2- 1- 7  110.22090701   2- 3- 4  107.25071562   2- 8-10  110.21836376

  2- 8-12  111.57747468   2- 8-14  110.77023896   2- 9-11  110.21836376   2- 9-13  111.57747468

  2- 9-15  110.77023896   3- 2- 8  109.53648747   3- 2- 9  109.53648747   5- 1- 6  108.61190457

  5- 1- 7  108.61190457   6- 1- 7  108.12870271   8- 2- 9  110.96453384  10- 8-12  108.52192632

 10- 8-14  108.08997829  11- 9-13  108.52192632  11- 9-15  108.08997829  12- 8-14  107.54424578

 13- 9-15  107.54424578

 NUCLEAR CHARGE:                   42
 NUMBER OF PRIMITIVE AOS:         295
 NUMBER OF SYMMETRY AOS:          285
 NUMBER OF CONTRACTIONS:          205   ( 205A   )
 NUMBER OF CORE ORBITALS:           5   (   5A   )
 NUMBER OF VALENCE ORBITALS:       30   (  30A   )


 NUCLEAR REPULSION ENERGY  198.77359127


 Eigenvalues of metric

         1 0.151E-04 0.552E-04 0.579E-04 0.110E-03 0.111E-03 0.217E-03 0.237E-03 0.259E-03


 Contracted 2-electron integrals neglected if value below      1.0D-12
 AO integral compression algorithm  1   Integral accuracy      1.0D-12

     1203.503 MB (compressed) written to integral file ( 61.3%)


 NUMBER OF SORTED TWO-ELECTRON INTEGRALS:  222932170.     BUFFER LENGTH:  32768
 NUMBER OF SEGMENTS:  14  SEGMENT LENGTH:   15999503      RECORD LENGTH: 524288

 Memory used in sort:      16.56 MW

 SORT1 READ   245224724. AND WROTE   218324786. INTEGRALS IN    630 RECORDS. CPU TIME:     3.18 SEC, REAL TIME:     9.61 SEC
 SORT2 READ   218324786. AND WROTE   222932170. INTEGRALS IN   4591 RECORDS. CPU TIME:     4.72 SEC, REAL TIME:    11.23 SEC

 FILE SIZES:   FILE 1:  1235.3 MBYTE,  FILE 4:  2642.4 MBYTE,   TOTAL:   3877.7 MBYTE

 OPERATOR DM      FOR CENTER  0  COORDINATES:    0.000000    0.000000    0.000000


 **********************************************************************************************************************************
 DATASETS  * FILE   NREC   LENGTH (MB)   RECORD NAMES
              1      19     1149.90       500      610      700      900      950      970     1000      129      960     1100   
                                          VAR    BASINP    GEOM    SYMINP    ZMAT    AOBASIS   BASIS     P2S    ABASIS      S 
                                         1400     1410     1200     1210     1080     1600     1650     1300     1700   
                                           T        V       H0       H01     AOSYM     SMH    MOLCAS    ERIS     OPER   

 PROGRAMS   *        TOTAL       INT
 CPU TIMES  *        19.98     19.83
 REAL TIME  *        52.66 SEC
 DISK USED  *         3.88 GB      
 **********************************************************************************************************************************

 Density functional group MM06-L=M06LX+M06LC
 Functional: M06LX(Automatically generated (new) M06LX)                        Gradient terms: 2
 Functional: M06LC(Automatically generated (new) M06LC)                        Gradient terms: 2
 Use grid at  1800.2

 Functional: M06LX                     Factor:  1.0000
 Functional: M06LC                     Factor:  1.0000

 Generated new metagrid on record  1800.2 with target accuracy 1.0D-06 and 53396 points in CPU time    1.6
 Computed new grid on record 1800.1 in CPU time    1.8
  323499 words reserved for DFT integration

 PROGRAM * RKS-SCF (Restricted closed shell Kohn-Sham)     Authors: W. Meyer, H.-J. Werner, P.J. Knowles, 1993

 NUMBER OF ELECTRONS:      21+   21-    SPACE SYMMETRY=1    SPIN SYMMETRY: Singlet 
 CONVERGENCE THRESHOLDS:    1.00E-05 (Density)    1.00E-06 (Energy)
 MAX. NUMBER OF ITERATIONS:       60
 INTERPOLATION TYPE:            DIIS
 INTERPOLATION STEPS:              2 (START)      1 (STEP)
 LEVEL SHIFTS:                  0.00 (CLOSED)  0.00 (OPEN) 



 Use fine grid record 1800.2 for energy threshold  1.0D-06
 Orbital guess generated from atomic densities. Full valence occupancy:   35

 Molecular orbital dump at record        2100.2

 Initial occupancy:  21

 ITERATION    DDIFF          GRAD             ENERGY        2-EL.EN.            DIPOLE MOMENTS         DIIS   ORB.
    1      0.000D+00      0.000D+00      -233.44264635    637.178161    0.66912   -0.77244    0.00000    0    start
    2      0.000D+00      0.748D-02      -233.17615602    597.967085   -0.39489   -0.07667    0.00000    1    diag
    3      0.427D-01      0.112D-01      -233.66213730    623.050383    0.38357   -0.67301    0.00000    2    diag
    4      0.212D-01      0.138D-02      -233.66793754    621.788967    0.32514   -0.46268    0.00000    3    diag
    5      0.315D-02      0.457D-03      -233.66857038    621.733242    0.32616   -0.54011    0.00000    4    diag
    6      0.259D-02      0.153D-03      -233.66863572    621.841388    0.32924   -0.51388    0.00000    5    diag
    7      0.391D-03      0.666D-04      -233.66865038    621.801960    0.33048   -0.51540    0.00000    6    diag
    8      0.149D-03      0.798D-05      -233.66865063    621.807478    0.32928   -0.51899    0.00000    7    diag
    9      0.538D-04      0.268D-05      -233.66865067    621.806920    0.32978   -0.51758    0.00000    8    diag
   10      0.184D-04      0.677D-06      -233.66865067    621.806918    0.32973   -0.51772    0.00000    9    orth
   11      0.732D-05      0.176D-06      -233.66865067    621.806956    0.32969   -0.51774    0.00000    0    orth

 Final occupancy:  21

 !RKS STATE 1.1 Energy               -233.668650671321
 Nuclear energy                       198.77359127
 One-electron energy                 -709.29829942
 Two-electron energy                  310.90347798
 Density functional                   -34.04742050     M06LX=-32.53235633 M06LC= -1.51506417
 Virial quotient                       -1.00661547
 !RKS STATE 1.1 Dipole moment           0.32969135    -0.51774460     0.00000000
 Dipole moment /Debye                   0.83793693    -1.31588932     0.00000000

 Orbital energies:

         1.1          2.1          3.1          4.1          5.1          6.1          7.1          8.1          9.1         10.1
    -18.973304   -10.115789   -10.049800   -10.049790   -10.044870    -0.991023    -0.752681    -0.655797    -0.654819    -0.531607

        11.1         12.1         13.1         14.1         15.1         16.1         17.1         18.1         19.1         20.1
     -0.452994    -0.414444    -0.411224    -0.375873    -0.361737    -0.346096    -0.332600    -0.321023    -0.314340    -0.287761

        21.1         22.1         23.1
     -0.234374    -0.010489     0.009359

 HOMO     21.1    -0.234374 =      -6.3777eV
 LUMO     22.1    -0.010489 =      -0.2854eV
 LUMO-HOMO         0.223885 =       6.0922eV


 **********************************************************************************************************************************
 DATASETS  * FILE   NREC   LENGTH (MB)   RECORD NAMES
              1      20     1151.61       500      610      700      900      950      970     1000      129      960     1100   
                                          VAR    BASINP    GEOM    SYMINP    ZMAT    AOBASIS   BASIS     P2S    ABASIS      S 
                                         1400     1410     1200     1210     1080     1600     1650     1300     1700     1800   
                                           T        V       H0       H01     AOSYM     SMH    MOLCAS    ERIS     OPER     GRID   

              2       5        3.87       700     1000      520     1800     2100   
                                         GEOM     BASIS   MCVARS    GRID      RKS  

 PROGRAMS   *        TOTAL        KS       INT
 CPU TIMES  *       208.72    188.73     19.83
 REAL TIME  *       243.41 SEC
 DISK USED  *         3.88 GB      
 **********************************************************************************************************************************


 PROGRAM * Intrinsic Basis Bonding Analysis (IBBA)          Author: G. Knizia

 Molecular orbitals read from record     2100.2  Type=RKS/CANONICAL (state 1.1)
 Fock matrix read from record            2100.2  Type=RKS/TOTAL (state 1.1)
 Orbital energies read from record       2100.2  Type=RKS/CANONICAL (state 1.1)
 Density matrix read from record         2100.2  Type=RKS/CHARGE (state 1.1)

 Number of core orbitals:           5 (   5 )
 Number of closed-shell orbitals:  16 (  16 )

 Basis set MINAO-AUTO-PP generated.      Number of basis functions:   35 

 Polarized AO type:                A = (O Ot + (1-O)(1-Ot)) P12
 Orthogonalization method:         Symmetric (Loewdin)
 Localization functional:          L = sum[A,i] <i|n_A|i>^4 -> max

 Localization group 1:  21 orbitals, occupancy  2.000
 Iterative localization: IB/PM,    7 iter; Final gradient 0.34E-08

 Bond order analysis:       [THRPRINT= 0.020]

   CEN ATOM   CEN ATOM     WIBERG.BO      RENORM.BO
     1   C  -   2   C       0.997509       0.994122
     1   C  -   5   H       0.963629       0.987481
     1   C  -   6   H       0.959159       0.981516
     1   C  -   7   H       0.959159       0.981516

     2   C  -   1   C       0.997509       0.994122
     2   C  -   9   C       0.995476       0.975697
     2   C  -   8   C       0.995476       0.975697
     2   C  -   3   O       0.928187       0.947112

     3   O  -   2   C       0.928187       0.947112
     3   O  -   4   H       0.859887       0.977373
     3   O  -   8   C       0.028281       0.014349
     3   O  -   9   C       0.028281       0.014349

     4   H  -   3   O       0.859887       0.977373

     5   H  -   1   C       0.963629       0.987481

     6   H  -   1   C       0.959159       0.981516

     7   H  -   1   C       0.959159       0.981516

     8   C  -   2   C       0.995476       0.975697
     8   C  -  14   H       0.963277       0.982226
     8   C  -  10   H       0.959519       0.981309
     8   C  -  12   H       0.958933       0.980479
     8   C  -   3   O       0.028281       0.014349

     9   C  -   2   C       0.995476       0.975697
     9   C  -  15   H       0.963277       0.982226
     9   C  -  11   H       0.959519       0.981309
     9   C  -  13   H       0.958933       0.980479
     9   C  -   3   O       0.028281       0.014349

    10   H  -   8   C       0.959519       0.981309

    11   H  -   9   C       0.959519       0.981309

    12   H  -   8   C       0.958933       0.980479

    13   H  -   9   C       0.958933       0.980479

    14   H  -   8   C       0.963277       0.982226

    15   H  -   9   C       0.963277       0.982226


 Valency analysis:

   CEN ATOM   TOT.VALENCE
     1   C       3.939392
     2   C       3.926322
     3   O       1.913043
     4   H       0.879362
     5   H       0.981682
     6   H       0.979330
     7   H       0.979330
     8   C       3.941440
     9   C       3.941440
    10   H       0.979324
    11   H       0.979324
    12   H       0.981176
    13   H       0.981176
    14   H       0.983298
    15   H       0.983298

 Total charge composition:

   CEN ATOM         s          p       ELECTRONS ->P.CHARGE
     1   C       3.06039    3.36014      6.42053   -0.42053
     2   C       2.94916    2.77102      5.72019    0.27981
     3   O       3.67129    4.91174      8.58303   -0.58303
     4   H       0.65267                 0.65267    0.34733
     5   H       0.86466                 0.86466    0.13534
     6   H       0.85623                 0.85623    0.14377
     7   H       0.85623                 0.85623    0.14377
     8   C       3.06657    3.36689      6.43346   -0.43346
     9   C       3.06657    3.36689      6.43346   -0.43346
    10   H       0.85621                 0.85621    0.14379
    11   H       0.85621                 0.85621    0.14379
    12   H       0.86280                 0.86280    0.13720
    13   H       0.86280                 0.86280    0.13720
    14   H       0.87076                 0.87076    0.12924
    15   H       0.87076                 0.87076    0.12924

 Total charge composition, AO contributions:

   CEN ATOM SHL      SPHERICAL COMPONENTS
     1   C  1s       1.99086
     1   C  2s       1.06954
     1   C  2p       1.04052    1.15440    1.16522

     2   C  1s       1.99256
     2   C  2s       0.95660
     2   C  2p       0.99604    0.77532    0.99966

     3   O  1s       1.99708
     3   O  2s       1.67421
     3   O  2p       1.46841    1.48873    1.95460

     4   H  1s       0.65267

     5   H  1s       0.86466

     6   H  1s       0.85623

     7   H  1s       0.85623

     8   C  1s       1.99096
     8   C  2s       1.07561
     8   C  2p       1.13784    1.13695    1.09209

     9   C  1s       1.99096
     9   C  2s       1.07561
     9   C  2p       1.13784    1.13695    1.09209

    10   H  1s       0.85621

    11   H  1s       0.85621

    12   H  1s       0.86280

    13   H  1s       0.86280

    14   H  1s       0.87076

    15   H  1s       0.87076

 Summary of localized orbital composition:   [THRPRINT= 0.020]

   ORB  GRP  ORB.ENERGY      CENTERS/CHARGES
     1   1   -18.804011      O  3   2.000
     2   1   -10.023870      C  2   2.000
     3   1    -9.933499      C  8   2.000
     4   1    -9.933499      C  9   2.000
     5   1    -9.927728      C  1   2.000
     6   1    -0.722480      O  3   1.349   H  4   0.641
     7   1    -0.676787      O  3   1.294   C  2   0.686
     8   1    -0.567969      O  3   1.982
     9   1    -0.541191      C  1   0.997   C  2   0.980   (other: 0.023)
    10   1    -0.540957      C  9   1.013   C  2   0.972
    11   1    -0.540957      C  8   1.013   C  2   0.972
    12   1    -0.470973      C  8   1.133   H 12   0.853
    13   1    -0.470973      C  9   1.133   H 13   0.853
    14   1    -0.469034      C  8   1.125   H 14   0.864
    15   1    -0.469034      C  9   1.125   H 15   0.864
    16   1    -0.467508      C  1   1.128   H  5   0.858
    17   1    -0.464496      C  9   1.141   H 11   0.848
    18   1    -0.464496      C  8   1.141   H 10   0.848
    19   1    -0.459900      C  1   1.140   H  6   0.849
    20   1    -0.459900      C  1   1.140   H  7   0.849
    21   1    -0.262683      O  3   1.955   (other: 0.045)

 Localized orbitals saved to record      2100.2  (orbital set 2)


 **********************************************************************************************************************************
 DATASETS  * FILE   NREC   LENGTH (MB)   RECORD NAMES
              1      20     1151.61       500      610      700      900      950      970     1000      129      960     1100   
                                          VAR    BASINP    GEOM    SYMINP    ZMAT    AOBASIS   BASIS     P2S    ABASIS      S 
                                         1400     1410     1200     1210     1080     1600     1650     1300     1700     1800   
                                           T        V       H0       H01     AOSYM     SMH    MOLCAS    ERIS     OPER     GRID   

              2       5        4.21       700     1000      520     1800     2100   
                                         GEOM     BASIS   MCVARS    GRID      RKS  

 PROGRAMS   *        TOTAL      IBBA        KS       INT
 CPU TIMES  *       208.78      0.06    188.73     19.83
 REAL TIME  *       243.57 SEC
 DISK USED  *         3.88 GB      
 **********************************************************************************************************************************
 Molecular orbitals read from record     2100.2  Type=RKS/LOCAL(IBO)  
 Occupation numbers read from record     2100.2  Type=RKS/LOCAL(IBO)  
 Orbital energies read from record       2100.2  Type=RKS/LOCAL(IBO)  
 Redundancy group numbers read from rec  2100.2  Type=RKS/LOCAL(IBO)  

 IBBA/aug-cc-pVDZ energy=      0.000000000000

        KS-SCF  
   -233.66865067
 **********************************************************************************************************************************
 Molpro calculation terminated
