
 Primary working directories    : /tmp/sb13343
 Secondary working directories  : /tmp/sb13343
 Wavefunction directory         : /panfs/panasas01/chem/sb13343/wfu/
 Main file repository           : /tmp/sb13343/

 SHA1      : b4a5b34a9e711420743f49e6833241d17c61fb3c
 NAME      : 2099.9.b4a5b34
 ARCHNAME  : linux/x86_64_openmp
 FC        : /cm/shared/languages/GCC-6.1/bin/gfortran
 BLASLIB   : -lblas
 id        : simonbennie

 Nodes     nprocs
 node32-007    1

 Using customized tuning parameters: mindgm=1; mindgv=20; mindgc=4; mindgr=1; noblas=0; minvec=7
 default implementation of scratch files=df  

 memory,500,m
 geomtyp=xyz
 nosym
 noorient
 geometry={
 C         -1.53233        0.02247        0.00000
 C         -0.00192        0.01421        0.00000
 O          0.37239        1.40356        0.00000
 H          1.34248        1.44036        0.00000
 H         -1.92991       -0.99819        0.00000
 H         -1.90797        0.54382       -0.88653
 H         -1.90797        0.54382        0.88653
 C          0.54303       -0.66466       -1.26580
 C          0.54303       -0.66466        1.26580
 H          0.17836       -0.14752       -2.15943
 H          0.17836       -0.14752        2.15943
 H          0.23752       -1.71600       -1.32280
 H          0.23752       -1.71600        1.32280
 H          1.64084       -0.63767       -1.28032
 H          1.64084       -0.63767        1.28032
 }
 basis={ default,svp }
 {uks,BECKE,direct;wf,42,1,0}
 {ibba,bonds=1}

 Variables initialized (895), CPU time= 0.00 sec
 Commands  initialized (725), CPU time= 0.02 sec, 591 directives.
 Default parameters read. Elapsed time= 0.08 sec

 Checking input...
 Passed
1


                                         ***  PROGRAM SYSTEM MOLPRO  ***
                                       Copyright, TTI GmbH Stuttgart, 2015
                                    Version 2099.9 linked May 26 2017 16:03:21


 **********************************************************************************************************************************
 LABEL *                                                                                 
  64 bit serial version                                                                  DATE: 09-Jun-17          TIME: 03:36:07  
 **********************************************************************************************************************************

 SHA1:             b4a5b34a9e711420743f49e6833241d17c61fb3c
 **********************************************************************************************************************************
 SETTING GEOMTYP        =    XYZ

 Variable memory set to  500000000 words,  buffer space 

 ZSYMEL=NOSYM

 SETTING BASIS          =    SVP


 Recomputing integrals since basis changed


 Using spherical harmonics

 Library entry C      S def2-SVP             selected for orbital group  1
 Library entry C      P def2-SVP             selected for orbital group  1
 Library entry C      D def2-SVP             selected for orbital group  1
 Library entry O      S def2-SVP             selected for orbital group  2
 Library entry O      P def2-SVP             selected for orbital group  2
 Library entry O      D def2-SVP             selected for orbital group  2
 Library entry H      S def2-SVP             selected for orbital group  3
 Library entry H      P def2-SVP             selected for orbital group  3


 PROGRAM * SEWARD (Integral evaluation for generally contracted gaussian basis sets)     Author: Roland Lindh, 1990

 Geometry written to block  1 of record 700


 Point group  C1  



 ATOMIC COORDINATES

 NR  ATOM    CHARGE       X              Y              Z

   1  C       6.00   -2.895684032    0.042462146    0.000000000
   2  C       6.00   -0.003628274    0.026853008    0.000000000
   3  O       8.00    0.703715112    2.652343999    0.000000000
   4  H       1.00    2.536919528    2.721885921    0.000000000
   5  H       1.00   -3.647001345   -1.886305720    0.000000000
   6  H       1.00   -3.605540754    1.027670861   -1.675298901
   7  H       1.00   -3.605540754    1.027670861    1.675298901
   8  C       6.00    1.026177977   -1.256025366   -2.392015328
   9  C       6.00    1.026177977   -1.256025366    2.392015328
  10  H       1.00    0.337051552   -0.278772398   -4.080731285
  11  H       1.00    0.337051552   -0.278772398    4.080731285
  12  H       1.00    0.448847749   -3.242770030   -2.499729718
  13  H       1.00    0.448847749   -3.242770030    2.499729718
  14  H       1.00    3.100738214   -1.205021658   -2.419454152
  15  H       1.00    3.100738214   -1.205021658    2.419454152

 Bond lengths in Bohr (Angstrom)

 1-2  2.892097881  1-5  2.069933136  1-6  2.069096224  1-7  2.069096224  2-3  2.719106031
     ( 1.530432290)     ( 1.095361444)     ( 1.094918569)     ( 1.094918569)     ( 1.438888946)

  2- 8  2.903104402   2- 9  2.903104402   3- 4  1.834522965   8-10  2.069222119   8-12  2.071730422
       ( 1.536256691)       ( 1.536256691)       ( 0.970787746)       ( 1.094985190)       ( 1.096312526)

  8-14  2.075368508   9-11  2.069222119   9-13  2.071730422   9-15  2.075368508
       ( 1.098237719)       ( 1.094985190)       ( 1.096312526)       ( 1.098237719)

 Bond angles

  1-2-3  104.76902697   1-2-8  110.92255387   1-2-9  110.92255387   2-1-5  110.97328220

  2- 1- 6  110.22090701   2- 1- 7  110.22090701   2- 3- 4  107.25071562   2- 8-10  110.21836376

  2- 8-12  111.57747468   2- 8-14  110.77023896   2- 9-11  110.21836376   2- 9-13  111.57747468

  2- 9-15  110.77023896   3- 2- 8  109.53648747   3- 2- 9  109.53648747   5- 1- 6  108.61190457

  5- 1- 7  108.61190457   6- 1- 7  108.12870271   8- 2- 9  110.96453384  10- 8-12  108.52192632

 10- 8-14  108.08997829  11- 9-13  108.52192632  11- 9-15  108.08997829  12- 8-14  107.54424578

 13- 9-15  107.54424578

 NUCLEAR CHARGE:                   42
 NUMBER OF PRIMITIVE AOS:         195
 NUMBER OF SYMMETRY AOS:          190
 NUMBER OF CONTRACTIONS:          120   ( 120A   )
 NUMBER OF CORE ORBITALS:           5   (   5A   )
 NUMBER OF VALENCE ORBITALS:       30   (  30A   )


 NUCLEAR REPULSION ENERGY  198.77359127


 Eigenvalues of metric

         1 0.176E-02 0.546E-02 0.548E-02 0.123E-01 0.248E-01 0.256E-01 0.256E-01 0.275E-01


 Contracted 2-electron integrals neglected if value below      1.0D-11
 AO integral compression algorithm  1   Integral accuracy      1.0D-11

     101.974 MB (compressed) written to integral file ( 44.9%)


 NUMBER OF SORTED TWO-ELECTRON INTEGRALS:   26357430.     BUFFER LENGTH:  32768
 NUMBER OF SEGMENTS:   2  SEGMENT LENGTH:   15997996      RECORD LENGTH: 524288

 Memory used in sort:      16.56 MW

 SORT1 READ    28411733. AND WROTE    24096425. INTEGRALS IN     70 RECORDS. CPU TIME:     0.40 SEC, REAL TIME:     0.78 SEC
 SORT2 READ    24096425. AND WROTE    26357430. INTEGRALS IN    389 RECORDS. CPU TIME:     0.62 SEC, REAL TIME:     4.35 SEC

 FILE SIZES:   FILE 1:   132.7 MBYTE,  FILE 4:   293.6 MBYTE,   TOTAL:    426.4 MBYTE

 OPERATOR DM      FOR CENTER  0  COORDINATES:    0.000000    0.000000    0.000000


 **********************************************************************************************************************************
 DATASETS  * FILE   NREC   LENGTH (MB)   RECORD NAMES
              1      19      120.44       500      610      700      900      950      970     1000      129      960     1100   
                                          VAR    BASINP    GEOM    SYMINP    ZMAT    AOBASIS   BASIS     P2S    ABASIS      S 
                                         1400     1410     1200     1210     1080     1600     1650     1300     1700   
                                           T        V       H0       H01     AOSYM     SMH    MOLCAS    ERIS     OPER   

 PROGRAMS   *        TOTAL       INT
 CPU TIMES  *         4.18      4.03
 REAL TIME  *         8.89 SEC
 DISK USED  *       426.89 MB      
 **********************************************************************************************************************************

 Density functional group BECKE=B88
 Functional: B88(Automatically generated (new) B88)                            Gradient terms: 1
 Use grid at  1800.2

 Functional: B88                       Factor:  1.0000

 Generated new metagrid on record  1800.2 with target accuracy 1.0D-06 and 53396 points in CPU time    1.7
 Computed new grid on record 1800.1 in CPU time    1.9
   99539 words reserved for DFT integration

 PROGRAM * UKS-SCF (Unrestricted Kohn-Sham)     Authors: W. Meyer, H.-J. Werner, P.J. Knowles, 1993

 NUMBER OF ELECTRONS:      21+   21-    SPACE SYMMETRY=1    SPIN SYMMETRY: Singlet 
 CONVERGENCE THRESHOLDS:    1.00E-05 (Density)    1.00E-06 (Energy)
 MAX. NUMBER OF ITERATIONS:       60
 INTERPOLATION TYPE:            DIIS
 INTERPOLATION STEPS:              2 (START)      1 (STEP)
 LEVEL SHIFTS:                 -0.20 (ALPHA)  -0.20 (BETA) 



 Use fine grid record 1800.2 for energy threshold  1.0D-06
 Orbital guess generated from atomic densities. Full valence occupancy:   21

 Molecular orbital dump at record        2200.2

 Initial alpha occupation  21
 Initial beta  occupation  21

 ITERATION    DDIFF          GRAD             ENERGY        2-EL.EN.            DIPOLE MOMENTS         DIIS
    1      0.000D+00      0.000D+00      -231.71035443    638.461756    0.70175   -0.76531    0.00000    0
    2      0.144D-01      0.610D-02      -231.93166093    614.011747    0.22707   -0.32761    0.00000    1
    3      0.488D-02      0.337D-02      -231.99713243    621.341182    0.37792   -0.46784    0.00000    2
    4      0.109D-02      0.463D-03      -231.99859626    621.081264    0.35946   -0.39840    0.00000    3
    5      0.786D-03      0.199D-03      -231.99902749    620.989225    0.35572   -0.39889    0.00000    4
    6      0.482D-03      0.495D-04      -231.99908832    620.966504    0.35374   -0.39007    0.00000    5
    7      0.948D-04      0.175D-04      -231.99909183    620.940589    0.35212   -0.39008    0.00000    6
    8      0.387D-04      0.942D-05      -231.99909272    620.951132    0.35214   -0.39073    0.00000    7
    9      0.129D-04      0.131D-05      -231.99909277    620.950137    0.35215   -0.39034    0.00000    6
   10      0.284D-05      0.338D-06      -231.99909277    620.950008    0.35207   -0.39048    0.00000    7
   11      0.634D-06      0.112D-06      -231.99909277    620.950269    0.35209   -0.39046    0.00000    6

 Final alpha occupancy:  21
 Final beta  occupancy:  21

 !UKS STATE 1.1 Energy               -231.999092768876
 Nuclear energy                       198.77359127
 One-electron energy                 -708.75291966
 Two-electron energy                  310.47513432
 Density functional                   -32.49489871     B88=-32.49489871
 Virial quotient                       -1.00499726
 !UKS STATE 1.1 Dipole moment           0.35208774    -0.39045647     0.00000000
 Dipole moment /Debye                   0.89485915    -0.99237636     0.00000000

 Orbital energies for positive spin:

         1.1          2.1          3.1          4.1          5.1          6.1          7.1          8.1          9.1         10.1
    -18.730643    -9.933860    -9.879400    -9.879381    -9.874604    -0.866724    -0.663432    -0.577296    -0.576445    -0.465207

        11.1         12.1         13.1         14.1         15.1         16.1         17.1         18.1         19.1         20.1
     -0.394994    -0.360891    -0.359423    -0.324121    -0.313126    -0.297386    -0.285920    -0.269783    -0.266274    -0.232629

        21.1         22.1         23.1
     -0.175571     0.047614     0.093974

 Orbital energies for negative spin:

         1.1          2.1          3.1          4.1          5.1          6.1          7.1          8.1          9.1         10.1
    -18.730643    -9.933860    -9.879400    -9.879381    -9.874604    -0.866724    -0.663432    -0.577296    -0.576445    -0.465207

        11.1         12.1         13.1         14.1         15.1         16.1         17.1         18.1         19.1         20.1
     -0.394994    -0.360891    -0.359423    -0.324121    -0.313126    -0.297386    -0.285920    -0.269783    -0.266274    -0.232629

        21.1         22.1         23.1
     -0.175571     0.047614     0.093974

 HOMO     21.1    -0.175571 =      -4.7775eV
 LUMO     22.1     0.047614 =       1.2956eV
 LUMO-HOMO         0.223185 =       6.0732eV

 EXPECTATION VALUE OF S**2:            -0.00000000

 Natural orbitals saved to record    2200.2 (Orbital set 3)

 Orbital spaces for UNO-CAS (Min. occupation: 0.020  Max. occupation: 1.980):

 Closed:       21
 Active:        0


 **********************************************************************************************************************************
 DATASETS  * FILE   NREC   LENGTH (MB)   RECORD NAMES
              1      20      122.15       500      610      700      900      950      970     1000      129      960     1100   
                                          VAR    BASINP    GEOM    SYMINP    ZMAT    AOBASIS   BASIS     P2S    ABASIS      S 
                                         1400     1410     1200     1210     1080     1600     1650     1300     1700     1800   
                                           T        V       H0       H01     AOSYM     SMH    MOLCAS    ERIS     OPER     GRID   

              2       5        3.59       700     1000      520     1800     2200   
                                         GEOM     BASIS   MCVARS    GRID      UKS  

 PROGRAMS   *        TOTAL       UKS       INT
 CPU TIMES  *        28.32     24.14      4.03
 REAL TIME  *        33.74 SEC
 DISK USED  *       426.89 MB      
 **********************************************************************************************************************************


 PROGRAM * Intrinsic Basis Bonding Analysis (IBBA)          Author: G. Knizia

 Molecular orbitals read from record     2200.2  Type=UKS/ALPHA (state 1.1)
 Fock matrix read from record            2200.2  Type=UKS/TOTAL (state 1.1)
 Orbital energies read from record       2200.2  Type=UKS/ALPHA (state 1.1)
 Density matrix read from record         2200.2  Type=UKS/CHARGE (state 1.1)

 Number of core orbitals:           5 (   5 )
 Number of closed-shell orbitals:  16 (  16 )

 Basis set MINAO-AUTO-PP generated.      Number of basis functions:   35 

 Polarized AO type:                A = (O Ot + (1-O)(1-Ot)) P12
 Orthogonalization method:         Symmetric (Loewdin)
 Localization functional:          L = sum[A,i] <i|n_A|i>^4 -> max

 Localization group 1:  21 orbitals, occupancy  2.000
 Iterative localization: IB/PM,    7 iter; Final gradient 0.15E-08

 Bond order analysis:       [THRPRINT= 0.020]

   CEN ATOM   CEN ATOM     WIBERG.BO      RENORM.BO
     1   C  -   2   C       0.993948       0.993201
     1   C  -   5   H       0.967411       0.985941
     1   C  -   6   H       0.963033       0.980199
     1   C  -   7   H       0.963033       0.980199

     2   C  -   1   C       0.993948       0.993201
     2   C  -   9   C       0.992781       0.973710
     2   C  -   8   C       0.992781       0.973710
     2   C  -   3   O       0.944949       0.954218

     3   O  -   2   C       0.944949       0.954218
     3   O  -   4   H       0.881035       0.974461
     3   O  -   9   C       0.030364       0.015555
     3   O  -   8   C       0.030364       0.015555

     4   H  -   3   O       0.881035       0.974461

     5   H  -   1   C       0.967411       0.985941

     6   H  -   1   C       0.963033       0.980199

     7   H  -   1   C       0.963033       0.980199

     8   C  -   2   C       0.992781       0.973710
     8   C  -  14   H       0.966500       0.981084
     8   C  -  10   H       0.963608       0.979994
     8   C  -  12   H       0.962809       0.979082
     8   C  -   3   O       0.030364       0.015555

     9   C  -   2   C       0.992781       0.973710
     9   C  -  15   H       0.966500       0.981084
     9   C  -  11   H       0.963608       0.979994
     9   C  -  13   H       0.962809       0.979082
     9   C  -   3   O       0.030364       0.015555

    10   H  -   8   C       0.963608       0.979994

    11   H  -   9   C       0.963608       0.979994

    12   H  -   8   C       0.962809       0.979082

    13   H  -   9   C       0.962809       0.979082

    14   H  -   8   C       0.966500       0.981084

    15   H  -   9   C       0.966500       0.981084


 Valency analysis:

   CEN ATOM   TOT.VALENCE
     1   C       3.951176
     2   C       3.935437
     3   O       1.959714
     4   H       0.902043
     5   H       0.987069
     6   H       0.984993
     7   H       0.984993
     8   C       3.953266
     9   C       3.953266
    10   H       0.985084
    11   H       0.985084
    12   H       0.986491
    13   H       0.986491
    14   H       0.988384
    15   H       0.988384

 Total charge composition:

   CEN ATOM         s          p       ELECTRONS ->P.CHARGE
     1   C       3.01920    3.33736      6.35655   -0.35655
     2   C       2.92230    2.82164      5.74395    0.25605
     3   O       3.63458    4.88750      8.52208   -0.52208
     4   H       0.68702                 0.68702    0.31298
     5   H       0.88628                 0.88628    0.11372
     6   H       0.87750                 0.87750    0.12250
     7   H       0.87750                 0.87750    0.12250
     8   C       3.02636    3.34434      6.37070   -0.37070
     9   C       3.02636    3.34434      6.37070   -0.37070
    10   H       0.87787                 0.87787    0.12213
    11   H       0.87787                 0.87787    0.12213
    12   H       0.88377                 0.88377    0.11623
    13   H       0.88377                 0.88377    0.11623
    14   H       0.89222                 0.89222    0.10778
    15   H       0.89222                 0.89222    0.10778

 Total charge composition, AO contributions:

   CEN ATOM SHL      SPHERICAL COMPONENTS
     1   C  1s       1.99123
     1   C  2s       1.02797
     1   C  2p       1.04014    1.14251    1.15471

     2   C  1s       1.99286
     2   C  2s       0.92945
     2   C  2p       1.01023    0.79929    1.01212

     3   O  1s       1.99716
     3   O  2s       1.63741
     3   O  2p       1.45178    1.48502    1.95070

     4   H  1s       0.68702

     5   H  1s       0.88628

     6   H  1s       0.87750

     7   H  1s       0.87750

     8   C  1s       1.99133
     8   C  2s       1.03503
     8   C  2p       1.12705    1.12835    1.08894

     9   C  1s       1.99133
     9   C  2s       1.03503
     9   C  2p       1.12705    1.12835    1.08894

    10   H  1s       0.87787

    11   H  1s       0.87787

    12   H  1s       0.88377

    13   H  1s       0.88377

    14   H  1s       0.89222

    15   H  1s       0.89222

 Summary of localized orbital composition:   [THRPRINT= 0.020]

   ORB  GRP  ORB.ENERGY      CENTERS/CHARGES
     1   1   -18.584186      O  3   2.000
     2   1    -9.844936      C  2   2.000
     3   1    -9.768884      C  8   2.000
     4   1    -9.768884      C  9   2.000
     5   1    -9.763347      C  1   2.000
     6   1    -0.642777      O  3   1.316   H  4   0.675
     7   1    -0.610324      O  3   1.272   C  2   0.710
     8   1    -0.475238      C  9   1.010   C  2   0.973
     9   1    -0.475238      C  8   1.010   C  2   0.973
    10   1    -0.474922      C  1   0.993   C  2   0.982   (other: 0.026)
    11   1    -0.436606      O  3   1.980   (other: 0.020)
    12   1    -0.413276      C  9   1.113   H 13   0.874
    13   1    -0.413276      C  8   1.113   H 12   0.874
    14   1    -0.412271      C  9   1.103   H 15   0.885
    15   1    -0.412271      C  8   1.103   H 14   0.885
    16   1    -0.409319      C  1   1.108   H  5   0.879
    17   1    -0.407754      C  8   1.120   H 10   0.869
    18   1    -0.407754      C  9   1.120   H 11   0.869
    19   1    -0.403126      C  1   1.120   H  7   0.869
    20   1    -0.403126      C  1   1.120   H  6   0.869
    21   1    -0.199551      O  3   1.951   (other: 0.049)

 Localized orbitals saved to record      2200.2  (orbital set 4)


 **********************************************************************************************************************************
 DATASETS  * FILE   NREC   LENGTH (MB)   RECORD NAMES
              1      20      122.15       500      610      700      900      950      970     1000      129      960     1100   
                                          VAR    BASINP    GEOM    SYMINP    ZMAT    AOBASIS   BASIS     P2S    ABASIS      S 
                                         1400     1410     1200     1210     1080     1600     1650     1300     1700     1800   
                                           T        V       H0       H01     AOSYM     SMH    MOLCAS    ERIS     OPER     GRID   

              2       5        3.71       700     1000      520     1800     2200   
                                         GEOM     BASIS   MCVARS    GRID      UKS  

 PROGRAMS   *        TOTAL      IBBA       UKS       INT
 CPU TIMES  *        28.37      0.05     24.14      4.03
 REAL TIME  *        33.87 SEC
 DISK USED  *       426.89 MB      
 **********************************************************************************************************************************
 Molecular orbitals read from record     2200.2  Type=UKS/LOCAL(IBO)  
 Occupation numbers read from record     2200.2  Type=UKS/LOCAL(IBO)  
 Orbital energies read from record       2200.2  Type=UKS/LOCAL(IBO)  
 Redundancy group numbers read from rec  2200.2  Type=UKS/BETA (state 1.1)

 IBBA/SVP energy=      0.000000000000

        UKS-SCF 
   -231.99909277
 **********************************************************************************************************************************
 Molpro calculation terminated
