
 Primary working directories    : /tmp/sb13343
 Secondary working directories  : /tmp/sb13343
 Wavefunction directory         : /panfs/panasas01/chem/sb13343/wfu/
 Main file repository           : /tmp/sb13343/

 SHA1      : b4a5b34a9e711420743f49e6833241d17c61fb3c
 NAME      : 2099.9.b4a5b34
 ARCHNAME  : linux/x86_64_openmp
 FC        : /cm/shared/languages/GCC-6.1/bin/gfortran
 BLASLIB   : -lblas
 id        : simonbennie

 Nodes     nprocs
 node32-028    1

 Using customized tuning parameters: mindgm=1; mindgv=20; mindgc=4; mindgr=1; noblas=0; minvec=7
 default implementation of scratch files=df  

 memory,500,m
 geomtyp=xyz
 nosym
 noorient
 geometry={
 C          0.00000        0.00000        0.00000
 C          1.54025       -0.00009       -0.00004
 C         -0.51333        1.45219       -0.00005
 C         -0.51349       -0.72611       -1.25756
 C         -0.51342       -0.72599        1.25765
 H         -1.60999        1.48489       -0.00002
 H         -1.61015       -0.74237       -1.28580
 H         -1.61008       -0.74225        1.28596
 H         -0.16312        1.99638        0.88591
 H         -0.16316        1.99630       -0.88608
 H         -0.16333       -0.23096       -2.17186
 H         -0.16339       -1.76551       -1.28580
 H         -0.16332       -1.76539        1.28596
 H         -0.16320       -0.23077        2.17189
 H          1.93652       -1.02316       -0.00001
 H          1.93658        0.51138       -0.88607
 H          1.93663        0.51146        0.88592
 }
 basis={ default,svp }
 {ks,PBE,direct;wf,42,1,0}
 {ibba,bonds=1}

 Variables initialized (895), CPU time= 0.00 sec
 Commands  initialized (725), CPU time= 0.02 sec, 591 directives.
 Default parameters read. Elapsed time= 0.08 sec

 Checking input...
 Passed
1


                                         ***  PROGRAM SYSTEM MOLPRO  ***
                                       Copyright, TTI GmbH Stuttgart, 2015
                                    Version 2099.9 linked May 26 2017 16:03:21


 **********************************************************************************************************************************
 LABEL *                                                                                 
  64 bit serial version                                                                  DATE: 08-Jun-17          TIME: 22:30:20  
 **********************************************************************************************************************************

 SHA1:             b4a5b34a9e711420743f49e6833241d17c61fb3c
 **********************************************************************************************************************************
 SETTING GEOMTYP        =    XYZ

 Variable memory set to  500000000 words,  buffer space 

 ZSYMEL=NOSYM

 SETTING BASIS          =    SVP


 Recomputing integrals since basis changed


 Using spherical harmonics

 Library entry C      S def2-SVP             selected for orbital group  1
 Library entry C      P def2-SVP             selected for orbital group  1
 Library entry C      D def2-SVP             selected for orbital group  1
 Library entry H      S def2-SVP             selected for orbital group  2
 Library entry H      P def2-SVP             selected for orbital group  2


 PROGRAM * SEWARD (Integral evaluation for generally contracted gaussian basis sets)     Author: Roland Lindh, 1990

 Geometry written to block  1 of record 700


 Point group  C1  



 ATOMIC COORDINATES

 NR  ATOM    CHARGE       X              Y              Z

   1  C       6.00    0.000000000    0.000000000    0.000000000
   2  C       6.00    2.910650663   -0.000170075   -0.000075589
   3  C       6.00   -0.970053112    2.744241381   -0.000094486
   4  C       6.00   -0.970355468   -1.372149036   -2.376443985
   5  C       6.00   -0.970223187   -1.371922269    2.376614061
   6  H       1.00   -3.042440163    2.806035425   -0.000037795
   7  H       1.00   -3.042742519   -1.402875983   -2.429809851
   8  H       1.00   -3.042610239   -1.402649216    2.430112207
   9  H       1.00   -0.308252125    3.772611441    1.674127271
  10  H       1.00   -0.308327714    3.772460262   -1.674448524
  11  H       1.00   -0.308648968   -0.436451146   -4.104220581
  12  H       1.00   -0.308762351   -3.336330370   -2.429809851
  13  H       1.00   -0.308630071   -3.336103603    2.430112207
  14  H       1.00   -0.308403304   -0.436092098    4.104277273
  15  H       1.00    3.659492435   -1.933492182   -0.000018897
  16  H       1.00    3.659605818    0.966368146   -1.674429627
  17  H       1.00    3.659700305    0.966519324    1.674146168

 Bond lengths in Bohr (Angstrom)

  1- 2  2.910650669   1- 3  2.910646630   1- 4  2.910647475   1- 5  2.910635350   2-15  2.073282028
       ( 1.540250003)       ( 1.540247866)       ( 1.540248313)       ( 1.540241896)       ( 1.097133601)

  2-16  2.073304464   2-17  2.073302258   3- 6  2.073308129   3- 9  2.073293037   3-10  2.073300754
       ( 1.097145474)       ( 1.097144306)       ( 1.097147413)       ( 1.097139427)       ( 1.097143510)

  4- 7  2.073301752   4-11  2.073306055   4-12  2.073297296   5- 8  2.073305161   5-13  2.073300706
       ( 1.097144038)       ( 1.097146316)       ( 1.097141681)       ( 1.097145842)       ( 1.097143485)

  5-14  2.073307464
       ( 1.097147061)

 Bond angles

  1- 2-15  111.17643746   1- 2-16  111.17582452   1- 2-17  111.17607088   1- 3- 6  111.17575783

  1- 3- 9  111.17644989   1- 3-10  111.17611121   1- 4- 7  111.17614317   1- 4-11  111.17631877

  1- 4-12  111.17675056   1- 5- 8  111.17663037   1- 5-13  111.17645588   1- 5-14  111.17672823

  2-1-3  109.47117711   2-1-4  109.47117360   2-1-5  109.47107360   3-1-4  109.47144919

  3- 1- 5  109.47121161   4- 1- 5  109.47123870   6- 3- 9  107.71338639   6- 3-10  107.71391335

  7- 4-11  107.71323113   7- 4-12  107.71354587   8- 5-13  107.71328790   8- 5-14  107.71342022

  9- 3-10  107.71420977  11- 4-12  107.71378459  13- 5-14  107.71321488  15- 2-16  107.71365571

 15- 2-17  107.71411853  16- 2-17  107.71372051

 NUCLEAR CHARGE:                   42
 NUMBER OF PRIMITIVE AOS:         209
 NUMBER OF SYMMETRY AOS:          204
 NUMBER OF CONTRACTIONS:          130   ( 130A   )
 NUMBER OF CORE ORBITALS:           5   (   5A   )
 NUMBER OF VALENCE ORBITALS:       32   (  32A   )


 NUCLEAR REPULSION ENERGY  197.66618863


 Eigenvalues of metric

         1 0.175E-02 0.577E-02 0.577E-02 0.577E-02 0.252E-01 0.252E-01 0.252E-01 0.256E-01


 Contracted 2-electron integrals neglected if value below      1.0D-11
 AO integral compression algorithm  1   Integral accuracy      1.0D-11

     139.198 MB (compressed) written to integral file ( 45.3%)


 NUMBER OF SORTED TWO-ELECTRON INTEGRALS:   36256870.     BUFFER LENGTH:  32768
 NUMBER OF SEGMENTS:   3  SEGMENT LENGTH:   15998004      RECORD LENGTH: 524288

 Memory used in sort:      16.56 MW

 SORT1 READ    38373714. AND WROTE    33465425. INTEGRALS IN     97 RECORDS. CPU TIME:     0.48 SEC, REAL TIME:     0.95 SEC
 SORT2 READ    33465425. AND WROTE    36256870. INTEGRALS IN    531 RECORDS. CPU TIME:     0.76 SEC, REAL TIME:     0.97 SEC

 FILE SIZES:   FILE 1:   170.1 MBYTE,  FILE 4:   406.9 MBYTE,   TOTAL:    576.9 MBYTE

 OPERATOR DM      FOR CENTER  0  COORDINATES:    0.000000    0.000000    0.000000


 **********************************************************************************************************************************
 DATASETS  * FILE   NREC   LENGTH (MB)   RECORD NAMES
              1      19      153.85       500      610      700      900      950      970     1000      129      960     1100   
                                          VAR    BASINP    GEOM    SYMINP    ZMAT    AOBASIS   BASIS     P2S    ABASIS      S 
                                         1400     1410     1200     1210     1080     1600     1650     1300     1700   
                                           T        V       H0       H01     AOSYM     SMH    MOLCAS    ERIS     OPER   

 PROGRAMS   *        TOTAL       INT
 CPU TIMES  *         5.07      4.93
 REAL TIME  *         6.79 SEC
 DISK USED  *       577.52 MB      
 **********************************************************************************************************************************

 Density functional group PBE=PBEX+PBEC
 Functional: PBEX(Automatically generated (new) PBEX)                          Gradient terms: 1
 Functional: PBEC(Automatically generated (new) PBEC)                          Gradient terms: 1
 Use grid at  1800.2

 Functional: PBEX                      Factor:  1.0000
 Functional: PBEC                      Factor:  1.0000

 Generated new metagrid on record  1800.2 with target accuracy 1.0D-06 and 57016 points in CPU time    1.7
 Computed new grid on record 1800.1 in CPU time    1.9
  107513 words reserved for DFT integration

 PROGRAM * RKS-SCF (Restricted closed shell Kohn-Sham)     Authors: W. Meyer, H.-J. Werner, P.J. Knowles, 1993

 NUMBER OF ELECTRONS:      21+   21-    SPACE SYMMETRY=1    SPIN SYMMETRY: Singlet 
 CONVERGENCE THRESHOLDS:    1.00E-05 (Density)    1.00E-06 (Energy)
 MAX. NUMBER OF ITERATIONS:       60
 INTERPOLATION TYPE:            DIIS
 INTERPOLATION STEPS:              2 (START)      1 (STEP)
 LEVEL SHIFTS:                  0.00 (CLOSED)  0.00 (OPEN) 



 Use fine grid record 1800.2 for energy threshold  1.0D-06
 Orbital guess generated from atomic densities. Full valence occupancy:   21

 Molecular orbital dump at record        2100.2

 Initial occupancy:  21

 ITERATION    DDIFF          GRAD             ENERGY        2-EL.EN.            DIPOLE MOMENTS         DIIS   ORB.
    1      0.000D+00      0.000D+00      -196.98918162    602.813465   -0.00009   -0.00039   -0.00000    0    start
    2      0.000D+00      0.113D-01      -196.43295923    551.598057   -0.00066   -0.00045    0.00001    1    diag
    3      0.333D-01      0.182D-01      -197.32197384    584.676275   -0.00014   -0.00035   -0.00000    2    diag
    4      0.252D-01      0.163D-02      -197.32644030    583.198526   -0.00019   -0.00039    0.00000    3    diag
    5      0.208D-02      0.827D-03      -197.32792613    583.336130   -0.00020   -0.00039    0.00000    4    diag
    6      0.666D-03      0.688D-04      -197.32793672    583.360128   -0.00019   -0.00038    0.00000    5    diag
    7      0.910D-04      0.882D-05      -197.32793693    583.370136   -0.00019   -0.00038    0.00000    6    diag
    8      0.970D-05      0.276D-06      -197.32793693    583.369136   -0.00019   -0.00038    0.00000    0    orth

 Final occupancy:  21

 !RKS STATE 1.1 Energy               -197.327936932592
 Nuclear energy                       197.66618863
 One-electron energy                 -655.41615912
 Two-electron energy                  291.68456808
 Density functional                   -31.26253452     PBEX=-29.90564789 PBEC= -1.35688663
 Virial quotient                       -1.01291458
 !RKS STATE 1.1 Dipole moment          -0.00019287    -0.00037853     0.00000093
 Dipole moment /Debye                  -0.00049019    -0.00096205     0.00000238

 Orbital energies:

         1.1          2.1          3.1          4.1          5.1          6.1          7.1          8.1          9.1         10.1
     -9.906435    -9.881169    -9.881155    -9.881154    -9.881115    -0.734803    -0.606079    -0.606075    -0.606074    -0.469072

        11.1         12.1         13.1         14.1         15.1         16.1         17.1         18.1         19.1         20.1
     -0.395421    -0.395418    -0.395407    -0.348764    -0.348762    -0.313810    -0.313810    -0.313806    -0.277842    -0.277840

        21.1         22.1         23.1
     -0.277837     0.026087     0.082820

 HOMO     21.1    -0.277837 =      -7.5603eV
 LUMO     22.1     0.026087 =       0.7099eV
 LUMO-HOMO         0.303925 =       8.2702eV


 **********************************************************************************************************************************
 DATASETS  * FILE   NREC   LENGTH (MB)   RECORD NAMES
              1      20      155.67       500      610      700      900      950      970     1000      129      960     1100   
                                          VAR    BASINP    GEOM    SYMINP    ZMAT    AOBASIS   BASIS     P2S    ABASIS      S 
                                         1400     1410     1200     1210     1080     1600     1650     1300     1700     1800   
                                           T        V       H0       H01     AOSYM     SMH    MOLCAS    ERIS     OPER     GRID   

              2       5        3.39       700     1000      520     1800     2100   
                                         GEOM     BASIS   MCVARS    GRID      RKS  

 PROGRAMS   *        TOTAL        KS       INT
 CPU TIMES  *        18.65     13.57      4.93
 REAL TIME  *        20.92 SEC
 DISK USED  *       577.52 MB      
 **********************************************************************************************************************************


 PROGRAM * Intrinsic Basis Bonding Analysis (IBBA)          Author: G. Knizia

 Molecular orbitals read from record     2100.2  Type=RKS/CANONICAL (state 1.1)
 Fock matrix read from record            2100.2  Type=RKS/TOTAL (state 1.1)
 Orbital energies read from record       2100.2  Type=RKS/CANONICAL (state 1.1)
 Density matrix read from record         2100.2  Type=RKS/CHARGE (state 1.1)

 Number of core orbitals:           5 (   5 )
 Number of closed-shell orbitals:  16 (  16 )

 Basis set MINAO-AUTO-PP generated.      Number of basis functions:   37 

 Polarized AO type:                A = (O Ot + (1-O)(1-Ot)) P12
 Orthogonalization method:         Symmetric (Loewdin)
 Localization functional:          L = sum[A,i] <i|n_A|i>^4 -> max

 Localization group 1:  21 orbitals, occupancy  2.000
 Iterative localization: IB/PM,    7 iter; Final gradient 0.58E-08

 Bond order analysis:       [THRPRINT= 0.020]

   CEN ATOM   CEN ATOM     WIBERG.BO      RENORM.BO
     1   C  -   3   C       0.996814       0.997779
     1   C  -   2   C       0.996810       0.997760
     1   C  -   5   C       0.996808       0.997766
     1   C  -   4   C       0.996806       0.997764

     2   C  -   1   C       0.996810       0.997760
     2   C  -  15   H       0.962395       0.979839
     2   C  -  16   H       0.962383       0.979837
     2   C  -  17   H       0.962383       0.979837

     3   C  -   1   C       0.996814       0.997779
     3   C  -  10   H       0.962391       0.979838
     3   C  -   9   H       0.962391       0.979838
     3   C  -   6   H       0.962386       0.979849

     4   C  -   1   C       0.996806       0.997764
     4   C  -  11   H       0.962397       0.979841
     4   C  -   7   H       0.962391       0.979843
     4   C  -  12   H       0.962376       0.979842

     5   C  -   1   C       0.996808       0.997766
     5   C  -  14   H       0.962397       0.979841
     5   C  -   8   H       0.962391       0.979842
     5   C  -  13   H       0.962376       0.979842

     6   H  -   3   C       0.962386       0.979849

     7   H  -   4   C       0.962391       0.979843

     8   H  -   5   C       0.962391       0.979842

     9   H  -   3   C       0.962391       0.979838

    10   H  -   3   C       0.962391       0.979838

    11   H  -   4   C       0.962397       0.979841

    12   H  -   4   C       0.962376       0.979842

    13   H  -   5   C       0.962376       0.979842

    14   H  -   5   C       0.962397       0.979841

    15   H  -   2   C       0.962395       0.979839

    16   H  -   2   C       0.962383       0.979837

    17   H  -   2   C       0.962383       0.979837


 Valency analysis:

   CEN ATOM   TOT.VALENCE
     1   C       3.994370
     2   C       3.941766
     3   C       3.941774
     4   C       3.941764
     5   C       3.941765
     6   H       0.983453
     7   H       0.983461
     8   H       0.983461
     9   H       0.983464
    10   H       0.983464
    11   H       0.983469
    12   H       0.983444
    13   H       0.983444
    14   H       0.983469
    15   H       0.983464
    16   H       0.983457
    17   H       0.983456

 Total charge composition:

   CEN ATOM         s          p       ELECTRONS ->P.CHARGE
     1   C       2.92325    3.00883      5.93209    0.06791
     2   C       3.02691    3.37591      6.40282   -0.40282
     3   C       3.02690    3.37589      6.40280   -0.40280
     4   C       3.02691    3.37591      6.40282   -0.40282
     5   C       3.02691    3.37591      6.40282   -0.40282
     6   H       0.87137                 0.87137    0.12863
     7   H       0.87140                 0.87140    0.12860
     8   H       0.87140                 0.87140    0.12860
     9   H       0.87141                 0.87141    0.12859
    10   H       0.87141                 0.87141    0.12859
    11   H       0.87143                 0.87143    0.12857
    12   H       0.87133                 0.87133    0.12867
    13   H       0.87133                 0.87133    0.12867
    14   H       0.87143                 0.87143    0.12857
    15   H       0.87141                 0.87141    0.12859
    16   H       0.87138                 0.87138    0.12862
    17   H       0.87138                 0.87138    0.12862

 Total charge composition, AO contributions:

   CEN ATOM SHL      SPHERICAL COMPONENTS
     1   C  1s       1.99230
     1   C  2s       0.93095
     1   C  2p       1.00295    1.00295    1.00294

     2   C  1s       1.99135
     2   C  2s       1.03557
     2   C  2p       1.05431    1.16079    1.16081

     3   C  1s       1.99135
     3   C  2s       1.03556
     3   C  2p       1.14898    1.06615    1.16077

     4   C  1s       1.99135
     4   C  2s       1.03556
     4   C  2p       1.14896    1.13717    1.08979

     5   C  1s       1.99135
     5   C  2s       1.03556
     5   C  2p       1.14896    1.13718    1.08978

     6   H  1s       0.87137

     7   H  1s       0.87140

     8   H  1s       0.87140

     9   H  1s       0.87141

    10   H  1s       0.87141

    11   H  1s       0.87143

    12   H  1s       0.87133

    13   H  1s       0.87133

    14   H  1s       0.87143

    15   H  1s       0.87141

    16   H  1s       0.87138

    17   H  1s       0.87138

 Summary of localized orbital composition:   [THRPRINT= 0.020]

   ORB  GRP  ORB.ENERGY      CENTERS/CHARGES
     1   1    -9.812472      C  1   2.000
     2   1    -9.770734      C  3   2.000
     3   1    -9.770715      C  2   2.000
     4   1    -9.770715      C  5   2.000
     5   1    -9.770715      C  4   2.000
     6   1    -0.491714      C  5   1.006   C  1   0.967   (other: 0.027)
     7   1    -0.491710      C  3   1.006   C  1   0.967   (other: 0.027)
     8   1    -0.491710      C  4   1.006   C  1   0.967   (other: 0.027)
     9   1    -0.491708      C  2   1.006   C  1   0.967   (other: 0.027)
    10   1    -0.437481      C  2   1.127   H 15   0.863
    11   1    -0.437480      C  3   1.128   H  6   0.863
    12   1    -0.437479      C  3   1.127   H  9   0.863
    13   1    -0.437478      C  3   1.127   H 10   0.863
    14   1    -0.437473      C  4   1.127   H 11   0.863
    15   1    -0.437473      C  5   1.127   H 14   0.863
    16   1    -0.437471      C  4   1.127   H  7   0.863
    17   1    -0.437471      C  5   1.127   H  8   0.863
    18   1    -0.437468      C  2   1.128   H 17   0.863
    19   1    -0.437467      C  2   1.128   H 16   0.863
    20   1    -0.437460      C  4   1.128   H 12   0.863
    21   1    -0.437458      C  5   1.128   H 13   0.863

 Localized orbitals saved to record      2100.2  (orbital set 2)


 **********************************************************************************************************************************
 DATASETS  * FILE   NREC   LENGTH (MB)   RECORD NAMES
              1      20      155.67       500      610      700      900      950      970     1000      129      960     1100   
                                          VAR    BASINP    GEOM    SYMINP    ZMAT    AOBASIS   BASIS     P2S    ABASIS      S 
                                         1400     1410     1200     1210     1080     1600     1650     1300     1700     1800   
                                           T        V       H0       H01     AOSYM     SMH    MOLCAS    ERIS     OPER     GRID   

              2       5        3.53       700     1000      520     1800     2100   
                                         GEOM     BASIS   MCVARS    GRID      RKS  

 PROGRAMS   *        TOTAL      IBBA        KS       INT
 CPU TIMES  *        18.69      0.05     13.57      4.93
 REAL TIME  *        21.06 SEC
 DISK USED  *       577.52 MB      
 **********************************************************************************************************************************
 Molecular orbitals read from record     2100.2  Type=RKS/LOCAL(IBO)  
 Occupation numbers read from record     2100.2  Type=RKS/LOCAL(IBO)  
 Orbital energies read from record       2100.2  Type=RKS/LOCAL(IBO)  
 Redundancy group numbers read from rec  2100.2  Type=RKS/LOCAL(IBO)  

 IBBA/SVP energy=      0.000000000000

        KS-SCF  
   -197.32793693
 **********************************************************************************************************************************
 Molpro calculation terminated
