
 Primary working directories    : /local
 Secondary working directories  : /local
 Wavefunction directory         : /local/
 Main file repository           : /local/

 SHA1      : b4a5b34a9e711420743f49e6833241d17c61fb3c
 NAME      : 2099.9.b4a5b34
 ARCHNAME  : linux/x86_64_openmp
 FC        : /cm/shared/languages/GCC-6.1/bin/gfortran
 BLASLIB   : -lblas
 id        : simonbennie

 Nodes     nprocs
 node35-038    1

 Using customized tuning parameters: mindgm=1; mindgv=20; mindgc=4; mindgr=1; noblas=0; minvec=7
 default implementation of scratch files=df  

 memory,500,m
 geomtyp=xyz
 nosym
 noorient
 geometry={
 C         -1.53233        0.02247        0.00000
 C         -0.00192        0.01421        0.00000
 O          0.37239        1.40356        0.00000
 H          1.34248        1.44036        0.00000
 H         -1.92991       -0.99819        0.00000
 H         -1.90797        0.54382       -0.88653
 H         -1.90797        0.54382        0.88653
 C          0.54303       -0.66466       -1.26580
 C          0.54303       -0.66466        1.26580
 H          0.17836       -0.14752       -2.15943
 H          0.17836       -0.14752        2.15943
 H          0.23752       -1.71600       -1.32280
 H          0.23752       -1.71600        1.32280
 H          1.64084       -0.63767       -1.28032
 H          1.64084       -0.63767        1.28032
 }
 basis={ default,qzvp }
 {uks,MM06,direct;wf,42,1,0}
 {ibba,bonds=1}

 Variables initialized (895), CPU time= 0.00 sec
 Commands  initialized (725), CPU time= 0.02 sec, 591 directives.
 Default parameters read. Elapsed time= 0.15 sec

 Checking input...
 Passed
1


                                         ***  PROGRAM SYSTEM MOLPRO  ***
                                       Copyright, TTI GmbH Stuttgart, 2015
                                    Version 2099.9 linked May 26 2017 16:03:21


 **********************************************************************************************************************************
 LABEL *                                                                                 
  64 bit serial version                                                                  DATE: 12-Jun-17          TIME: 17:30:45  
 **********************************************************************************************************************************

 SHA1:             b4a5b34a9e711420743f49e6833241d17c61fb3c
 **********************************************************************************************************************************
 SETTING GEOMTYP        =    XYZ

 Variable memory set to  500000000 words,  buffer space 

 ZSYMEL=NOSYM

 SETTING BASIS          =    QZVP


 Recomputing integrals since basis changed


 Using spherical harmonics

 Library entry C      S def2-QZVP            selected for orbital group  1
 Library entry C      P def2-QZVP            selected for orbital group  1
 Library entry C      D def2-QZVP            selected for orbital group  1
 Library entry C      F def2-QZVP            selected for orbital group  1
 Library entry C      G def2-QZVP            selected for orbital group  1
 Library entry O      S def2-QZVP            selected for orbital group  2
 Library entry O      P def2-QZVP            selected for orbital group  2
 Library entry O      D def2-QZVP            selected for orbital group  2
 Library entry O      F def2-QZVP            selected for orbital group  2
 Library entry O      G def2-QZVP            selected for orbital group  2
 Library entry H      S def2-QZVP            selected for orbital group  3
 Library entry H      P def2-QZVP            selected for orbital group  3
 Library entry H      D def2-QZVP            selected for orbital group  3
 Library entry H      F def2-QZVP            selected for orbital group  3


 PROGRAM * SEWARD (Integral evaluation for generally contracted gaussian basis sets)     Author: Roland Lindh, 1990

 Geometry written to block  1 of record 700


 Point group  C1  



 ATOMIC COORDINATES

 NR  ATOM    CHARGE       X              Y              Z

   1  C       6.00   -2.895684032    0.042462146    0.000000000
   2  C       6.00   -0.003628274    0.026853008    0.000000000
   3  O       8.00    0.703715112    2.652343999    0.000000000
   4  H       1.00    2.536919528    2.721885921    0.000000000
   5  H       1.00   -3.647001345   -1.886305720    0.000000000
   6  H       1.00   -3.605540754    1.027670861   -1.675298901
   7  H       1.00   -3.605540754    1.027670861    1.675298901
   8  C       6.00    1.026177977   -1.256025366   -2.392015328
   9  C       6.00    1.026177977   -1.256025366    2.392015328
  10  H       1.00    0.337051552   -0.278772398   -4.080731285
  11  H       1.00    0.337051552   -0.278772398    4.080731285
  12  H       1.00    0.448847749   -3.242770030   -2.499729718
  13  H       1.00    0.448847749   -3.242770030    2.499729718
  14  H       1.00    3.100738214   -1.205021658   -2.419454152
  15  H       1.00    3.100738214   -1.205021658    2.419454152

 Bond lengths in Bohr (Angstrom)

 1-2  2.892097881  1-5  2.069933136  1-6  2.069096224  1-7  2.069096224  2-3  2.719106031
     ( 1.530432290)     ( 1.095361444)     ( 1.094918569)     ( 1.094918569)     ( 1.438888946)

  2- 8  2.903104402   2- 9  2.903104402   3- 4  1.834522965   8-10  2.069222119   8-12  2.071730422
       ( 1.536256691)       ( 1.536256691)       ( 0.970787746)       ( 1.094985190)       ( 1.096312526)

  8-14  2.075368508   9-11  2.069222119   9-13  2.071730422   9-15  2.075368508
       ( 1.098237719)       ( 1.094985190)       ( 1.096312526)       ( 1.098237719)

 Bond angles

  1-2-3  104.76902697   1-2-8  110.92255387   1-2-9  110.92255387   2-1-5  110.97328220

  2- 1- 6  110.22090701   2- 1- 7  110.22090701   2- 3- 4  107.25071562   2- 8-10  110.21836376

  2- 8-12  111.57747468   2- 8-14  110.77023896   2- 9-11  110.21836376   2- 9-13  111.57747468

  2- 9-15  110.77023896   3- 2- 8  109.53648747   3- 2- 9  109.53648747   5- 1- 6  108.61190457

  5- 1- 7  108.61190457   6- 1- 7  108.12870271   8- 2- 9  110.96453384  10- 8-12  108.52192632

 10- 8-14  108.08997829  11- 9-13  108.52192632  11- 9-15  108.08997829  12- 8-14  107.54424578

 13- 9-15  107.54424578

 NUCLEAR CHARGE:                   42
 NUMBER OF PRIMITIVE AOS:         840
 NUMBER OF SYMMETRY AOS:          715
 NUMBER OF CONTRACTIONS:          585   ( 585A   )
 NUMBER OF CORE ORBITALS:           5   (   5A   )
 NUMBER OF VALENCE ORBITALS:       30   (  30A   )


 NUCLEAR REPULSION ENERGY  198.77359127


 Eigenvalues of metric

         1 0.447E-04 0.459E-04 0.470E-04 0.743E-04 0.823E-04 0.917E-04 0.943E-04 0.107E-03


 Contracted 2-electron integrals neglected if value below      1.0D-12
 AO integral compression algorithm  1   Integral accuracy      1.0D-12

     40752.906 MB (compressed) written to integral file ( 33.4%)


 NUMBER OF SORTED TWO-ELECTRON INTEGRALS:14689922715.     BUFFER LENGTH:  32768
 NUMBER OF SEGMENTS: 184  SEGMENT LENGTH:   79999773      RECORD LENGTH: 262144

 Memory used in sort:      80.29 MW

 SORT1 READ 15248138275. AND WROTE 10587813328. INTEGRALS IN  60679 RECORDS. CPU TIME:   183.71 SEC, REAL TIME:  2433.57 SEC
 SORT2 READ 10587813328. AND WROTE 14689922715. INTEGRALS IN 155460 RECORDS. CPU TIME:   323.22 SEC, REAL TIME:  3438.16 SEC

 FILE SIZES:   FILE 1: 40795.6 MBYTE,  FILE 4:127253.1 MBYTE,   TOTAL: 168048.8 MBYTE

 OPERATOR DM      FOR CENTER  0  COORDINATES:    0.000000    0.000000    0.000000


 **********************************************************************************************************************************
 DATASETS  * FILE   NREC   LENGTH (MB)   RECORD NAMES
              1      19    37754.71       500      610      700      900      950      970     1000      129      960     1100   
                                          VAR    BASINP    GEOM    SYMINP    ZMAT    AOBASIS   BASIS     P2S    ABASIS      S 
                                         1400     1410     1200     1210     1080     1600     1650     1300     1700   
                                           T        V       H0       H01     AOSYM     SMH    MOLCAS    ERIS     OPER   

 PROGRAMS   *        TOTAL       INT
 CPU TIMES  *      1138.32   1138.17
 REAL TIME  *      6627.84 SEC
 DISK USED  *       168.05 GB      
 **********************************************************************************************************************************

 Density functional group MM06=M06X+M06C
 Functional: M06X(Automatically generated (new) M06X)                          Gradient terms: 2
 Functional: M06C(Automatically generated (new) M06C)                          Gradient terms: 2
 Use grid at  1800.2


 Exact exchange will be calculated, factor:  0.2700

 Functional: M06X                      Factor:  0.7300
 Functional: M06C                      Factor:  1.0000

 Generated new metagrid on record  1800.2 with target accuracy 1.0D-06 and 58228 points in CPU time    1.6
 Computed new grid on record 1800.1 in CPU time    1.8
  914914 words reserved for DFT integration

 PROGRAM * UKS-SCF (Unrestricted Kohn-Sham)     Authors: W. Meyer, H.-J. Werner, P.J. Knowles, 1993

 NUMBER OF ELECTRONS:      21+   21-    SPACE SYMMETRY=1    SPIN SYMMETRY: Singlet 
 CONVERGENCE THRESHOLDS:    1.00E-05 (Density)    1.00E-06 (Energy)
 MAX. NUMBER OF ITERATIONS:       60
 INTERPOLATION TYPE:            DIIS
 INTERPOLATION STEPS:              2 (START)      1 (STEP)
 LEVEL SHIFTS:                 -0.20 (ALPHA)  -0.20 (BETA) 



 Use fine grid record 1800.2 for energy threshold  1.0D-06
 Orbital guess generated from atomic densities. Full valence occupancy:   21

 Molecular orbital dump at record        2200.2

 Initial alpha occupation  21
 Initial beta  occupation  21

 ITERATION    DDIFF          GRAD             ENERGY        2-EL.EN.            DIPOLE MOMENTS         DIIS
    1      0.000D+00      0.000D+00      -227.22966237    608.767682    0.66873   -0.64653    0.00000    0
    2      0.324D-02      0.820D-03      -227.33510330    595.833466    0.27776   -0.54087    0.00000    1
    3      0.599D-03      0.396D-03      -227.35237668    599.064234    0.34651   -0.52512    0.00000    2
    4      0.356D-03      0.595D-04      -227.35319472    598.778725    0.33584   -0.50395    0.00000    3
    5      0.226D-03      0.276D-04      -227.35342694    598.759011    0.33346   -0.50945    0.00000    4
    6      0.169D-03      0.129D-04      -227.35348295    598.662935    0.32888   -0.50277    0.00000    5
    7      0.601D-04      0.506D-05      -227.35348967    598.673299    0.32856   -0.50471    0.00000    6
    8      0.241D-04      0.120D-05      -227.35349033    598.674939    0.32818   -0.50486    0.00000    7
    9      0.747D-05      0.501D-06      -227.35349041    598.670231    0.32794   -0.50482    0.00000    7
   10      0.388D-05      0.187D-06      -227.35349043    598.671762    0.32790   -0.50490    0.00000    7

 Final alpha occupancy:  21
 Final beta  occupancy:  21

 !UKS STATE 1.1 Energy               -227.353490425522
 Nuclear energy                       198.77359127
 One-electron energy                 -706.92031181
 Two-electron energy                  299.33588121
 Density functional                   -18.54265110     M06X=-23.05999115 M06C= -1.70885755
 Virial quotient                       -1.00048364
 !UKS STATE 1.1 Dipole moment           0.32789837    -0.50489725     0.00000000
 Dipole moment /Debye                   0.83337994    -1.28323675     0.00000000

 Orbital energies for positive spin:

         1.1          2.1          3.1          4.1          5.1          6.1          7.1          8.1          9.1         10.1
    -18.821268    -9.978530    -9.917132    -9.917128    -9.912055    -0.973690    -0.739202    -0.642290    -0.641696    -0.520853

        11.1         12.1         13.1         14.1         15.1         16.1         17.1         18.1         19.1         20.1
     -0.445353    -0.409877    -0.407222    -0.369131    -0.354231    -0.335500    -0.319990    -0.311918    -0.304376    -0.277657

        21.1         22.1         23.1
     -0.231645     0.018731     0.049594

 Orbital energies for negative spin:

         1.1          2.1          3.1          4.1          5.1          6.1          7.1          8.1          9.1         10.1
    -18.821268    -9.978530    -9.917132    -9.917128    -9.912055    -0.973690    -0.739202    -0.642290    -0.641696    -0.520853

        11.1         12.1         13.1         14.1         15.1         16.1         17.1         18.1         19.1         20.1
     -0.445353    -0.409877    -0.407222    -0.369131    -0.354231    -0.335500    -0.319990    -0.311918    -0.304376    -0.277657

        21.1         22.1         23.1
     -0.231645     0.018731     0.049594

 HOMO     21.1    -0.231645 =      -6.3034eV
 LUMO     22.1     0.018731 =       0.5097eV
 LUMO-HOMO         0.250376 =       6.8131eV

 EXPECTATION VALUE OF S**2:            -0.00000000

 Natural orbitals saved to record    2200.2 (Orbital set 3)

 Orbital spaces for UNO-CAS (Min. occupation: 0.020  Max. occupation: 1.980):

 Closed:       21
 Active:        0


 **********************************************************************************************************************************
 DATASETS  * FILE   NREC   LENGTH (MB)   RECORD NAMES
              1      20    37756.57       500      610      700      900      950      970     1000      129      960     1100   
                                          VAR    BASINP    GEOM    SYMINP    ZMAT    AOBASIS   BASIS     P2S    ABASIS      S 
                                         1400     1410     1200     1210     1080     1600     1650     1300     1700     1800   
                                           T        V       H0       H01     AOSYM     SMH    MOLCAS    ERIS     OPER     GRID   

              2       5       16.83       700     1000      520     1800     2200   
                                         GEOM     BASIS   MCVARS    GRID      UKS  

 PROGRAMS   *        TOTAL       UKS       INT
 CPU TIMES  *      5602.94   4464.62   1138.17
 REAL TIME  *     15756.19 SEC
 DISK USED  *       168.05 GB      
 **********************************************************************************************************************************


 PROGRAM * Intrinsic Basis Bonding Analysis (IBBA)          Author: G. Knizia

 Molecular orbitals read from record     2200.2  Type=UKS/ALPHA (state 1.1)
 Fock matrix read from record            2200.2  Type=UKS/TOTAL (state 1.1)
 Orbital energies read from record       2200.2  Type=UKS/ALPHA (state 1.1)
 Density matrix read from record         2200.2  Type=UKS/CHARGE (state 1.1)

 Number of core orbitals:           5 (   5 )
 Number of closed-shell orbitals:  16 (  16 )

 Basis set MINAO-AUTO-PP generated.      Number of basis functions:   35 

 Polarized AO type:                A = (O Ot + (1-O)(1-Ot)) P12
 Orthogonalization method:         Symmetric (Loewdin)
 Localization functional:          L = sum[A,i] <i|n_A|i>^4 -> max

 Localization group 1:  21 orbitals, occupancy  2.000
 Iterative localization: IB/PM,    7 iter; Final gradient 0.30E-08

 Bond order analysis:       [THRPRINT= 0.020]

   CEN ATOM   CEN ATOM     WIBERG.BO      RENORM.BO
     1   C  -   2   C       0.994496       0.993902
     1   C  -   5   H       0.965082       0.985614
     1   C  -   6   H       0.960531       0.979229
     1   C  -   7   H       0.960531       0.979229

     2   C  -   1   C       0.994496       0.993902
     2   C  -   9   C       0.994000       0.975896
     2   C  -   8   C       0.994000       0.975896
     2   C  -   3   O       0.936215       0.949481

     3   O  -   2   C       0.936215       0.949481
     3   O  -   4   H       0.872779       0.971950
     3   O  -   8   C       0.029719       0.015257
     3   O  -   9   C       0.029719       0.015257

     4   H  -   3   O       0.872779       0.971950

     5   H  -   1   C       0.965082       0.985614

     6   H  -   1   C       0.960531       0.979229

     7   H  -   1   C       0.960531       0.979229

     8   C  -   2   C       0.994000       0.975896
     8   C  -  14   H       0.963861       0.980330
     8   C  -  10   H       0.960933       0.979001
     8   C  -  12   H       0.960639       0.979143
     8   C  -   3   O       0.029719       0.015257

     9   C  -   2   C       0.994000       0.975896
     9   C  -  15   H       0.963861       0.980330
     9   C  -  11   H       0.960933       0.979001
     9   C  -  13   H       0.960639       0.979143
     9   C  -   3   O       0.029719       0.015257

    10   H  -   8   C       0.960933       0.979001

    11   H  -   9   C       0.960933       0.979001

    12   H  -   8   C       0.960639       0.979143

    13   H  -   9   C       0.960639       0.979143

    14   H  -   8   C       0.963861       0.980330

    15   H  -   9   C       0.963861       0.980330


 Valency analysis:

   CEN ATOM   TOT.VALENCE
     1   C       3.946834
     2   C       3.930581
     3   O       1.941958
     4   H       0.895560
     5   H       0.985936
     6   H       0.983933
     7   H       0.983933
     8   C       3.948804
     9   C       3.948804
    10   H       0.983873
    11   H       0.983873
    12   H       0.985354
    13   H       0.985354
    14   H       0.987322
    15   H       0.987322

 Total charge composition:

   CEN ATOM         s          p       ELECTRONS ->P.CHARGE
     1   C       3.01789    3.35348      6.37137   -0.37137
     2   C       2.91934    2.80721      5.72655    0.27345
     3   O       3.63867    4.90794      8.54661   -0.54661
     4   H       0.67683                 0.67683    0.32317
     5   H       0.88141                 0.88141    0.11859
     6   H       0.87325                 0.87325    0.12675
     7   H       0.87325                 0.87325    0.12675
     8   C       3.02552    3.36045      6.38598   -0.38598
     9   C       3.02552    3.36045      6.38598   -0.38598
    10   H       0.87301                 0.87301    0.12699
    11   H       0.87301                 0.87301    0.12699
    12   H       0.87898                 0.87898    0.12102
    13   H       0.87898                 0.87898    0.12102
    14   H       0.88740                 0.88740    0.11260
    15   H       0.88740                 0.88740    0.11260

 Total charge composition, AO contributions:

   CEN ATOM SHL      SPHERICAL COMPONENTS
     1   C  1s       1.99246
     1   C  2s       1.02543
     1   C  2p       1.04100    1.15070    1.16178

     2   C  1s       1.99393
     2   C  2s       0.92542
     2   C  2p       1.00729    0.79023    1.00969

     3   O  1s       1.99745
     3   O  2s       1.64122
     3   O  2p       1.45943    1.49614    1.95237

     4   H  1s       0.67683

     5   H  1s       0.88141

     6   H  1s       0.87325

     7   H  1s       0.87325

     8   C  1s       1.99255
     8   C  2s       1.03297
     8   C  2p       1.13387    1.13502    1.09157

     9   C  1s       1.99255
     9   C  2s       1.03297
     9   C  2p       1.13387    1.13502    1.09157

    10   H  1s       0.87301

    11   H  1s       0.87301

    12   H  1s       0.87898

    13   H  1s       0.87898

    14   H  1s       0.88740

    15   H  1s       0.88740

 Summary of localized orbital composition:   [THRPRINT= 0.020]

   ORB  GRP  ORB.ENERGY      CENTERS/CHARGES
     1   1   -18.670636      O  3   2.000
     2   1    -9.890320      C  2   2.000
     3   1    -9.807928      C  9   2.000
     4   1    -9.807928      C  8   2.000
     5   1    -9.802150      C  1   2.000
     6   1    -0.709461      O  3   1.326   H  4   0.663
     7   1    -0.681250      O  3   1.283   C  2   0.699
     8   1    -0.528861      C  9   1.013   C  2   0.971
     9   1    -0.528861      C  8   1.013   C  2   0.971
    10   1    -0.528861      C  1   0.995   C  2   0.979   (other: 0.026)
    11   1    -0.528195      O  3   1.980
    12   1    -0.457689      C  8   1.117   H 12   0.869
    13   1    -0.457689      C  9   1.117   H 13   0.869
    14   1    -0.456335      C  8   1.107   H 14   0.880
    15   1    -0.456335      C  9   1.107   H 15   0.880
    16   1    -0.454006      C  1   1.112   H  5   0.874
    17   1    -0.451732      C  9   1.125   H 11   0.864
    18   1    -0.451732      C  8   1.125   H 10   0.864
    19   1    -0.447159      C  1   1.124   H  6   0.864
    20   1    -0.447159      C  1   1.124   H  7   0.864
    21   1    -0.266392      O  3   1.952   (other: 0.048)

 Localized orbitals saved to record      2200.2  (orbital set 4)


 **********************************************************************************************************************************
 DATASETS  * FILE   NREC   LENGTH (MB)   RECORD NAMES
              1      20    37756.57       500      610      700      900      950      970     1000      129      960     1100   
                                          VAR    BASINP    GEOM    SYMINP    ZMAT    AOBASIS   BASIS     P2S    ABASIS      S 
                                         1400     1410     1200     1210     1080     1600     1650     1300     1700     1800   
                                           T        V       H0       H01     AOSYM     SMH    MOLCAS    ERIS     OPER     GRID   

              2       5       19.57       700     1000      520     1800     2200   
                                         GEOM     BASIS   MCVARS    GRID      UKS  

 PROGRAMS   *        TOTAL      IBBA       UKS       INT
 CPU TIMES  *      5603.39      0.44   4464.62   1138.17
 REAL TIME  *     15756.78 SEC
 DISK USED  *       168.05 GB      
 **********************************************************************************************************************************
 Molecular orbitals read from record     2200.2  Type=UKS/LOCAL(IBO)  
 Occupation numbers read from record     2200.2  Type=UKS/LOCAL(IBO)  
 Orbital energies read from record       2200.2  Type=UKS/LOCAL(IBO)  
 Redundancy group numbers read from rec  2200.2  Type=UKS/BETA (state 1.1)

 IBBA/QZVP energy=      0.000000000000

        UKS-SCF 
   -227.35349043
 **********************************************************************************************************************************
 Molpro calculation terminated
