
 Primary working directories    : /local
 Secondary working directories  : /local
 Wavefunction directory         : /local/
 Main file repository           : /local/

 SHA1      : b4a5b34a9e711420743f49e6833241d17c61fb3c
 NAME      : 2099.9.b4a5b34
 ARCHNAME  : linux/x86_64_openmp
 FC        : /cm/shared/languages/GCC-6.1/bin/gfortran
 BLASLIB   : -lblas
 id        : simonbennie

 Nodes     nprocs
 node36-003    1

 Using customized tuning parameters: mindgm=1; mindgv=20; mindgc=4; mindgr=1; noblas=0; minvec=7
 default implementation of scratch files=df  

 memory,500,m
 geomtyp=xyz
 nosym
 noorient
 geometry={
 C         -1.53233        0.02247        0.00000
 C         -0.00192        0.01421        0.00000
 O          0.37239        1.40356        0.00000
 H          1.34248        1.44036        0.00000
 H         -1.92991       -0.99819        0.00000
 H         -1.90797        0.54382       -0.88653
 H         -1.90797        0.54382        0.88653
 C          0.54303       -0.66466       -1.26580
 C          0.54303       -0.66466        1.26580
 H          0.17836       -0.14752       -2.15943
 H          0.17836       -0.14752        2.15943
 H          0.23752       -1.71600       -1.32280
 H          0.23752       -1.71600        1.32280
 H          1.64084       -0.63767       -1.28032
 H          1.64084       -0.63767        1.28032
 }
 basis={ default,avdz }
 {ks,SOGGA11,direct;wf,42,1,0}
 {ibba,bonds=1}

 Variables initialized (895), CPU time= 0.00 sec
 Commands  initialized (725), CPU time= 0.02 sec, 591 directives.
 Default parameters read. Elapsed time= 0.17 sec

 Checking input...
 Passed
1


                                         ***  PROGRAM SYSTEM MOLPRO  ***
                                       Copyright, TTI GmbH Stuttgart, 2015
                                    Version 2099.9 linked May 26 2017 16:03:21


 **********************************************************************************************************************************
 LABEL *                                                                                 
  64 bit serial version                                                                  DATE: 12-Jun-17          TIME: 15:49:57  
 **********************************************************************************************************************************

 SHA1:             b4a5b34a9e711420743f49e6833241d17c61fb3c
 **********************************************************************************************************************************
 SETTING GEOMTYP        =    XYZ

 Variable memory set to  500000000 words,  buffer space 

 ZSYMEL=NOSYM

 SETTING BASIS          =    AVDZ


 Recomputing integrals since basis changed


 Using spherical harmonics

 Library entry C      S aug-cc-pVDZ          selected for orbital group  1
 Library entry C      P aug-cc-pVDZ          selected for orbital group  1
 Library entry C      D aug-cc-pVDZ          selected for orbital group  1
 Library entry O      S aug-cc-pVDZ          selected for orbital group  2
 Library entry O      P aug-cc-pVDZ          selected for orbital group  2
 Library entry O      D aug-cc-pVDZ          selected for orbital group  2
 Library entry H      S aug-cc-pVDZ          selected for orbital group  3
 Library entry H      P aug-cc-pVDZ          selected for orbital group  3


 PROGRAM * SEWARD (Integral evaluation for generally contracted gaussian basis sets)     Author: Roland Lindh, 1990

 Geometry written to block  1 of record 700


 Point group  C1  



 ATOMIC COORDINATES

 NR  ATOM    CHARGE       X              Y              Z

   1  C       6.00   -2.895684032    0.042462146    0.000000000
   2  C       6.00   -0.003628274    0.026853008    0.000000000
   3  O       8.00    0.703715112    2.652343999    0.000000000
   4  H       1.00    2.536919528    2.721885921    0.000000000
   5  H       1.00   -3.647001345   -1.886305720    0.000000000
   6  H       1.00   -3.605540754    1.027670861   -1.675298901
   7  H       1.00   -3.605540754    1.027670861    1.675298901
   8  C       6.00    1.026177977   -1.256025366   -2.392015328
   9  C       6.00    1.026177977   -1.256025366    2.392015328
  10  H       1.00    0.337051552   -0.278772398   -4.080731285
  11  H       1.00    0.337051552   -0.278772398    4.080731285
  12  H       1.00    0.448847749   -3.242770030   -2.499729718
  13  H       1.00    0.448847749   -3.242770030    2.499729718
  14  H       1.00    3.100738214   -1.205021658   -2.419454152
  15  H       1.00    3.100738214   -1.205021658    2.419454152

 Bond lengths in Bohr (Angstrom)

 1-2  2.892097881  1-5  2.069933136  1-6  2.069096224  1-7  2.069096224  2-3  2.719106031
     ( 1.530432290)     ( 1.095361444)     ( 1.094918569)     ( 1.094918569)     ( 1.438888946)

  2- 8  2.903104402   2- 9  2.903104402   3- 4  1.834522965   8-10  2.069222119   8-12  2.071730422
       ( 1.536256691)       ( 1.536256691)       ( 0.970787746)       ( 1.094985190)       ( 1.096312526)

  8-14  2.075368508   9-11  2.069222119   9-13  2.071730422   9-15  2.075368508
       ( 1.098237719)       ( 1.094985190)       ( 1.096312526)       ( 1.098237719)

 Bond angles

  1-2-3  104.76902697   1-2-8  110.92255387   1-2-9  110.92255387   2-1-5  110.97328220

  2- 1- 6  110.22090701   2- 1- 7  110.22090701   2- 3- 4  107.25071562   2- 8-10  110.21836376

  2- 8-12  111.57747468   2- 8-14  110.77023896   2- 9-11  110.21836376   2- 9-13  111.57747468

  2- 9-15  110.77023896   3- 2- 8  109.53648747   3- 2- 9  109.53648747   5- 1- 6  108.61190457

  5- 1- 7  108.61190457   6- 1- 7  108.12870271   8- 2- 9  110.96453384  10- 8-12  108.52192632

 10- 8-14  108.08997829  11- 9-13  108.52192632  11- 9-15  108.08997829  12- 8-14  107.54424578

 13- 9-15  107.54424578

 NUCLEAR CHARGE:                   42
 NUMBER OF PRIMITIVE AOS:         295
 NUMBER OF SYMMETRY AOS:          285
 NUMBER OF CONTRACTIONS:          205   ( 205A   )
 NUMBER OF CORE ORBITALS:           5   (   5A   )
 NUMBER OF VALENCE ORBITALS:       30   (  30A   )


 NUCLEAR REPULSION ENERGY  198.77359127


 Eigenvalues of metric

         1 0.151E-04 0.552E-04 0.579E-04 0.110E-03 0.111E-03 0.217E-03 0.237E-03 0.259E-03


 Contracted 2-electron integrals neglected if value below      1.0D-12
 AO integral compression algorithm  1   Integral accuracy      1.0D-12

     1203.503 MB (compressed) written to integral file ( 61.3%)


 NUMBER OF SORTED TWO-ELECTRON INTEGRALS:  222932170.     BUFFER LENGTH:  32768
 NUMBER OF SEGMENTS:  14  SEGMENT LENGTH:   15999503      RECORD LENGTH: 524288

 Memory used in sort:      16.56 MW

 SORT1 READ   245224724. AND WROTE   218324786. INTEGRALS IN    630 RECORDS. CPU TIME:     3.37 SEC, REAL TIME:    34.05 SEC
 SORT2 READ   218324786. AND WROTE   222932170. INTEGRALS IN   4591 RECORDS. CPU TIME:     5.67 SEC, REAL TIME:    20.00 SEC

 FILE SIZES:   FILE 1:  1235.3 MBYTE,  FILE 4:  2642.4 MBYTE,   TOTAL:   3877.7 MBYTE

 OPERATOR DM      FOR CENTER  0  COORDINATES:    0.000000    0.000000    0.000000


 **********************************************************************************************************************************
 DATASETS  * FILE   NREC   LENGTH (MB)   RECORD NAMES
              1      19     1149.90       500      610      700      900      950      970     1000      129      960     1100   
                                          VAR    BASINP    GEOM    SYMINP    ZMAT    AOBASIS   BASIS     P2S    ABASIS      S 
                                         1400     1410     1200     1210     1080     1600     1650     1300     1700   
                                           T        V       H0       H01     AOSYM     SMH    MOLCAS    ERIS     OPER   

 PROGRAMS   *        TOTAL       INT
 CPU TIMES  *        21.62     21.48
 REAL TIME  *       114.97 SEC
 DISK USED  *         3.88 GB      
 **********************************************************************************************************************************

 Density functional group SOGGA11=XC-SOGGA11
 Functional: XC-SOGGA11(via MFM 1.6)                                           Gradient terms: 1
 Use grid at  1800.2

 Functional: XC-SOGGA11                Factor:  1.0000

 Generated new metagrid on record  1800.2 with target accuracy 1.0D-06 and 53396 points in CPU time    1.7
 Computed new grid on record 1800.1 in CPU time    1.9
  167289 words reserved for DFT integration

 PROGRAM * RKS-SCF (Restricted closed shell Kohn-Sham)     Authors: W. Meyer, H.-J. Werner, P.J. Knowles, 1993

 NUMBER OF ELECTRONS:      21+   21-    SPACE SYMMETRY=1    SPIN SYMMETRY: Singlet 
 CONVERGENCE THRESHOLDS:    1.00E-05 (Density)    1.00E-06 (Energy)
 MAX. NUMBER OF ITERATIONS:       60
 INTERPOLATION TYPE:            DIIS
 INTERPOLATION STEPS:              2 (START)      1 (STEP)
 LEVEL SHIFTS:                  0.00 (CLOSED)  0.00 (OPEN) 



 Use fine grid record 1800.2 for energy threshold  1.0D-06
 Orbital guess generated from atomic densities. Full valence occupancy:   35

 Molecular orbital dump at record        2100.2

 Initial occupancy:  21

 ITERATION    DDIFF          GRAD             ENERGY        2-EL.EN.            DIPOLE MOMENTS         DIIS   ORB.
    1      0.000D+00      0.000D+00      -233.40456445    640.797771    0.68295   -0.73941    0.00000    0    start
    2      0.000D+00      0.875D-02      -231.12123195    557.340180   -6.57468    3.44461   -0.00000    1    diag
    3      0.598D+00      0.205D-01      -233.53670026    627.714682    0.26072   -1.75171    0.00000    2    diag
    4      0.576D+00      0.711D-02      -233.69432721    625.878568    0.32849   -0.82193    0.00000    3    diag
    5      0.186D-01      0.177D-02      -233.70678654    622.592412    0.36820   -0.56455   -0.00000    4    diag
    6      0.246D-01      0.103D-02      -233.71027727    622.837982    0.32697   -0.45435   -0.00000    5    diag
    7      0.931D-02      0.537D-03      -233.71179481    622.332336    0.33447   -0.44292    0.00000    6    diag
    8      0.895D-02      0.274D-03      -233.71257533    622.218200    0.34510   -0.44320   -0.00000    7    diag
    9      0.941D-02      0.182D-03      -233.71297188    622.163365    0.32826   -0.42014   -0.00000    8    diag
   10      0.782D-02      0.112D-03      -233.71318372    621.989419    0.33799   -0.43628    0.00000    9    orth
   11      0.707D-02      0.125D-03      -233.71325014    622.017754    0.33937   -0.43471    0.00000    9    diag
   12      0.283D-02      0.678D-04      -233.71328552    621.861572    0.32633   -0.42055    0.00000    9    diag
   13      0.584D-02      0.118D-03      -233.71333844    621.935955    0.33520   -0.42452    0.00000    9    diag
   14      0.242D-02      0.356D-04      -233.71334646    621.922148    0.33555   -0.42684    0.00000    9    diag
   15      0.174D-02      0.203D-04      -233.71334883    621.913625    0.33577   -0.42499   -0.00000    9    diag
   16      0.991D-03      0.117D-04      -233.71334960    621.908084    0.33751   -0.42478    0.00000    9    diag
   17      0.536D-03      0.747D-05      -233.71334986    621.913891    0.33738   -0.42504   -0.00000    9    diag
   18      0.195D-03      0.275D-05      -233.71334992    621.914996    0.33821   -0.42521    0.00000    9    diag
   19      0.170D-03      0.308D-05      -233.71334998    621.911916    0.33839   -0.42510   -0.00000    9    fixocc
   20      0.897D-04      0.159D-05      -233.71334999    621.911404    0.33846   -0.42501    0.00000    9    orth
   21      0.644D-04      0.164D-05      -233.71335001    621.911621    0.33895   -0.42501    0.00000    9    diag
   22      0.108D-03      0.973D-06      -233.71335002    621.911368    0.33914   -0.42502    0.00000    9    diag
   23      0.459D-04      0.435D-06      -233.71335002    621.910970    0.33919   -0.42486   -0.00000    9    diag
   24      0.250D-04      0.331D-06      -233.71335002    621.911111    0.33925   -0.42487    0.00000    9    diag
   25      0.179D-04      0.226D-06      -233.71335003    621.911020    0.33930   -0.42479   -0.00000    9    diag
   26      0.190D-04      0.246D-06      -233.71335003    621.911001    0.33930   -0.42479   -0.00000    9    diag
   27      0.437D-05      0.272D-06      -233.71335003    621.911314    0.33924   -0.42480    0.00000    0    orth

 Final occupancy:  21

 !RKS STATE 1.1 Energy               -233.713350027375
 Nuclear energy                       198.77359127
 One-electron energy                 -709.35196442
 Two-electron energy                  310.95565723
 Density functional                   -34.09063412     XC-SOGGA11=-34.09063412
 Virial quotient                       -1.00610013
 !RKS STATE 1.1 Dipole moment           0.33924365    -0.42480207     0.00000000
 Dipole moment /Debye                   0.86221488    -1.07966845     0.00000000

 Orbital energies:

         1.1          2.1          3.1          4.1          5.1          6.1          7.1          8.1          9.1         10.1
    -18.778260    -9.978212    -9.900325    -9.900300    -9.894867    -0.931933    -0.719940    -0.629671    -0.628798    -0.518858

        11.1         12.1         13.1         14.1         15.1         16.1         17.1         18.1         19.1         20.1
     -0.445854    -0.410134    -0.407946    -0.371357    -0.358837    -0.343217    -0.330879    -0.319150    -0.313690    -0.285866

        21.1         22.1         23.1
     -0.230184    -0.078075    -0.055181

 HOMO     21.1    -0.230184 =      -6.2636eV
 LUMO     22.1    -0.078075 =      -2.1245eV
 LUMO-HOMO         0.152109 =       4.1391eV


 **********************************************************************************************************************************
 DATASETS  * FILE   NREC   LENGTH (MB)   RECORD NAMES
              1      20     1151.61       500      610      700      900      950      970     1000      129      960     1100   
                                          VAR    BASINP    GEOM    SYMINP    ZMAT    AOBASIS   BASIS     P2S    ABASIS      S 
                                         1400     1410     1200     1210     1080     1600     1650     1300     1700     1800   
                                           T        V       H0       H01     AOSYM     SMH    MOLCAS    ERIS     OPER     GRID   

              2       5        3.87       700     1000      520     1800     2100   
                                         GEOM     BASIS   MCVARS    GRID      RKS  

 PROGRAMS   *        TOTAL        KS       INT
 CPU TIMES  *       149.97    128.34     21.48
 REAL TIME  *       265.97 SEC
 DISK USED  *         3.88 GB      
 **********************************************************************************************************************************


 PROGRAM * Intrinsic Basis Bonding Analysis (IBBA)          Author: G. Knizia

 Molecular orbitals read from record     2100.2  Type=RKS/CANONICAL (state 1.1)
 Fock matrix read from record            2100.2  Type=RKS/TOTAL (state 1.1)
 Orbital energies read from record       2100.2  Type=RKS/CANONICAL (state 1.1)
 Density matrix read from record         2100.2  Type=RKS/CHARGE (state 1.1)

 Number of core orbitals:           5 (   5 )
 Number of closed-shell orbitals:  16 (  16 )

 Basis set MINAO-AUTO-PP generated.      Number of basis functions:   35 

 Polarized AO type:                A = (O Ot + (1-O)(1-Ot)) P12
 Orthogonalization method:         Symmetric (Loewdin)
 Localization functional:          L = sum[A,i] <i|n_A|i>^4 -> max

 Localization group 1:  21 orbitals, occupancy  2.000
 Iterative localization: IB/PM,    7 iter; Final gradient 0.48E-08

 Bond order analysis:       [THRPRINT= 0.020]

   CEN ATOM   CEN ATOM     WIBERG.BO      RENORM.BO
     1   C  -   2   C       0.995515       0.992530
     1   C  -   5   H       0.958965       0.986091
     1   C  -   6   H       0.953295       0.978271
     1   C  -   7   H       0.953295       0.978271

     2   C  -   1   C       0.995515       0.992530
     2   C  -   9   C       0.994094       0.972727
     2   C  -   8   C       0.994094       0.972727
     2   C  -   3   O       0.943951       0.949418

     3   O  -   2   C       0.943951       0.949418
     3   O  -   4   H       0.852225       0.974511
     3   O  -   8   C       0.031219       0.015885
     3   O  -   9   C       0.031219       0.015885

     4   H  -   3   O       0.852225       0.974511

     5   H  -   1   C       0.958965       0.986091

     6   H  -   1   C       0.953295       0.978271

     7   H  -   1   C       0.953295       0.978271

     8   C  -   2   C       0.994094       0.972727
     8   C  -  14   H       0.957860       0.979228
     8   C  -  12   H       0.953811       0.977665
     8   C  -  10   H       0.953745       0.977503
     8   C  -   3   O       0.031219       0.015885

     9   C  -   2   C       0.994094       0.972727
     9   C  -  15   H       0.957860       0.979228
     9   C  -  13   H       0.953811       0.977665
     9   C  -  11   H       0.953745       0.977503
     9   C  -   3   O       0.031219       0.015885

    10   H  -   8   C       0.953745       0.977503

    11   H  -   9   C       0.953745       0.977503

    12   H  -   8   C       0.953811       0.977665

    13   H  -   9   C       0.953811       0.977665

    14   H  -   8   C       0.957860       0.979228

    15   H  -   9   C       0.957860       0.979228


 Valency analysis:

   CEN ATOM   TOT.VALENCE
     1   C       3.927966
     2   C       3.937244
     3   O       1.934873
     4   H       0.873002
     5   H       0.978817
     6   H       0.976856
     7   H       0.976856
     8   C       3.931347
     9   C       3.931347
    10   H       0.977053
    11   H       0.977053
    12   H       0.978680
    13   H       0.978680
    14   H       0.981140
    15   H       0.981140

 Total charge composition:

   CEN ATOM         s          p       ELECTRONS ->P.CHARGE
     1   C       3.04874    3.39209      6.44083   -0.44083
     2   C       2.93685    2.82749      5.76433    0.23567
     3   O       3.64919    4.91298      8.56217   -0.56217
     4   H       0.64363                 0.64363    0.35637
     5   H       0.85446                 0.85446    0.14554
     6   H       0.84787                 0.84787    0.15213
     7   H       0.84787                 0.84787    0.15213
     8   C       3.05762    3.39663      6.45425   -0.45425
     9   C       3.05762    3.39663      6.45425   -0.45425
    10   H       0.84852                 0.84852    0.15148
    11   H       0.84852                 0.84852    0.15148
    12   H       0.85398                 0.85398    0.14602
    13   H       0.85398                 0.85398    0.14602
    14   H       0.86267                 0.86267    0.13733
    15   H       0.86267                 0.86267    0.13733

 Total charge composition, AO contributions:

   CEN ATOM SHL      SPHERICAL COMPONENTS
     1   C  1s       1.99160
     1   C  2s       1.05714
     1   C  2p       1.03454    1.17310    1.18445

     2   C  1s       1.99318
     2   C  2s       0.94367
     2   C  2p       1.01302    0.79955    1.01492

     3   O  1s       1.99727
     3   O  2s       1.65192
     3   O  2p       1.48467    1.47935    1.94895

     4   H  1s       0.64363

     5   H  1s       0.85446

     6   H  1s       0.84787

     7   H  1s       0.84787

     8   C  1s       1.99170
     8   C  2s       1.06592
     8   C  2p       1.15191    1.15144    1.09328

     9   C  1s       1.99170
     9   C  2s       1.06592
     9   C  2p       1.15191    1.15144    1.09328

    10   H  1s       0.84852

    11   H  1s       0.84852

    12   H  1s       0.85398

    13   H  1s       0.85398

    14   H  1s       0.86267

    15   H  1s       0.86267

 Summary of localized orbital composition:   [THRPRINT= 0.020]

   ORB  GRP  ORB.ENERGY      CENTERS/CHARGES
     1   1   -18.625799      O  3   2.000
     2   1    -9.889142      C  2   2.000
     3   1    -9.787775      C  8   2.000
     4   1    -9.787775      C  9   2.000
     5   1    -9.781674      C  1   2.000
     6   1    -0.705560      O  3   1.359   H  4   0.631
     7   1    -0.662108      O  3   1.271   C  2   0.709   (other: 0.020)
     8   1    -0.529873      C  9   1.005   C  2   0.978
     9   1    -0.529873      C  8   1.005   C  2   0.978
    10   1    -0.529198      C  1   0.987   C  2   0.986   (other: 0.027)
    11   1    -0.507996      O  3   1.980   (other: 0.020)
    12   1    -0.460388      C  8   1.142   H 12   0.843
    13   1    -0.460388      C  9   1.142   H 13   0.843
    14   1    -0.459280      C  8   1.133   H 14   0.854
    15   1    -0.459280      C  9   1.133   H 15   0.854
    16   1    -0.456370      C  1   1.139   H  5   0.847
    17   1    -0.454939      C  9   1.150   H 11   0.839
    18   1    -0.454939      C  8   1.150   H 10   0.839
    19   1    -0.450377      C  1   1.149   H  6   0.839
    20   1    -0.450377      C  1   1.149   H  7   0.839
    21   1    -0.255172      O  3   1.949   (other: 0.051)

 Localized orbitals saved to record      2100.2  (orbital set 2)


 **********************************************************************************************************************************
 DATASETS  * FILE   NREC   LENGTH (MB)   RECORD NAMES
              1      20     1151.61       500      610      700      900      950      970     1000      129      960     1100   
                                          VAR    BASINP    GEOM    SYMINP    ZMAT    AOBASIS   BASIS     P2S    ABASIS      S 
                                         1400     1410     1200     1210     1080     1600     1650     1300     1700     1800   
                                           T        V       H0       H01     AOSYM     SMH    MOLCAS    ERIS     OPER     GRID   

              2       5        4.21       700     1000      520     1800     2100   
                                         GEOM     BASIS   MCVARS    GRID      RKS  

 PROGRAMS   *        TOTAL      IBBA        KS       INT
 CPU TIMES  *       150.04      0.08    128.34     21.48
 REAL TIME  *       266.37 SEC
 DISK USED  *         3.88 GB      
 **********************************************************************************************************************************
 Molecular orbitals read from record     2100.2  Type=RKS/LOCAL(IBO)  
 Occupation numbers read from record     2100.2  Type=RKS/LOCAL(IBO)  
 Orbital energies read from record       2100.2  Type=RKS/LOCAL(IBO)  
 Redundancy group numbers read from rec  2100.2  Type=RKS/LOCAL(IBO)  

 IBBA/aug-cc-pVDZ energy=      0.000000000000

        KS-SCF  
   -233.71335003
 **********************************************************************************************************************************
 Molpro calculation terminated
