
 Primary working directories    : /local
 Secondary working directories  : /local
 Wavefunction directory         : /local/
 Main file repository           : /local/

 SHA1      : b4a5b34a9e711420743f49e6833241d17c61fb3c
 NAME      : 2099.9.b4a5b34
 ARCHNAME  : linux/x86_64_openmp
 FC        : /cm/shared/languages/GCC-6.1/bin/gfortran
 BLASLIB   : -lblas
 id        : simonbennie

 Nodes     nprocs
 node35-028    1

 Using customized tuning parameters: mindgm=1; mindgv=20; mindgc=4; mindgr=1; noblas=0; minvec=7
 default implementation of scratch files=df  

 memory,500,m
 geomtyp=xyz
 nosym
 noorient
 geometry={
 C         -1.53233        0.02247        0.00000
 C         -0.00192        0.01421        0.00000
 O          0.37239        1.40356        0.00000
 H          1.34248        1.44036        0.00000
 H         -1.92991       -0.99819        0.00000
 H         -1.90797        0.54382       -0.88653
 H         -1.90797        0.54382        0.88653
 C          0.54303       -0.66466       -1.26580
 C          0.54303       -0.66466        1.26580
 H          0.17836       -0.14752       -2.15943
 H          0.17836       -0.14752        2.15943
 H          0.23752       -1.71600       -1.32280
 H          0.23752       -1.71600        1.32280
 H          1.64084       -0.63767       -1.28032
 H          1.64084       -0.63767        1.28032
 }
 basis={ default,avdz }
 {uks,CS,direct;wf,42,1,0}
 {ibba,bonds=1}

 Variables initialized (895), CPU time= 0.01 sec
 Commands  initialized (725), CPU time= 0.01 sec, 591 directives.
 Default parameters read. Elapsed time= 0.25 sec

 Checking input...
 Passed
1


                                         ***  PROGRAM SYSTEM MOLPRO  ***
                                       Copyright, TTI GmbH Stuttgart, 2015
                                    Version 2099.9 linked May 26 2017 16:03:21


 **********************************************************************************************************************************
 LABEL *                                                                                 
  64 bit serial version                                                                  DATE: 12-Jun-17          TIME: 16:22:02  
 **********************************************************************************************************************************

 SHA1:             b4a5b34a9e711420743f49e6833241d17c61fb3c
 **********************************************************************************************************************************
 SETTING GEOMTYP        =    XYZ

 Variable memory set to  500000000 words,  buffer space 

 ZSYMEL=NOSYM

 SETTING BASIS          =    AVDZ


 Recomputing integrals since basis changed


 Using spherical harmonics

 Library entry C      S aug-cc-pVDZ          selected for orbital group  1
 Library entry C      P aug-cc-pVDZ          selected for orbital group  1
 Library entry C      D aug-cc-pVDZ          selected for orbital group  1
 Library entry O      S aug-cc-pVDZ          selected for orbital group  2
 Library entry O      P aug-cc-pVDZ          selected for orbital group  2
 Library entry O      D aug-cc-pVDZ          selected for orbital group  2
 Library entry H      S aug-cc-pVDZ          selected for orbital group  3
 Library entry H      P aug-cc-pVDZ          selected for orbital group  3


 PROGRAM * SEWARD (Integral evaluation for generally contracted gaussian basis sets)     Author: Roland Lindh, 1990

 Geometry written to block  1 of record 700


 Point group  C1  



 ATOMIC COORDINATES

 NR  ATOM    CHARGE       X              Y              Z

   1  C       6.00   -2.895684032    0.042462146    0.000000000
   2  C       6.00   -0.003628274    0.026853008    0.000000000
   3  O       8.00    0.703715112    2.652343999    0.000000000
   4  H       1.00    2.536919528    2.721885921    0.000000000
   5  H       1.00   -3.647001345   -1.886305720    0.000000000
   6  H       1.00   -3.605540754    1.027670861   -1.675298901
   7  H       1.00   -3.605540754    1.027670861    1.675298901
   8  C       6.00    1.026177977   -1.256025366   -2.392015328
   9  C       6.00    1.026177977   -1.256025366    2.392015328
  10  H       1.00    0.337051552   -0.278772398   -4.080731285
  11  H       1.00    0.337051552   -0.278772398    4.080731285
  12  H       1.00    0.448847749   -3.242770030   -2.499729718
  13  H       1.00    0.448847749   -3.242770030    2.499729718
  14  H       1.00    3.100738214   -1.205021658   -2.419454152
  15  H       1.00    3.100738214   -1.205021658    2.419454152

 Bond lengths in Bohr (Angstrom)

 1-2  2.892097881  1-5  2.069933136  1-6  2.069096224  1-7  2.069096224  2-3  2.719106031
     ( 1.530432290)     ( 1.095361444)     ( 1.094918569)     ( 1.094918569)     ( 1.438888946)

  2- 8  2.903104402   2- 9  2.903104402   3- 4  1.834522965   8-10  2.069222119   8-12  2.071730422
       ( 1.536256691)       ( 1.536256691)       ( 0.970787746)       ( 1.094985190)       ( 1.096312526)

  8-14  2.075368508   9-11  2.069222119   9-13  2.071730422   9-15  2.075368508
       ( 1.098237719)       ( 1.094985190)       ( 1.096312526)       ( 1.098237719)

 Bond angles

  1-2-3  104.76902697   1-2-8  110.92255387   1-2-9  110.92255387   2-1-5  110.97328220

  2- 1- 6  110.22090701   2- 1- 7  110.22090701   2- 3- 4  107.25071562   2- 8-10  110.21836376

  2- 8-12  111.57747468   2- 8-14  110.77023896   2- 9-11  110.21836376   2- 9-13  111.57747468

  2- 9-15  110.77023896   3- 2- 8  109.53648747   3- 2- 9  109.53648747   5- 1- 6  108.61190457

  5- 1- 7  108.61190457   6- 1- 7  108.12870271   8- 2- 9  110.96453384  10- 8-12  108.52192632

 10- 8-14  108.08997829  11- 9-13  108.52192632  11- 9-15  108.08997829  12- 8-14  107.54424578

 13- 9-15  107.54424578

 NUCLEAR CHARGE:                   42
 NUMBER OF PRIMITIVE AOS:         295
 NUMBER OF SYMMETRY AOS:          285
 NUMBER OF CONTRACTIONS:          205   ( 205A   )
 NUMBER OF CORE ORBITALS:           5   (   5A   )
 NUMBER OF VALENCE ORBITALS:       30   (  30A   )


 NUCLEAR REPULSION ENERGY  198.77359127


 Eigenvalues of metric

         1 0.151E-04 0.552E-04 0.579E-04 0.110E-03 0.111E-03 0.217E-03 0.237E-03 0.259E-03


 Contracted 2-electron integrals neglected if value below      1.0D-12
 AO integral compression algorithm  1   Integral accuracy      1.0D-12

     1203.503 MB (compressed) written to integral file ( 61.3%)


 NUMBER OF SORTED TWO-ELECTRON INTEGRALS:  222932170.     BUFFER LENGTH:  32768
 NUMBER OF SEGMENTS:  14  SEGMENT LENGTH:   15999503      RECORD LENGTH: 524288

 Memory used in sort:      16.56 MW

 SORT1 READ   245224724. AND WROTE   218324786. INTEGRALS IN    630 RECORDS. CPU TIME:     3.46 SEC, REAL TIME:    16.25 SEC
 SORT2 READ   218324786. AND WROTE   222932170. INTEGRALS IN   4591 RECORDS. CPU TIME:     5.68 SEC, REAL TIME:    27.44 SEC

 FILE SIZES:   FILE 1:  1235.3 MBYTE,  FILE 4:  2642.4 MBYTE,   TOTAL:   3877.7 MBYTE

 OPERATOR DM      FOR CENTER  0  COORDINATES:    0.000000    0.000000    0.000000


 **********************************************************************************************************************************
 DATASETS  * FILE   NREC   LENGTH (MB)   RECORD NAMES
              1      19     1149.90       500      610      700      900      950      970     1000      129      960     1100   
                                          VAR    BASINP    GEOM    SYMINP    ZMAT    AOBASIS   BASIS     P2S    ABASIS      S 
                                         1400     1410     1200     1210     1080     1600     1650     1300     1700   
                                           T        V       H0       H01     AOSYM     SMH    MOLCAS    ERIS     OPER   

 PROGRAMS   *        TOTAL       INT
 CPU TIMES  *        22.29     22.13
 REAL TIME  *        62.56 SEC
 DISK USED  *         3.88 GB      
 **********************************************************************************************************************************

 Density functional group CS=CS1
 Functional: CS1(Colle-Salvetti (Gradient form))                               Gradient terms: 1
 Use grid at  1800.2

 Functional: CS1                       Factor:  1.0000

 Generated new metagrid on record  1800.2 with target accuracy 1.0D-06 and 53396 points in CPU time    1.6
 Computed new grid on record 1800.1 in CPU time    1.8
  167289 words reserved for DFT integration

 PROGRAM * UKS-SCF (Unrestricted Kohn-Sham)     Authors: W. Meyer, H.-J. Werner, P.J. Knowles, 1993

 NUMBER OF ELECTRONS:      21+   21-    SPACE SYMMETRY=1    SPIN SYMMETRY: Singlet 
 CONVERGENCE THRESHOLDS:    1.00E-05 (Density)    1.00E-06 (Energy)
 MAX. NUMBER OF ITERATIONS:       60
 INTERPOLATION TYPE:            DIIS
 INTERPOLATION STEPS:              2 (START)      1 (STEP)
 LEVEL SHIFTS:                 -0.20 (ALPHA)  -0.20 (BETA) 



 Use fine grid record 1800.2 for energy threshold  1.0D-06
 Orbital guess generated from atomic densities. Full valence occupancy:   35

 Molecular orbital dump at record        2200.2

 Initial alpha occupation  21
 Initial beta  occupation  21

 ITERATION    DDIFF          GRAD             ENERGY        2-EL.EN.            DIPOLE MOMENTS         DIIS
    1      0.000D+00      0.000D+00      -194.77469866    486.487442    3.33079   11.12692   -0.00000    0
    2      0.130D+01      0.141D-01      -184.87672262    706.425610   -5.87652  -19.26499    0.00000    1
    3      0.888D-01      0.284D-01      -199.55814833    640.207419    0.17493   -4.10281    0.00000    2
    4      0.245D-01      0.114D-01      -201.23049288    612.795804   -0.51867   -3.48122    0.00000    3
    5      0.216D-01      0.560D-02      -201.74571301    601.538218   -0.00607   -1.67729   -0.00000    4
    6      0.163D-01      0.243D-02      -201.87894456    590.494464    0.38527   -0.33634    0.00000    5
    7      0.814D-02      0.696D-03      -201.88747275    589.803450    0.21186   -0.51328    0.00000    6
    8      0.572D-02      0.335D-03      -201.89075005    590.134904    0.26316   -0.38277    0.00000    7
    9      0.488D-02      0.282D-03      -201.89299642    590.411274    0.27108   -0.39851    0.00000    8
   10      0.987D-02      0.146D-03      -201.89530174    590.539904    0.26183   -0.37393    0.00000    9
   11      0.678D-02      0.680D-04      -201.89605632    590.654907    0.25345   -0.35908    0.00000    8
   12      0.332D-02      0.281D-04      -201.89629030    590.571334    0.24389   -0.33697    0.00000    8
   13      0.219D-02      0.196D-04      -201.89637984    590.518842    0.24089   -0.32097    0.00000    9
   14      0.210D-02      0.156D-04      -201.89641427    590.518328    0.23365   -0.31396    0.00000    9
   15      0.149D-02      0.664D-05      -201.89642452    590.504737    0.23479   -0.31054   -0.00000    9
   16      0.798D-03      0.337D-05      -201.89642649    590.488845    0.23306   -0.30852   -0.00000    9
   17      0.530D-03      0.195D-05      -201.89642713    590.490379    0.23249   -0.30806   -0.00000    9
   18      0.869D-04      0.580D-06      -201.89642718    590.491017    0.23276   -0.30851   -0.00000    9
   19      0.436D-04      0.452D-06      -201.89642720    590.489300    0.23266   -0.30849   -0.00000    9
   20      0.289D-04      0.200D-06      -201.89642721    590.489507    0.23271   -0.30859   -0.00000    9
   21      0.804D-05      0.940D-07      -201.89642721    590.489614    0.23274   -0.30865   -0.00000    9
   22      0.754D-05      0.457D-07      -201.89642721    590.489609    0.23277   -0.30868   -0.00000    9

 Final alpha occupancy:  21
 Final beta  occupancy:  21

 !UKS STATE 1.1 Energy               -201.896427208987
 Nuclear energy                       198.77359127
 One-electron energy                 -694.59598138
 Two-electron energy                  295.24480472
 Density functional                    -1.31884182     CS1=-1.31884182
 Virial quotient                       -0.91478136
 !UKS STATE 1.1 Dipole moment           0.23276761    -0.30868137    -0.00000000
 Dipole moment /Debye                   0.59159751    -0.78453840    -0.00000000

 Orbital energies for positive spin:

         1.1          2.1          3.1          4.1          5.1          6.1          7.1          8.1          9.1         10.1
    -16.651355    -8.251937    -8.204019    -8.203657    -8.198726    -0.653027    -0.451312    -0.361289    -0.358944    -0.262187

        11.1         12.1         13.1         14.1         15.1         16.1         17.1         18.1         19.1         20.1
     -0.203733    -0.178701    -0.178302    -0.134186    -0.121630    -0.101630    -0.073862    -0.072761    -0.069365    -0.049734

        21.1         22.1         23.1
     -0.005514     0.026365     0.041527

 Orbital energies for negative spin:

         1.1          2.1          3.1          4.1          5.1          6.1          7.1          8.1          9.1         10.1
    -16.651355    -8.251937    -8.204019    -8.203657    -8.198726    -0.653027    -0.451312    -0.361289    -0.358944    -0.262187

        11.1         12.1         13.1         14.1         15.1         16.1         17.1         18.1         19.1         20.1
     -0.203733    -0.178701    -0.178302    -0.134186    -0.121630    -0.101630    -0.073862    -0.072761    -0.069365    -0.049734

        21.1         22.1         23.1
     -0.005514     0.026365     0.041527

 HOMO     21.1    -0.005514 =      -0.1501eV
 LUMO     22.1     0.026365 =       0.7174eV
 LUMO-HOMO         0.031880 =       0.8675eV

 EXPECTATION VALUE OF S**2:             0.00000000

 Natural orbitals saved to record    2200.2 (Orbital set 3)

 Orbital spaces for UNO-CAS (Min. occupation: 0.020  Max. occupation: 1.980):

 Closed:       21
 Active:        0


 **********************************************************************************************************************************
 DATASETS  * FILE   NREC   LENGTH (MB)   RECORD NAMES
              1      20     1151.61       500      610      700      900      950      970     1000      129      960     1100   
                                          VAR    BASINP    GEOM    SYMINP    ZMAT    AOBASIS   BASIS     P2S    ABASIS      S 
                                         1400     1410     1200     1210     1080     1600     1650     1300     1700     1800   
                                           T        V       H0       H01     AOSYM     SMH    MOLCAS    ERIS     OPER     GRID   

              2       5        4.72       700     1000      520     1800     2200   
                                         GEOM     BASIS   MCVARS    GRID      UKS  

 PROGRAMS   *        TOTAL       UKS       INT
 CPU TIMES  *       386.94    364.65     22.13
 REAL TIME  *       436.30 SEC
 DISK USED  *         3.88 GB      
 **********************************************************************************************************************************


 PROGRAM * Intrinsic Basis Bonding Analysis (IBBA)          Author: G. Knizia

 Molecular orbitals read from record     2200.2  Type=UKS/ALPHA (state 1.1)
 Fock matrix read from record            2200.2  Type=UKS/TOTAL (state 1.1)
 Orbital energies read from record       2200.2  Type=UKS/ALPHA (state 1.1)
 Density matrix read from record         2200.2  Type=UKS/CHARGE (state 1.1)

 Number of core orbitals:           5 (   5 )
 Number of closed-shell orbitals:  16 (  16 )

 Basis set MINAO-AUTO-PP generated.      Number of basis functions:   35 

 Polarized AO type:                A = (O Ot + (1-O)(1-Ot)) P12
 Orthogonalization method:         Symmetric (Loewdin)
 Localization functional:          L = sum[A,i] <i|n_A|i>^4 -> max

 Localization group 1:  21 orbitals, occupancy  2.000
 Iterative localization: IB/PM,    7 iter; Final gradient 0.82E-08

 Bond order analysis:       [THRPRINT= 0.020]

   CEN ATOM   CEN ATOM     WIBERG.BO      RENORM.BO
     1   C  -   2   C       0.984574       0.997668
     1   C  -   5   H       0.953418       0.969820
     1   C  -   6   H       0.944899       0.951657
     1   C  -   7   H       0.944899       0.951657
     1   C  -   3   O       0.032467       0.017924
     1   C  -   4   H       0.025369       0.032591
     1   C  -  15   H       0.021746       0.023178
     1   C  -  14   H       0.021746       0.023178

     2   C  -   8   C       0.990129       0.975322
     2   C  -   9   C       0.990129       0.975322
     2   C  -   1   C       0.984574       0.997668
     2   C  -   3   O       0.963768       0.932505

     3   O  -   2   C       0.963768       0.932505
     3   O  -   4   H       0.897642       0.929439
     3   O  -   9   C       0.054398       0.029536
     3   O  -   8   C       0.054398       0.029536
     3   O  -  12   H       0.036776       0.026045
     3   O  -  13   H       0.036776       0.026045
     3   O  -   1   C       0.032467       0.017924
     3   O  -   5   H       0.021794       0.016723

     4   H  -   3   O       0.897642       0.929439
     4   H  -   1   C       0.025369       0.032591

     5   H  -   1   C       0.953418       0.969820
     5   H  -   3   O       0.021794       0.016723

     6   H  -   1   C       0.944899       0.951657
     6   H  -   9   C       0.024690       0.025768

     7   H  -   1   C       0.944899       0.951657
     7   H  -   8   C       0.024690       0.025768

     8   C  -   2   C       0.990129       0.975322
     8   C  -  14   H       0.944750       0.956586
     8   C  -  10   H       0.943944       0.947696
     8   C  -  12   H       0.943307       0.950368
     8   C  -   3   O       0.054398       0.029536
     8   C  -  11   H       0.025212       0.026334
     8   C  -   7   H       0.024690       0.025768

     9   C  -   2   C       0.990129       0.975322
     9   C  -  15   H       0.944750       0.956586
     9   C  -  11   H       0.943944       0.947696
     9   C  -  13   H       0.943307       0.950368
     9   C  -   3   O       0.054398       0.029536
     9   C  -  10   H       0.025212       0.026334
     9   C  -   6   H       0.024690       0.025768

    10   H  -   8   C       0.943944       0.947696
    10   H  -   9   C       0.025212       0.026334

    11   H  -   9   C       0.943944       0.947696
    11   H  -   8   C       0.025212       0.026334

    12   H  -   8   C       0.943307       0.950368
    12   H  -   3   O       0.036776       0.026045

    13   H  -   9   C       0.943307       0.950368
    13   H  -   3   O       0.036776       0.026045

    14   H  -   8   C       0.944750       0.956586
    14   H  -   1   C       0.021746       0.023178

    15   H  -   9   C       0.944750       0.956586
    15   H  -   1   C       0.021746       0.023178


 Valency analysis:

   CEN ATOM   TOT.VALENCE
     1   C       3.962516
     2   C       3.948482
     3   O       2.125618
     4   H       0.949646
     5   H       0.995055
     6   H       0.995092
     7   H       0.995092
     8   C       3.963474
     9   C       3.963474
    10   H       0.994845
    11   H       0.994845
    12   H       0.995361
    13   H       0.995361
    14   H       0.996251
    15   H       0.996251

 Total charge composition:

   CEN ATOM         s          p       ELECTRONS ->P.CHARGE
     1   C       2.94211    3.28134      6.22345   -0.22345
     2   C       2.86757    2.88386      5.75142    0.24858
     3   O       3.57783    4.78212      8.35995   -0.35995
     4   H       0.77560                 0.77560    0.22440
     5   H       0.92968                 0.92968    0.07032
     6   H       0.92994                 0.92994    0.07006
     7   H       0.92994                 0.92994    0.07006
     8   C       2.96408    3.28707      6.25115   -0.25115
     9   C       2.96408    3.28707      6.25115   -0.25115
    10   H       0.92820                 0.92820    0.07180
    11   H       0.92820                 0.92820    0.07180
    12   H       0.93189                 0.93189    0.06811
    13   H       0.93189                 0.93189    0.06811
    14   H       0.93877                 0.93877    0.06123
    15   H       0.93877                 0.93877    0.06123

 Total charge composition, AO contributions:

   CEN ATOM SHL      SPHERICAL COMPONENTS
     1   C  1s       1.99740
     1   C  2s       0.94471
     1   C  2p       1.02215    1.12486    1.13433

     2   C  1s       1.99808
     2   C  2s       0.86949
     2   C  2p       1.01974    0.84379    1.02033

     3   O  1s       1.99880
     3   O  2s       1.57904
     3   O  2p       1.39795    1.47694    1.90722

     4   H  1s       0.77560

     5   H  1s       0.92968

     6   H  1s       0.92994

     7   H  1s       0.92994

     8   C  1s       1.99743
     8   C  2s       0.96665
     8   C  2p       1.10591    1.11399    1.06717

     9   C  1s       1.99743
     9   C  2s       0.96665
     9   C  2p       1.10591    1.11399    1.06717

    10   H  1s       0.92820

    11   H  1s       0.92820

    12   H  1s       0.93189

    13   H  1s       0.93189

    14   H  1s       0.93877

    15   H  1s       0.93877

 Summary of localized orbital composition:   [THRPRINT= 0.020]

   ORB  GRP  ORB.ENERGY      CENTERS/CHARGES
     1   1   -16.550517      O  3   2.000
     2   1    -8.180604      C  2   2.000
     3   1    -8.119471      C  9   2.000
     4   1    -8.119471      C  8   2.000
     5   1    -8.114234      C  1   2.000
     6   1    -0.437622      O  3   1.235   C  2   0.739   (other: 0.026)
     7   1    -0.411757      O  3   1.242   H  4   0.742
     8   1    -0.283691      C  9   1.017   C  2   0.951   (other: 0.032)
     9   1    -0.283691      C  8   1.017   C  2   0.951   (other: 0.032)
    10   1    -0.282562      C  1   0.992   C  2   0.959   (other: 0.049)
    11   1    -0.210819      O  3   1.965   (other: 0.035)
    12   1    -0.198756      C  8   1.049   H 14   0.924   (other: 0.027)
    13   1    -0.198756      C  9   1.049   H 15   0.924   (other: 0.027)
    14   1    -0.197670      C  9   1.065   H 13   0.911   (other: 0.024)
    15   1    -0.197670      C  8   1.065   H 12   0.911   (other: 0.024)
    16   1    -0.193973      C  1   1.060   H  5   0.916   (other: 0.024)
    17   1    -0.192407      C  8   1.071   H 10   0.909   (other: 0.020)
    18   1    -0.192407      C  9   1.071   H 11   0.909   (other: 0.020)
    19   1    -0.189916      C  1   1.067   H  6   0.912   (other: 0.021)
    20   1    -0.189916      C  1   1.067   H  7   0.912   (other: 0.021)
    21   1    -0.039965      O  3   1.907   C  2   0.027   (other: 0.066)

 Localized orbitals saved to record      2200.2  (orbital set 4)


 **********************************************************************************************************************************
 DATASETS  * FILE   NREC   LENGTH (MB)   RECORD NAMES
              1      20     1151.61       500      610      700      900      950      970     1000      129      960     1100   
                                          VAR    BASINP    GEOM    SYMINP    ZMAT    AOBASIS   BASIS     P2S    ABASIS      S 
                                         1400     1410     1200     1210     1080     1600     1650     1300     1700     1800   
                                           T        V       H0       H01     AOSYM     SMH    MOLCAS    ERIS     OPER     GRID   

              2       5        5.06       700     1000      520     1800     2200   
                                         GEOM     BASIS   MCVARS    GRID      UKS  

 PROGRAMS   *        TOTAL      IBBA       UKS       INT
 CPU TIMES  *       387.01      0.07    364.65     22.13
 REAL TIME  *       436.50 SEC
 DISK USED  *         3.88 GB      
 **********************************************************************************************************************************
 Molecular orbitals read from record     2200.2  Type=UKS/LOCAL(IBO)  
 Occupation numbers read from record     2200.2  Type=UKS/LOCAL(IBO)  
 Orbital energies read from record       2200.2  Type=UKS/LOCAL(IBO)  
 Redundancy group numbers read from rec  2200.2  Type=UKS/BETA (state 1.1)

 IBBA/aug-cc-pVDZ energy=      0.000000000000

        UKS-SCF 
   -201.89642721
 **********************************************************************************************************************************
 Molpro calculation terminated
