
 Primary working directories    : /tmp/sb13343
 Secondary working directories  : /tmp/sb13343
 Wavefunction directory         : /tmp/sb13343/
 Main file repository           : /tmp/sb13343/

 SHA1      : b4a5b34a9e711420743f49e6833241d17c61fb3c
 NAME      : 2099.9.b4a5b34
 ARCHNAME  : linux/x86_64_openmp
 FC        : /cm/shared/languages/GCC-6.1/bin/gfortran
 BLASLIB   : -lblas
 id        : simonbennie

 Nodes     nprocs
 node44-010    1

 Using customized tuning parameters: mindgm=1; mindgv=20; mindgc=4; mindgr=1; noblas=0; minvec=7
 default implementation of scratch files=df  

 memory,500,m
 geomtyp=xyz
 nosym
 noorient
 geometry={
 C         -1.53233        0.02247        0.00000
 C         -0.00192        0.01421        0.00000
 O          0.37239        1.40356        0.00000
 H          1.34248        1.44036        0.00000
 H         -1.92991       -0.99819        0.00000
 H         -1.90797        0.54382       -0.88653
 H         -1.90797        0.54382        0.88653
 C          0.54303       -0.66466       -1.26580
 C          0.54303       -0.66466        1.26580
 H          0.17836       -0.14752       -2.15943
 H          0.17836       -0.14752        2.15943
 H          0.23752       -1.71600       -1.32280
 H          0.23752       -1.71600        1.32280
 H          1.64084       -0.63767       -1.28032
 H          1.64084       -0.63767        1.28032
 }
 basis={ default,SV(P) }
 {uks,LSDAC,direct;wf,42,1,0}
 {ibba,bonds=1}

 Variables initialized (895), CPU time= 0.00 sec
 Commands  initialized (725), CPU time= 0.02 sec, 591 directives.
 Default parameters read. Elapsed time= 2.94 sec

 Checking input...
 Passed
1


                                         ***  PROGRAM SYSTEM MOLPRO  ***
                                       Copyright, TTI GmbH Stuttgart, 2015
                                    Version 2099.9 linked May 26 2017 16:03:21


 **********************************************************************************************************************************
 LABEL *                                                                                 
  64 bit serial version                                                                  DATE: 12-Jun-17          TIME: 13:18:16  
 **********************************************************************************************************************************

 SHA1:             b4a5b34a9e711420743f49e6833241d17c61fb3c
 **********************************************************************************************************************************
 SETTING GEOMTYP        =    XYZ

 Variable memory set to  500000000 words,  buffer space 

 ZSYMEL=NOSYM

 SETTING BASIS          =    SV(P)


 Recomputing integrals since basis changed


 Using spherical harmonics

 Library entry C      S def2-SV(P)           selected for orbital group  1
 Library entry C      P def2-SV(P)           selected for orbital group  1
 Library entry C      D def2-SV(P)           selected for orbital group  1
 Library entry O      S def2-SV(P)           selected for orbital group  2
 Library entry O      P def2-SV(P)           selected for orbital group  2
 Library entry O      D def2-SV(P)           selected for orbital group  2
 Library entry H      S def2-SV(P)           selected for orbital group  3


 PROGRAM * SEWARD (Integral evaluation for generally contracted gaussian basis sets)     Author: Roland Lindh, 1990

 Geometry written to block  1 of record 700


 Point group  C1  



 ATOMIC COORDINATES

 NR  ATOM    CHARGE       X              Y              Z

   1  C       6.00   -2.895684032    0.042462146    0.000000000
   2  C       6.00   -0.003628274    0.026853008    0.000000000
   3  O       8.00    0.703715112    2.652343999    0.000000000
   4  H       1.00    2.536919528    2.721885921    0.000000000
   5  H       1.00   -3.647001345   -1.886305720    0.000000000
   6  H       1.00   -3.605540754    1.027670861   -1.675298901
   7  H       1.00   -3.605540754    1.027670861    1.675298901
   8  C       6.00    1.026177977   -1.256025366   -2.392015328
   9  C       6.00    1.026177977   -1.256025366    2.392015328
  10  H       1.00    0.337051552   -0.278772398   -4.080731285
  11  H       1.00    0.337051552   -0.278772398    4.080731285
  12  H       1.00    0.448847749   -3.242770030   -2.499729718
  13  H       1.00    0.448847749   -3.242770030    2.499729718
  14  H       1.00    3.100738214   -1.205021658   -2.419454152
  15  H       1.00    3.100738214   -1.205021658    2.419454152

 Bond lengths in Bohr (Angstrom)

 1-2  2.892097881  1-5  2.069933136  1-6  2.069096224  1-7  2.069096224  2-3  2.719106031
     ( 1.530432290)     ( 1.095361444)     ( 1.094918569)     ( 1.094918569)     ( 1.438888946)

  2- 8  2.903104402   2- 9  2.903104402   3- 4  1.834522965   8-10  2.069222119   8-12  2.071730422
       ( 1.536256691)       ( 1.536256691)       ( 0.970787746)       ( 1.094985190)       ( 1.096312526)

  8-14  2.075368508   9-11  2.069222119   9-13  2.071730422   9-15  2.075368508
       ( 1.098237719)       ( 1.094985190)       ( 1.096312526)       ( 1.098237719)

 Bond angles

  1-2-3  104.76902697   1-2-8  110.92255387   1-2-9  110.92255387   2-1-5  110.97328220

  2- 1- 6  110.22090701   2- 1- 7  110.22090701   2- 3- 4  107.25071562   2- 8-10  110.21836376

  2- 8-12  111.57747468   2- 8-14  110.77023896   2- 9-11  110.21836376   2- 9-13  111.57747468

  2- 9-15  110.77023896   3- 2- 8  109.53648747   3- 2- 9  109.53648747   5- 1- 6  108.61190457

  5- 1- 7  108.61190457   6- 1- 7  108.12870271   8- 2- 9  110.96453384  10- 8-12  108.52192632

 10- 8-14  108.08997829  11- 9-13  108.52192632  11- 9-15  108.08997829  12- 8-14  107.54424578

 13- 9-15  107.54424578

 NUCLEAR CHARGE:                   42
 NUMBER OF PRIMITIVE AOS:         165
 NUMBER OF SYMMETRY AOS:          160
 NUMBER OF CONTRACTIONS:           90   (  90A   )
 NUMBER OF CORE ORBITALS:           5   (   5A   )
 NUMBER OF VALENCE ORBITALS:       30   (  30A   )


 NUCLEAR REPULSION ENERGY  198.77359127


 Eigenvalues of metric

         1 0.179E-02 0.600E-02 0.603E-02 0.144E-01 0.286E-01 0.297E-01 0.300E-01 0.361E-01


 Contracted 2-electron integrals neglected if value below      1.0D-11
 AO integral compression algorithm  1   Integral accuracy      1.0D-11

     37.487 MB (compressed) written to integral file ( 49.6%)


 NUMBER OF SORTED TWO-ELECTRON INTEGRALS:    8386560.     BUFFER LENGTH:  32768
 NUMBER OF SEGMENTS:   1  SEGMENT LENGTH:    8386560      RECORD LENGTH: 524288

 Memory used in sort:       8.94 MW

 SORT1 READ     9478508. AND WROTE     7931434. INTEGRALS IN     23 RECORDS. CPU TIME:     0.09 SEC, REAL TIME:     0.21 SEC
 SORT2 READ     7931434. AND WROTE     8386560. INTEGRALS IN    143 RECORDS. CPU TIME:     0.23 SEC, REAL TIME:     0.28 SEC

 FILE SIZES:   FILE 1:    68.0 MBYTE,  FILE 4:    96.5 MBYTE,   TOTAL:    164.5 MBYTE

 OPERATOR DM      FOR CENTER  0  COORDINATES:    0.000000    0.000000    0.000000


 **********************************************************************************************************************************
 DATASETS  * FILE   NREC   LENGTH (MB)   RECORD NAMES
              1      19       63.39       500      610      700      900      950      970     1000      129      960     1100   
                                          VAR    BASINP    GEOM    SYMINP    ZMAT    AOBASIS   BASIS     P2S    ABASIS      S 
                                         1400     1410     1200     1210     1080     1600     1650     1300     1700   
                                           T        V       H0       H01     AOSYM     SMH    MOLCAS    ERIS     OPER   

 PROGRAMS   *        TOTAL       INT
 CPU TIMES  *         1.75      1.59
 REAL TIME  *         6.28 SEC
 DISK USED  *       165.03 MB      
 **********************************************************************************************************************************

 Density functional group LSDAC=PW92C
 Functional: PW92C(Automatically generated (new) PW92C)                        Gradient terms: 0
 Use grid at  1800.2

 Functional: PW92C                     Factor:  1.0000

 Generated new metagrid on record  1800.2 with target accuracy 1.0D-06 and 53396 points in CPU time    1.5
 Computed new grid on record 1800.1 in CPU time    1.7
   41619 words reserved for DFT integration

 PROGRAM * UKS-SCF (Unrestricted Kohn-Sham)     Authors: W. Meyer, H.-J. Werner, P.J. Knowles, 1993

 NUMBER OF ELECTRONS:      21+   21-    SPACE SYMMETRY=1    SPIN SYMMETRY: Singlet 
 CONVERGENCE THRESHOLDS:    1.00E-05 (Density)    1.00E-06 (Energy)
 MAX. NUMBER OF ITERATIONS:       60
 INTERPOLATION TYPE:            DIIS
 INTERPOLATION STEPS:              2 (START)      1 (STEP)
 LEVEL SHIFTS:                 -0.20 (ALPHA)  -0.20 (BETA) 



 Use fine grid record 1800.2 for energy threshold  1.0D-06
 Orbital guess generated from atomic densities. Full valence occupancy:   21

 Molecular orbital dump at record        2200.2

 Initial alpha occupation  21
 Initial beta  occupation  21

 ITERATION    DDIFF          GRAD             ENERGY        2-EL.EN.            DIPOLE MOMENTS         DIIS
    1      0.000D+00      0.000D+00      -200.76941541    559.201201    2.21876    8.02563    0.00000    0
    2      0.346D+00      0.198D-01      -199.47872950    637.497799   -0.49520   -6.03514    0.00000    1
    3      0.325D-01      0.329D-01      -202.58127389    608.679843   -0.08857   -2.44054    0.00000    2
    4      0.139D-01      0.961D-02      -202.85861845    598.826158    0.19415   -0.89101    0.00000    3
    5      0.997D-02      0.299D-02      -202.89358130    596.835650    0.31195   -0.09566    0.00000    4
    6      0.106D-01      0.713D-03      -202.89777733    594.913134    0.37760    0.16842    0.00000    5
    7      0.430D-02      0.460D-03      -202.89876299    595.461494    0.39268    0.18804    0.00000    6
    8      0.191D-02      0.250D-03      -202.89904811    595.474764    0.38777    0.15614    0.00000    7
    9      0.105D-02      0.756D-04      -202.89909958    595.551977    0.38598    0.14430    0.00000    8
   10      0.608D-03      0.207D-04      -202.89910754    595.559336    0.38656    0.14465    0.00000    7
   11      0.107D-03      0.490D-05      -202.89910795    595.560779    0.38632    0.14410    0.00000    7
   12      0.254D-04      0.321D-05      -202.89910802    595.559126    0.38607    0.14414    0.00000    8
   13      0.164D-04      0.117D-05      -202.89910803    595.559608    0.38618    0.14415    0.00000    8
   14      0.426D-05      0.323D-06      -202.89910803    595.559568    0.38610    0.14411    0.00000    8
   15      0.152D-05      0.850D-07      -202.89910803    595.559480    0.38611    0.14412    0.00000    7

 Final alpha occupancy:  21
 Final beta  occupancy:  21

 !UKS STATE 1.1 Energy               -202.899108033204
 Nuclear energy                       198.77359127
 One-electron energy                 -696.88160916
 Two-electron energy                  297.77974006
 Density functional                    -2.57083021     PW92C=-2.57083021
 Virial quotient                       -0.92866627
 !UKS STATE 1.1 Dipole moment           0.38610559     0.14412197     0.00000000
 Dipole moment /Debye                   0.98131823     0.36629751     0.00000000

 Orbital energies for positive spin:

         1.1          2.1          3.1          4.1          5.1          6.1          7.1          8.1          9.1         10.1
    -16.623208    -8.268323    -8.222188    -8.221760    -8.219524    -0.580567    -0.402349    -0.320385    -0.317504    -0.216185

        11.1         12.1         13.1         14.1         15.1         16.1         17.1         18.1         19.1         20.1
     -0.165698    -0.140408    -0.138609    -0.094452    -0.084955    -0.063223    -0.043328    -0.036385    -0.033265     0.014924

        21.1         22.1         23.1
      0.071369     0.161585     0.217114

 Orbital energies for negative spin:

         1.1          2.1          3.1          4.1          5.1          6.1          7.1          8.1          9.1         10.1
    -16.623208    -8.268323    -8.222188    -8.221760    -8.219524    -0.580567    -0.402349    -0.320385    -0.317504    -0.216185

        11.1         12.1         13.1         14.1         15.1         16.1         17.1         18.1         19.1         20.1
     -0.165698    -0.140408    -0.138609    -0.094452    -0.084955    -0.063223    -0.043328    -0.036385    -0.033265     0.014924

        21.1         22.1         23.1
      0.071369     0.161585     0.217114

 HOMO     21.1     0.071369 =       1.9420eV
 LUMO     22.1     0.161585 =       4.3969eV
 LUMO-HOMO         0.090216 =       2.4549eV

 EXPECTATION VALUE OF S**2:             0.00000000

 Natural orbitals saved to record    2200.2 (Orbital set 3)

 Orbital spaces for UNO-CAS (Min. occupation: 0.020  Max. occupation: 1.980):

 Closed:       21
 Active:        0


 **********************************************************************************************************************************
 DATASETS  * FILE   NREC   LENGTH (MB)   RECORD NAMES
              1      20       65.10       500      610      700      900      950      970     1000      129      960     1100   
                                          VAR    BASINP    GEOM    SYMINP    ZMAT    AOBASIS   BASIS     P2S    ABASIS      S 
                                         1400     1410     1200     1210     1080     1600     1650     1300     1700     1800   
                                           T        V       H0       H01     AOSYM     SMH    MOLCAS    ERIS     OPER     GRID   

              2       5        3.34       700     1000      520     1800     2200   
                                         GEOM     BASIS   MCVARS    GRID      UKS  

 PROGRAMS   *        TOTAL       UKS       INT
 CPU TIMES  *        13.46     11.70      1.59
 REAL TIME  *        19.36 SEC
 DISK USED  *       165.03 MB      
 **********************************************************************************************************************************


 PROGRAM * Intrinsic Basis Bonding Analysis (IBBA)          Author: G. Knizia

 Molecular orbitals read from record     2200.2  Type=UKS/ALPHA (state 1.1)
 Fock matrix read from record            2200.2  Type=UKS/TOTAL (state 1.1)
 Orbital energies read from record       2200.2  Type=UKS/ALPHA (state 1.1)
 Density matrix read from record         2200.2  Type=UKS/CHARGE (state 1.1)

 Number of core orbitals:           5 (   5 )
 Number of closed-shell orbitals:  16 (  16 )

 Basis set MINAO-AUTO-PP generated.      Number of basis functions:   35 

 Polarized AO type:                A = (O Ot + (1-O)(1-Ot)) P12
 Orthogonalization method:         Symmetric (Loewdin)
 Localization functional:          L = sum[A,i] <i|n_A|i>^4 -> max

 Localization group 1:  21 orbitals, occupancy  2.000
 Iterative localization: IB/PM,    7 iter; Final gradient 0.93E-08

 Bond order analysis:       [THRPRINT= 0.020]

   CEN ATOM   CEN ATOM     WIBERG.BO      RENORM.BO
     1   C  -   2   C       0.975726       0.993531
     1   C  -   5   H       0.957234       0.968293
     1   C  -   6   H       0.949746       0.952250
     1   C  -   7   H       0.949746       0.952250
     1   C  -   3   O       0.036638       0.020938
     1   C  -   4   H       0.023809       0.028056
     1   C  -  14   H       0.020334       0.020920
     1   C  -  15   H       0.020334       0.020920

     2   C  -   3   O       0.987614       0.956052
     2   C  -   9   C       0.980652       0.969785
     2   C  -   8   C       0.980652       0.969785
     2   C  -   1   C       0.975726       0.993531

     3   O  -   2   C       0.987614       0.956052
     3   O  -   4   H       0.929806       0.937773
     3   O  -   9   C       0.055744       0.030966
     3   O  -   8   C       0.055744       0.030966
     3   O  -   1   C       0.036638       0.020938
     3   O  -  13   H       0.035043       0.024532
     3   O  -  12   H       0.035043       0.024532
     3   O  -   5   H       0.021434       0.016261

     4   H  -   3   O       0.929806       0.937773
     4   H  -   1   C       0.023809       0.028056

     5   H  -   1   C       0.957234       0.968293
     5   H  -   3   O       0.021434       0.016261

     6   H  -   1   C       0.949746       0.952250
     6   H  -   9   C       0.023507       0.023770

     7   H  -   1   C       0.949746       0.952250
     7   H  -   8   C       0.023507       0.023770

     8   C  -   2   C       0.980652       0.969785
     8   C  -  10   H       0.950972       0.951770
     8   C  -  14   H       0.950768       0.959467
     8   C  -  12   H       0.948178       0.949684
     8   C  -   3   O       0.055744       0.030966
     8   C  -   7   H       0.023507       0.023770
     8   C  -  11   H       0.023027       0.023253

     9   C  -   2   C       0.980652       0.969785
     9   C  -  11   H       0.950972       0.951770
     9   C  -  15   H       0.950768       0.959467
     9   C  -  13   H       0.948178       0.949684
     9   C  -   3   O       0.055744       0.030966
     9   C  -   6   H       0.023507       0.023770
     9   C  -  10   H       0.023027       0.023253

    10   H  -   8   C       0.950972       0.951770
    10   H  -   9   C       0.023027       0.023253

    11   H  -   9   C       0.950972       0.951770
    11   H  -   8   C       0.023027       0.023253

    12   H  -   8   C       0.948178       0.949684
    12   H  -   3   O       0.035043       0.024532

    13   H  -   9   C       0.948178       0.949684
    13   H  -   3   O       0.035043       0.024532

    14   H  -   8   C       0.950768       0.959467
    14   H  -   1   C       0.020334       0.020920

    15   H  -   9   C       0.950768       0.959467
    15   H  -   1   C       0.020334       0.020920


 Valency analysis:

   CEN ATOM   TOT.VALENCE
     1   C       3.965391
     2   C       3.948791
     3   O       2.187320
     4   H       0.975556
     5   H       0.998476
     6   H       0.998534
     7   H       0.998534
     8   C       3.966651
     9   C       3.966651
    10   H       0.998534
    11   H       0.998534
    12   H       0.998591
    13   H       0.998591
    14   H       0.999212
    15   H       0.999212

 Total charge composition:

   CEN ATOM         s          p       ELECTRONS ->P.CHARGE
     1   C       2.89862    3.24881      6.14743   -0.14743
     2   C       2.83658    2.91043      5.74702    0.25298
     3   O       3.53978    4.70763      8.24741   -0.24741
     4   H       0.84365                 0.84365    0.15635
     5   H       0.96096                 0.96096    0.03904
     6   H       0.96172                 0.96172    0.03828
     7   H       0.96172                 0.96172    0.03828
     8   C       2.91563    3.25331      6.16894   -0.16894
     9   C       2.91563    3.25331      6.16894   -0.16894
    10   H       0.96171                 0.96171    0.03829
    11   H       0.96171                 0.96171    0.03829
    12   H       0.96246                 0.96246    0.03754
    13   H       0.96246                 0.96246    0.03754
    14   H       0.97194                 0.97194    0.02806
    15   H       0.97194                 0.97194    0.02806

 Total charge composition, AO contributions:

   CEN ATOM SHL      SPHERICAL COMPONENTS
     1   C  1s       1.99782
     1   C  2s       0.90080
     1   C  2p       1.03874    1.10020    1.10986

     2   C  1s       1.99833
     2   C  2s       0.83825
     2   C  2p       1.02120    0.86802    1.02121

     3   O  1s       1.99894
     3   O  2s       1.54085
     3   O  2p       1.34730    1.45708    1.90324

     4   H  1s       0.84365

     5   H  1s       0.96096

     6   H  1s       0.96172

     7   H  1s       0.96172

     8   C  1s       1.99786
     8   C  2s       0.91777
     8   C  2p       1.08546    1.09642    1.07142

     9   C  1s       1.99786
     9   C  2s       0.91777
     9   C  2p       1.08546    1.09642    1.07142

    10   H  1s       0.96171

    11   H  1s       0.96171

    12   H  1s       0.96246

    13   H  1s       0.96246

    14   H  1s       0.97194

    15   H  1s       0.97194

 Summary of localized orbital composition:   [THRPRINT= 0.020]

   ORB  GRP  ORB.ENERGY      CENTERS/CHARGES
     1   1   -16.535264      O  3   2.000
     2   1    -8.200204      C  2   2.000
     3   1    -8.142520      C  8   2.000
     4   1    -8.142520      C  9   2.000
     5   1    -8.139857      C  1   2.000
     6   1    -0.374535      O  3   1.201   C  2   0.773   (other: 0.026)
     7   1    -0.355777      O  3   1.169   H  4   0.817
     8   1    -0.234971      C  1   0.999   C  2   0.952   (other: 0.049)
     9   1    -0.232377      C  9   1.024   C  2   0.944   (other: 0.032)
    10   1    -0.232377      C  8   1.024   C  2   0.944   (other: 0.032)
    11   1    -0.165904      C  8   1.018   H 14   0.958   (other: 0.023)
    12   1    -0.165903      C  9   1.018   H 15   0.958   (other: 0.023)
    13   1    -0.161937      C  9   1.037   H 13   0.943   (other: 0.020)
    14   1    -0.161937      C  8   1.037   H 12   0.943   (other: 0.020)
    15   1    -0.160238      C  1   1.032   H  5   0.947   (other: 0.020)
    16   1    -0.159207      C  9   1.038   H 11   0.945
    17   1    -0.159207      C  8   1.038   H 10   0.945
    18   1    -0.156987      C  1   1.037   H  6   0.945
    19   1    -0.156987      C  1   1.037   H  7   0.945
    20   1    -0.110651      O  3   1.960   (other: 0.040)
    21   1     0.043315      O  3   1.903   C  2   0.029   C  9   0.021   C  8   0.021   (other: 0.026)

 Localized orbitals saved to record      2200.2  (orbital set 4)


 **********************************************************************************************************************************
 DATASETS  * FILE   NREC   LENGTH (MB)   RECORD NAMES
              1      20       65.10       500      610      700      900      950      970     1000      129      960     1100   
                                          VAR    BASINP    GEOM    SYMINP    ZMAT    AOBASIS   BASIS     P2S    ABASIS      S 
                                         1400     1410     1200     1210     1080     1600     1650     1300     1700     1800   
                                           T        V       H0       H01     AOSYM     SMH    MOLCAS    ERIS     OPER     GRID   

              2       5        3.40       700     1000      520     1800     2200   
                                         GEOM     BASIS   MCVARS    GRID      UKS  

 PROGRAMS   *        TOTAL      IBBA       UKS       INT
 CPU TIMES  *        13.50      0.04     11.70      1.59
 REAL TIME  *        19.50 SEC
 DISK USED  *       165.03 MB      
 **********************************************************************************************************************************
 Molecular orbitals read from record     2200.2  Type=UKS/LOCAL(IBO)  
 Occupation numbers read from record     2200.2  Type=UKS/LOCAL(IBO)  
 Orbital energies read from record       2200.2  Type=UKS/LOCAL(IBO)  
 Redundancy group numbers read from rec  2200.2  Type=UKS/BETA (state 1.1)

 IBBA/SV(P) energy=      0.000000000000

        UKS-SCF 
   -202.89910803
 **********************************************************************************************************************************
 Molpro calculation terminated
