
 Primary working directories    : /tmp/sb13343
 Secondary working directories  : /tmp/sb13343
 Wavefunction directory         : /panfs/panasas01/chem/sb13343/wfu/
 Main file repository           : /tmp/sb13343/

 SHA1      : b4a5b34a9e711420743f49e6833241d17c61fb3c
 NAME      : 2099.9.b4a5b34
 ARCHNAME  : linux/x86_64_openmp
 FC        : /cm/shared/languages/GCC-6.1/bin/gfortran
 BLASLIB   : -lblas
 id        : simonbennie

 Nodes     nprocs
 node32-002    1

 Using customized tuning parameters: mindgm=1; mindgv=20; mindgc=4; mindgr=1; noblas=0; minvec=7
 default implementation of scratch files=df  

 memory,500,m
 geomtyp=xyz
 nosym
 noorient
 geometry={
 C          0.00000        0.00000        0.00000
 C          0.00000        0.00000        1.53307
 O          1.40344        0.00000        1.86307
 C          1.76314        0.00000        3.22887
 H         -1.02289        0.00000       -0.39176
 H          0.51995       -0.88625       -0.37815
 H          0.51995        0.88625       -0.37815
 H          2.85677        0.00000        3.25413
 H          1.40708       -0.89217        3.76475
 H          1.40708        0.89217        3.76475
 C         -0.69252       -1.26694        2.06222
 C         -0.69252        1.26694        2.06222
 H         -0.15366       -2.16088        1.72982
 H         -0.15366        2.16088        1.72982
 H         -1.72011       -1.32515        1.68649
 H         -1.72011        1.32515        1.68649
 H         -0.74365       -1.28188        3.15638
 H         -0.74365        1.28188        3.15638
 }
 basis={ default,sto-3g }
 {uks,LYP88,direct;wf,50,1,0}
 {ibba,bonds=1}

 Variables initialized (895), CPU time= 0.00 sec
 Commands  initialized (725), CPU time= 0.02 sec, 591 directives.
 Default parameters read. Elapsed time= 0.12 sec

 Checking input...
 Passed
1


                                         ***  PROGRAM SYSTEM MOLPRO  ***
                                       Copyright, TTI GmbH Stuttgart, 2015
                                    Version 2099.9 linked May 26 2017 16:03:21


 **********************************************************************************************************************************
 LABEL *                                                                                 
  64 bit serial version                                                                  DATE: 09-Jun-17          TIME: 01:36:29  
 **********************************************************************************************************************************

 SHA1:             b4a5b34a9e711420743f49e6833241d17c61fb3c
 **********************************************************************************************************************************
 SETTING GEOMTYP        =    XYZ

 Variable memory set to  500000000 words,  buffer space 

 ZSYMEL=NOSYM

 SETTING BASIS          =    STO-3G


 Recomputing integrals since basis changed


 Using spherical harmonics

 Library entry C      S STO-3G               selected for orbital group  1
 Library entry C      P STO-3G               selected for orbital group  1
 Library entry O      S STO-3G               selected for orbital group  2
 Library entry O      P STO-3G               selected for orbital group  2
 Library entry H      S STO-3G               selected for orbital group  4


 PROGRAM * SEWARD (Integral evaluation for generally contracted gaussian basis sets)     Author: Roland Lindh, 1990

 Geometry written to block  1 of record 700


 Point group  C1  



 ATOMIC COORDINATES

 NR  ATOM    CHARGE       X              Y              Z

   1  C       6.00    0.000000000    0.000000000    0.000000000
   2  C       6.00    0.000000000    0.000000000    2.897082430
   3  O       8.00    2.652117232    0.000000000    3.520692051
   4  C       6.00    3.331851719    0.000000000    6.101679992
   5  H       1.00   -1.932981956    0.000000000   -0.740319107
   6  H       1.00    0.982563098   -1.674769778   -0.714599934
   7  H       1.00    0.982563098    1.674769778   -0.714599934
   8  H       1.00    5.398512901    0.000000000    6.149414474
   9  H       1.00    2.658995835   -1.685956957    7.114346427
  10  H       1.00    2.658995835    1.685956957    7.114346427
  11  C       6.00   -1.308673136   -2.394169616    3.897031009
  12  C       6.00   -1.308673136    2.394169616    3.897031009
  13  H       1.00   -0.290375316   -4.083471388    3.268886045
  14  H       1.00   -0.290375316    4.083471388    3.268886045
  15  H       1.00   -3.250536804   -2.504170574    3.187004212
  16  H       1.00   -3.250536804    2.504170574    3.187004212
  17  H       1.00   -1.405294833   -2.422402125    5.964693745
  18  H       1.00   -1.405294833    2.422402125    5.964693745

 Bond lengths in Bohr (Angstrom)

 1-2  2.897082430  1-5  2.069901355  1-6  2.069042560  1-7  2.069042560  2-3  2.724447609
     ( 1.533070000)     ( 1.095344626)     ( 1.094890171)     ( 1.094890171)     ( 1.441715587)

  2-11  2.905954351   2-12  2.905954351   3- 4  2.668995640   4- 8  2.067212379   4- 9  2.078624355
       ( 1.537764818)       ( 1.537764818)       ( 1.412371669)       ( 1.093921681)       ( 1.099960639)

  4-10  2.078624355  11-13  2.070081404  11-15  2.070524757  11-17  2.070111596  12-14  2.070081404
       ( 1.099960639)       ( 1.095439904)       ( 1.095674516)       ( 1.095455880)       ( 1.095439904)

 12-16  2.070524757  12-18  2.070111596
       ( 1.095674516)       ( 1.095455880)

 Bond angles

  1- 2- 3  103.23196371   1- 2-11  110.12706952   1- 2-12  110.12706952   2- 1- 5  110.95650426

  2- 1- 6  110.20481748   2- 1- 7  110.20481748   2- 3- 4  117.98647004   2-11-13  110.26679927

  2-11-15  110.37287188   2-11-17  112.08316935   2-12-14  110.26679927   2-12-16  110.37287188

  2-12-18  112.08316935   3- 2-11  111.07703285   3- 2-12  111.07703285   3- 4- 8  106.07765410

  3- 4- 9  112.87219182   3- 4-10  112.87219182   5- 1- 6  108.65976572   5- 1- 7  108.65976572

  6- 1- 7  108.08288210   8- 4- 9  108.20190897   8- 4-10  108.20190897   9- 4-10  108.40564999

 11- 2-12  110.95103964  13-11-15  108.29648994  13-11-17  108.35544687  14-12-16  108.29648994

 14-12-18  108.35544687  15-11-17  107.33851825  16-12-18  107.33851825

 NUCLEAR CHARGE:                   50
 NUMBER OF PRIMITIVE AOS:         126
 NUMBER OF SYMMETRY AOS:          126
 NUMBER OF CONTRACTIONS:           42   (  42A   )
 NUMBER OF CORE ORBITALS:           6   (   6A   )
 NUMBER OF VALENCE ORBITALS:       36   (  36A   )


 NUCLEAR REPULSION ENERGY  270.15500869


 Eigenvalues of metric

         1 0.207E+00 0.226E+00 0.228E+00 0.234E+00 0.307E+00 0.355E+00 0.359E+00 0.362E+00


 Contracted 2-electron integrals neglected if value below      1.0D-11
 AO integral compression algorithm  1   Integral accuracy      1.0D-11

     2.884 MB (compressed) written to integral file ( 84.3%)


 NUMBER OF SORTED TWO-ELECTRON INTEGRALS:     408156.     BUFFER LENGTH:  32768
 NUMBER OF SEGMENTS:   1  SEGMENT LENGTH:     408156      RECORD LENGTH: 524288

 Memory used in sort:       0.97 MW

 SORT1 READ      453477. AND WROTE      382834. INTEGRALS IN      2 RECORDS. CPU TIME:     0.02 SEC, REAL TIME:     0.03 SEC
 SORT2 READ      382834. AND WROTE      408156. INTEGRALS IN     11 RECORDS. CPU TIME:     0.03 SEC, REAL TIME:     0.06 SEC

 FILE SIZES:   FILE 1:    33.2 MBYTE,  FILE 4:     8.4 MBYTE,   TOTAL:     41.6 MBYTE

 OPERATOR DM      FOR CENTER  0  COORDINATES:    0.000000    0.000000    0.000000


 **********************************************************************************************************************************
 DATASETS  * FILE   NREC   LENGTH (MB)   RECORD NAMES
              1      19       31.98       500      610      700      900      950      970     1000      129      960     1100   
                                          VAR    BASINP    GEOM    SYMINP    ZMAT    AOBASIS   BASIS     P2S    ABASIS      S 
                                         1400     1410     1200     1210     1080     1600     1650     1300     1700   
                                           T        V       H0       H01     AOSYM     SMH    MOLCAS    ERIS     OPER   

 PROGRAMS   *        TOTAL       INT
 CPU TIMES  *         0.85      0.71
 REAL TIME  *         2.52 SEC
 DISK USED  *        42.19 MB      
 **********************************************************************************************************************************

 Density functional group LYP88=LYP
 Functional: LYP(Automatically generated (new) LYP)                            Gradient terms: 1
 Use grid at  1800.2

 Functional: LYP                       Factor:  1.0000

 Generated new metagrid on record  1800.2 with target accuracy 1.0D-06 and 66012 points in CPU time    2.0
 Computed new grid on record 1800.1 in CPU time    2.3
   38106 words reserved for DFT integration

 PROGRAM * UKS-SCF (Unrestricted Kohn-Sham)     Authors: W. Meyer, H.-J. Werner, P.J. Knowles, 1993

 NUMBER OF ELECTRONS:      25+   25-    SPACE SYMMETRY=1    SPIN SYMMETRY: Singlet 
 CONVERGENCE THRESHOLDS:    1.00E-05 (Density)    1.00E-06 (Energy)
 MAX. NUMBER OF ITERATIONS:       60
 INTERPOLATION TYPE:            DIIS
 INTERPOLATION STEPS:              2 (START)      1 (STEP)
 LEVEL SHIFTS:                 -0.20 (ALPHA)  -0.20 (BETA) 



 Use fine grid record 1800.2 for energy threshold  1.0D-06
 Orbital guess generated from atomic densities. Full valence occupancy:   25

 Molecular orbital dump at record        2200.2

 Initial alpha occupation  25
 Initial beta  occupation  25

 ITERATION    DDIFF          GRAD             ENERGY        2-EL.EN.            DIPOLE MOMENTS         DIIS
    1      0.000D+00      0.000D+00      -230.99543262    804.065103    0.07452    0.00000    0.09324    0
    2      0.353D-01      0.119D-01      -231.11777280    790.959303   -0.04739   -0.00000   -0.12197    1
    3      0.106D-01      0.519D-02      -231.14267147    794.164889    0.01953    0.00000   -0.12388    2
    4      0.120D-02      0.609D-03      -231.14307635    794.265708   -0.01902    0.00000   -0.10437    3
    5      0.763D-03      0.206D-03      -231.14316703    794.201712   -0.01626    0.00000   -0.11856    4
    6      0.341D-03      0.657D-04      -231.14317706    794.199176   -0.01810    0.00000   -0.11910    5
    7      0.823D-04      0.329D-04      -231.14317820    794.202142   -0.01931    0.00000   -0.11901    6
    8      0.255D-04      0.594D-05      -231.14317826    794.201565   -0.01911    0.00000   -0.11945    6
    9      0.530D-05      0.174D-05      -231.14317827    794.201123   -0.01909    0.00000   -0.11940    6
   10      0.247D-05      0.677D-06      -231.14317827    794.201328   -0.01911    0.00000   -0.11939    7

 Final alpha occupancy:  25
 Final beta  occupancy:  25

 !UKS STATE 1.1 Energy               -231.143178267197
 Nuclear energy                       270.15500869
 One-electron energy                 -896.78496130
 Two-electron energy                  397.10066401
 Density functional                    -1.61388968     LYP=-1.61388968
 Virial quotient                       -0.88834284
 !UKS STATE 1.1 Dipole moment          -0.01911107     0.00000000    -0.11938588
 Dipole moment /Debye                  -0.04857232     0.00000000    -0.30342876

 Orbital energies for positive spin:

         1.1          2.1          3.1          4.1          5.1          6.1          7.1          8.1          9.1         10.1
    -15.801753    -7.705128    -7.699083    -7.691852    -7.685077    -7.683393    -0.329367    -0.180377    -0.101806    -0.097315

        11.1         12.1         13.1         14.1         15.1         16.1         17.1         18.1         19.1         20.1
     -0.058372     0.055327     0.071349     0.093614     0.096967     0.122068     0.143928     0.166157     0.175406     0.190171

        21.1         22.1         23.1         24.1         25.1         26.1         27.1
      0.202458     0.226288     0.236316     0.433808     0.495670     0.754157     0.819996

 Orbital energies for negative spin:

         1.1          2.1          3.1          4.1          5.1          6.1          7.1          8.1          9.1         10.1
    -15.801753    -7.705128    -7.699083    -7.691852    -7.685077    -7.683393    -0.329367    -0.180377    -0.101806    -0.097315

        11.1         12.1         13.1         14.1         15.1         16.1         17.1         18.1         19.1         20.1
     -0.058372     0.055327     0.071349     0.093614     0.096967     0.122068     0.143928     0.166157     0.175406     0.190171

        21.1         22.1         23.1         24.1         25.1         26.1         27.1
      0.202458     0.226288     0.236316     0.433808     0.495670     0.754157     0.819996

 HOMO     25.1     0.495670 =      13.4879eV
 LUMO     26.1     0.754157 =      20.5217eV
 LUMO-HOMO         0.258487 =       7.0338eV

 EXPECTATION VALUE OF S**2:            -0.00000000

 Natural orbitals saved to record    2200.2 (Orbital set 3)

 Orbital spaces for UNO-CAS (Min. occupation: 0.020  Max. occupation: 1.980):

 Closed:       25
 Active:        0


 **********************************************************************************************************************************
 DATASETS  * FILE   NREC   LENGTH (MB)   RECORD NAMES
              1      20       34.09       500      610      700      900      950      970     1000      129      960     1100   
                                          VAR    BASINP    GEOM    SYMINP    ZMAT    AOBASIS   BASIS     P2S    ABASIS      S 
                                         1400     1410     1200     1210     1080     1600     1650     1300     1700     1800   
                                           T        V       H0       H01     AOSYM     SMH    MOLCAS    ERIS     OPER     GRID   

              2       5        3.13       700     1000      520     1800     2200   
                                         GEOM     BASIS   MCVARS    GRID      UKS  

 PROGRAMS   *        TOTAL       UKS       INT
 CPU TIMES  *         9.35      8.50      0.71
 REAL TIME  *        15.76 SEC
 DISK USED  *        42.19 MB      
 **********************************************************************************************************************************


 PROGRAM * Intrinsic Basis Bonding Analysis (IBBA)          Author: G. Knizia

 Molecular orbitals read from record     2200.2  Type=UKS/ALPHA (state 1.1)
 Fock matrix read from record            2200.2  Type=UKS/TOTAL (state 1.1)
 Orbital energies read from record       2200.2  Type=UKS/ALPHA (state 1.1)
 Density matrix read from record         2200.2  Type=UKS/CHARGE (state 1.1)

 Number of core orbitals:           6 (   6 )
 Number of closed-shell orbitals:  19 (  19 )

 Basis set MINAO-AUTO-PP generated.      Number of basis functions:   42 

 Polarized AO type:                A = (O Ot + (1-O)(1-Ot)) P12
 Orthogonalization method:         Symmetric (Loewdin)
 Localization functional:          L = sum[A,i] <i|n_A|i>^4 -> max

 Localization group 1:  25 orbitals, occupancy  2.000
 Iterative localization: IB/PM,    7 iter; Final gradient 0.52E-08

 Bond order analysis:       [THRPRINT= 0.020]

   CEN ATOM   CEN ATOM     WIBERG.BO      RENORM.BO
     1   C  -   2   C       0.972888       0.976027
     1   C  -   5   H       0.969411       0.983648
     1   C  -   6   H       0.968278       0.981797
     1   C  -   7   H       0.968278       0.981797

     2   C  -   3   O       1.025747       0.982097
     2   C  -   1   C       0.972888       0.976027
     2   C  -  12   C       0.965532       0.942639
     2   C  -  11   C       0.965532       0.942639

     3   O  -   4   C       1.101338       1.046235
     3   O  -   2   C       1.025747       0.982097
     3   O  -  10   H       0.055386       0.031236
     3   O  -   9   H       0.055386       0.031236
     3   O  -  12   C       0.039838       0.021299
     3   O  -  11   C       0.039838       0.021299
     3   O  -   8   H       0.020310       0.012144

     4   C  -   3   O       1.101338       1.046235
     4   C  -   8   H       0.951691       0.951722
     4   C  -   9   H       0.932492       0.895971
     4   C  -  10   H       0.932492       0.895971

     5   H  -   1   C       0.969411       0.983648

     6   H  -   1   C       0.968278       0.981797

     7   H  -   1   C       0.968278       0.981797

     8   H  -   4   C       0.951691       0.951722
     8   H  -   3   O       0.020310       0.012144

     9   H  -   4   C       0.932492       0.895971
     9   H  -   3   O       0.055386       0.031236

    10   H  -   4   C       0.932492       0.895971
    10   H  -   3   O       0.055386       0.031236

    11   C  -  13   H       0.967920       0.981021
    11   C  -  15   H       0.966952       0.982997
    11   C  -  17   H       0.965646       0.978227
    11   C  -   2   C       0.965532       0.942639
    11   C  -   3   O       0.039838       0.021299

    12   C  -  14   H       0.967920       0.981021
    12   C  -  16   H       0.966952       0.982997
    12   C  -  18   H       0.965646       0.978227
    12   C  -   2   C       0.965532       0.942639
    12   C  -   3   O       0.039838       0.021299

    13   H  -  11   C       0.967920       0.981021

    14   H  -  12   C       0.967920       0.981021

    15   H  -  11   C       0.966952       0.982997

    16   H  -  12   C       0.966952       0.982997

    17   H  -  11   C       0.965646       0.978227

    18   H  -  12   C       0.965646       0.978227


 Valency analysis:

   CEN ATOM   TOT.VALENCE
     1   C       3.950349
     2   C       3.977020
     3   O       2.414573
     4   C       3.945445
     5   H       0.995753
     6   H       0.995692
     7   H       0.995692
     8   H       0.996603
     9   H       0.999353
    10   H       0.999353
    11   C       3.948122
    12   C       3.948122
    13   H       0.996149
    14   H       0.996149
    15   H       0.995609
    16   H       0.995609
    17   H       0.996258
    18   H       0.996258

 Total charge composition:

   CEN ATOM         s          p       ELECTRONS ->P.CHARGE
     1   C       2.88765    3.32254      6.21018   -0.21018
     2   C       2.87829    3.06679      5.94508    0.05492
     3   O       3.55953    4.34507      7.90460    0.09540
     4   C       2.90603    3.27012      6.17616   -0.17616
     5   H       0.93483                 0.93483    0.06517
     6   H       0.93436                 0.93436    0.06564
     7   H       0.93436                 0.93436    0.06564
     8   H       0.94172                 0.94172    0.05828
     9   H       0.97456                 0.97456    0.02544
    10   H       0.97456                 0.97456    0.02544
    11   C       2.88635    3.33792      6.22427   -0.22427
    12   C       2.88635    3.33792      6.22427   -0.22427
    13   H       0.93795                 0.93795    0.06205
    14   H       0.93795                 0.93795    0.06205
    15   H       0.93374                 0.93374    0.06626
    16   H       0.93374                 0.93374    0.06626
    17   H       0.93883                 0.93883    0.06117
    18   H       0.93883                 0.93883    0.06117

 Total charge composition, AO contributions:

   CEN ATOM SHL      SPHERICAL COMPONENTS
     1   C  1s       1.99819
     1   C  2s       0.88946
     1   C  2p       1.12696    1.12671    1.06886

     2   C  1s       1.99851
     2   C  2s       0.87978
     2   C  2p       0.95723    1.05702    1.05254

     3   O  1s       1.99897
     3   O  2s       1.56056
     3   O  2p       1.23901    1.83278    1.27328

     4   C  1s       1.99828
     4   C  2s       0.90775
     4   C  2p       1.13628    1.14915    0.98470

     5   H  1s       0.93483

     6   H  1s       0.93436

     7   H  1s       0.93436

     8   H  1s       0.94172

     9   H  1s       0.97456

    10   H  1s       0.97456

    11   C  1s       1.99822
    11   C  2s       0.88813
    11   C  2p       1.12033    1.09648    1.12112

    12   C  1s       1.99822
    12   C  2s       0.88813
    12   C  2p       1.12033    1.09648    1.12112

    13   H  1s       0.93795

    14   H  1s       0.93795

    15   H  1s       0.93374

    16   H  1s       0.93374

    17   H  1s       0.93883

    18   H  1s       0.93883

 Summary of localized orbital composition:   [THRPRINT= 0.020]

   ORB  GRP  ORB.ENERGY      CENTERS/CHARGES
     1   1   -15.703887      O  3   2.000
     2   1    -7.629191      C  2   2.000
     3   1    -7.619287      C  4   2.000
     4   1    -7.609067      C  1   2.000
     5   1    -7.602057      C 11   2.000
     6   1    -7.602057      C 12   2.000
     7   1    -0.081644      O  3   1.060   C  4   0.929
     8   1    -0.053717      O  3   1.055   C  2   0.912   (other: 0.033)
     9   1     0.027927      C  1   0.992   C  2   0.978   (other: 0.030)
    10   1     0.034232      C 12   1.004   C  2   0.975   (other: 0.021)
    11   1     0.034232      C 11   1.004   C  2   0.975   (other: 0.021)
    12   1     0.058112      C  4   1.066   H  8   0.923
    13   1     0.061622      C  1   1.064   H  6   0.925
    14   1     0.061622      C  1   1.064   H  7   0.925
    15   1     0.061666      C  1   1.064   H  5   0.926
    16   1     0.064215      C 12   1.061   H 14   0.928
    17   1     0.064215      C 11   1.061   H 13   0.928
    18   1     0.064360      C 11   1.060   H 17   0.928
    19   1     0.064360      C 12   1.060   H 18   0.928
    20   1     0.065568      C  4   1.056   H  9   0.940
    21   1     0.065568      C  4   1.056   H 10   0.940
    22   1     0.066080      C 11   1.064   H 15   0.924
    23   1     0.066080      C 12   1.064   H 16   0.924
    24   1     0.256020      O  3   1.939   (other: 0.061)
    25   1     0.461063      O  3   1.833   C  4   0.042   C  2   0.035   H  9   0.026   H 10   0.026   (other: 0.037)

 Localized orbitals saved to record      2200.2  (orbital set 4)


 **********************************************************************************************************************************
 DATASETS  * FILE   NREC   LENGTH (MB)   RECORD NAMES
              1      20       34.09       500      610      700      900      950      970     1000      129      960     1100   
                                          VAR    BASINP    GEOM    SYMINP    ZMAT    AOBASIS   BASIS     P2S    ABASIS      S 
                                         1400     1410     1200     1210     1080     1600     1650     1300     1700     1800   
                                           T        V       H0       H01     AOSYM     SMH    MOLCAS    ERIS     OPER     GRID   

              2       5        3.15       700     1000      520     1800     2200   
                                         GEOM     BASIS   MCVARS    GRID      UKS  

 PROGRAMS   *        TOTAL      IBBA       UKS       INT
 CPU TIMES  *         9.40      0.05      8.50      0.71
 REAL TIME  *        15.97 SEC
 DISK USED  *        42.19 MB      
 **********************************************************************************************************************************
 Molecular orbitals read from record     2200.2  Type=UKS/LOCAL(IBO)  
 Occupation numbers read from record     2200.2  Type=UKS/LOCAL(IBO)  
 Orbital energies read from record       2200.2  Type=UKS/LOCAL(IBO)  
 Redundancy group numbers read from rec  2200.2  Type=UKS/BETA (state 1.1)

 IBBA/STO-3G energy=      0.000000000000

        UKS-SCF 
   -231.14317827
 **********************************************************************************************************************************
 Molpro calculation terminated
