
 Primary working directories    : /tmp/sb13343
 Secondary working directories  : /tmp/sb13343
 Wavefunction directory         : /panfs/panasas01/chem/sb13343/wfu/
 Main file repository           : /tmp/sb13343/

 SHA1      : b4a5b34a9e711420743f49e6833241d17c61fb3c
 NAME      : 2099.9.b4a5b34
 ARCHNAME  : linux/x86_64_openmp
 FC        : /cm/shared/languages/GCC-6.1/bin/gfortran
 BLASLIB   : -lblas
 id        : simonbennie

 Nodes     nprocs
 node35-048    1

 Using customized tuning parameters: mindgm=1; mindgv=20; mindgc=4; mindgr=1; noblas=0; minvec=7
 default implementation of scratch files=df  

 memory,500,m
 geomtyp=xyz
 nosym
 noorient
 geometry={
 C         -1.53233        0.02247        0.00000
 C         -0.00192        0.01421        0.00000
 O          0.37239        1.40356        0.00000
 H          1.34248        1.44036        0.00000
 H         -1.92991       -0.99819        0.00000
 H         -1.90797        0.54382       -0.88653
 H         -1.90797        0.54382        0.88653
 C          0.54303       -0.66466       -1.26580
 C          0.54303       -0.66466        1.26580
 H          0.17836       -0.14752       -2.15943
 H          0.17836       -0.14752        2.15943
 H          0.23752       -1.71600       -1.32280
 H          0.23752       -1.71600        1.32280
 H          1.64084       -0.63767       -1.28032
 H          1.64084       -0.63767        1.28032
 }
 basis={ default,sto-3g }
 {ks,MM05-2X,direct;wf,42,1,0}
 {ibba,bonds=1}

 Variables initialized (895), CPU time= 0.00 sec
 Commands  initialized (725), CPU time= 0.01 sec, 591 directives.
 Default parameters read. Elapsed time= 0.09 sec

 Checking input...
 Passed
1


                                         ***  PROGRAM SYSTEM MOLPRO  ***
                                       Copyright, TTI GmbH Stuttgart, 2015
                                    Version 2099.9 linked May 26 2017 16:03:21


 **********************************************************************************************************************************
 LABEL *                                                                                 
  64 bit serial version                                                                  DATE: 09-Jun-17          TIME: 03:28:09  
 **********************************************************************************************************************************

 SHA1:             b4a5b34a9e711420743f49e6833241d17c61fb3c
 **********************************************************************************************************************************
 SETTING GEOMTYP        =    XYZ

 Variable memory set to  500000000 words,  buffer space 

 ZSYMEL=NOSYM

 SETTING BASIS          =    STO-3G


 Recomputing integrals since basis changed


 Using spherical harmonics

 Library entry C      S STO-3G               selected for orbital group  1
 Library entry C      P STO-3G               selected for orbital group  1
 Library entry O      S STO-3G               selected for orbital group  2
 Library entry O      P STO-3G               selected for orbital group  2
 Library entry H      S STO-3G               selected for orbital group  3


 PROGRAM * SEWARD (Integral evaluation for generally contracted gaussian basis sets)     Author: Roland Lindh, 1990

 Geometry written to block  1 of record 700


 Point group  C1  



 ATOMIC COORDINATES

 NR  ATOM    CHARGE       X              Y              Z

   1  C       6.00   -2.895684032    0.042462146    0.000000000
   2  C       6.00   -0.003628274    0.026853008    0.000000000
   3  O       8.00    0.703715112    2.652343999    0.000000000
   4  H       1.00    2.536919528    2.721885921    0.000000000
   5  H       1.00   -3.647001345   -1.886305720    0.000000000
   6  H       1.00   -3.605540754    1.027670861   -1.675298901
   7  H       1.00   -3.605540754    1.027670861    1.675298901
   8  C       6.00    1.026177977   -1.256025366   -2.392015328
   9  C       6.00    1.026177977   -1.256025366    2.392015328
  10  H       1.00    0.337051552   -0.278772398   -4.080731285
  11  H       1.00    0.337051552   -0.278772398    4.080731285
  12  H       1.00    0.448847749   -3.242770030   -2.499729718
  13  H       1.00    0.448847749   -3.242770030    2.499729718
  14  H       1.00    3.100738214   -1.205021658   -2.419454152
  15  H       1.00    3.100738214   -1.205021658    2.419454152

 Bond lengths in Bohr (Angstrom)

 1-2  2.892097881  1-5  2.069933136  1-6  2.069096224  1-7  2.069096224  2-3  2.719106031
     ( 1.530432290)     ( 1.095361444)     ( 1.094918569)     ( 1.094918569)     ( 1.438888946)

  2- 8  2.903104402   2- 9  2.903104402   3- 4  1.834522965   8-10  2.069222119   8-12  2.071730422
       ( 1.536256691)       ( 1.536256691)       ( 0.970787746)       ( 1.094985190)       ( 1.096312526)

  8-14  2.075368508   9-11  2.069222119   9-13  2.071730422   9-15  2.075368508
       ( 1.098237719)       ( 1.094985190)       ( 1.096312526)       ( 1.098237719)

 Bond angles

  1-2-3  104.76902697   1-2-8  110.92255387   1-2-9  110.92255387   2-1-5  110.97328220

  2- 1- 6  110.22090701   2- 1- 7  110.22090701   2- 3- 4  107.25071562   2- 8-10  110.21836376

  2- 8-12  111.57747468   2- 8-14  110.77023896   2- 9-11  110.21836376   2- 9-13  111.57747468

  2- 9-15  110.77023896   3- 2- 8  109.53648747   3- 2- 9  109.53648747   5- 1- 6  108.61190457

  5- 1- 7  108.61190457   6- 1- 7  108.12870271   8- 2- 9  110.96453384  10- 8-12  108.52192632

 10- 8-14  108.08997829  11- 9-13  108.52192632  11- 9-15  108.08997829  12- 8-14  107.54424578

 13- 9-15  107.54424578

 NUCLEAR CHARGE:                   42
 NUMBER OF PRIMITIVE AOS:         105
 NUMBER OF SYMMETRY AOS:          105
 NUMBER OF CONTRACTIONS:           35   (  35A   )
 NUMBER OF CORE ORBITALS:           5   (   5A   )
 NUMBER OF VALENCE ORBITALS:       30   (  30A   )


 NUCLEAR REPULSION ENERGY  198.77359127


 Eigenvalues of metric

         1 0.207E+00 0.227E+00 0.228E+00 0.304E+00 0.354E+00 0.360E+00 0.361E+00 0.363E+00


 Contracted 2-electron integrals neglected if value below      1.0D-11
 AO integral compression algorithm  1   Integral accuracy      1.0D-11

     1.573 MB (compressed) written to integral file ( 87.8%)


 NUMBER OF SORTED TWO-ELECTRON INTEGRALS:     198765.     BUFFER LENGTH:  32768
 NUMBER OF SEGMENTS:   1  SEGMENT LENGTH:     198765      RECORD LENGTH: 524288

 Memory used in sort:       0.76 MW

 SORT1 READ      224962. AND WROTE      188577. INTEGRALS IN      1 RECORDS. CPU TIME:     0.01 SEC, REAL TIME:     0.02 SEC
 SORT2 READ      188577. AND WROTE      198765. INTEGRALS IN      6 RECORDS. CPU TIME:     0.02 SEC, REAL TIME:     0.03 SEC

 FILE SIZES:   FILE 1:    31.8 MBYTE,  FILE 4:     4.2 MBYTE,   TOTAL:     36.0 MBYTE

 OPERATOR DM      FOR CENTER  0  COORDINATES:    0.000000    0.000000    0.000000


 **********************************************************************************************************************************
 DATASETS  * FILE   NREC   LENGTH (MB)   RECORD NAMES
              1      19       31.10       500      610      700      900      950      970     1000      129      960     1100   
                                          VAR    BASINP    GEOM    SYMINP    ZMAT    AOBASIS   BASIS     P2S    ABASIS      S 
                                         1400     1410     1200     1210     1080     1600     1650     1300     1700   
                                           T        V       H0       H01     AOSYM     SMH    MOLCAS    ERIS     OPER   

 PROGRAMS   *        TOTAL       INT
 CPU TIMES  *         0.67      0.52
 REAL TIME  *         1.86 SEC
 DISK USED  *        36.55 MB      
 **********************************************************************************************************************************

 Density functional group MM05-2X=M052XX+M052XC
 Functional: M052XX(Automatically generated (new) M052XX)                      Gradient terms: 2
 Functional: M052XC(Automatically generated (new) M052XC)                      Gradient terms: 2
 Use grid at  1800.2


 Exact exchange will be calculated, factor:  0.5600

 Functional: M052XX                    Factor:  0.4400
 Functional: M052XC                    Factor:  1.0000

 Generated new metagrid on record  1800.2 with target accuracy 1.0D-06 and 53396 points in CPU time    1.7
 Computed new grid on record 1800.1 in CPU time    1.9
   59039 words reserved for DFT integration

 PROGRAM * RKS-SCF (Restricted closed shell Kohn-Sham)     Authors: W. Meyer, H.-J. Werner, P.J. Knowles, 1993

 NUMBER OF ELECTRONS:      21+   21-    SPACE SYMMETRY=1    SPIN SYMMETRY: Singlet 
 CONVERGENCE THRESHOLDS:    1.00E-05 (Density)    1.00E-06 (Energy)
 MAX. NUMBER OF ITERATIONS:       60
 INTERPOLATION TYPE:            DIIS
 INTERPOLATION STEPS:              2 (START)      1 (STEP)
 LEVEL SHIFTS:                  0.00 (CLOSED)  0.00 (OPEN) 



 Use fine grid record 1800.2 for energy threshold  1.0D-06
 Orbital guess generated from atomic densities. Full valence occupancy:   21

 Molecular orbital dump at record        2100.2

 Initial occupancy:  21

 ITERATION    DDIFF          GRAD             ENERGY        2-EL.EN.            DIPOLE MOMENTS         DIIS   ORB.
    1      0.000D+00      0.000D+00      -230.57190750    600.386417    0.76018   -1.11758    0.00000    0    start
    2      0.000D+00      0.246D-01      -230.77152889    581.185758    0.09213   -0.12254   -0.00000    1    diag
    3      0.647D-01      0.119D-01      -230.82576157    587.103858    0.32155   -0.39474    0.00000    2    diag
    4      0.211D-01      0.729D-03      -230.82594819    587.117453    0.32186   -0.42218    0.00000    3    diag
    5      0.153D-02      0.214D-03      -230.82596550    587.107296    0.32012   -0.41778    0.00000    4    diag
    6      0.368D-03      0.230D-04      -230.82596569    587.110794    0.32024   -0.41709    0.00000    5    diag
    7      0.574D-04      0.106D-04      -230.82596573    587.110020    0.32036   -0.41741    0.00000    6    diag
    8      0.155D-04      0.869D-06      -230.82596573    587.110047    0.32035   -0.41737    0.00000    7    diag
    9      0.342D-05      0.268D-06      -230.82596573    587.110042    0.32036   -0.41738    0.00000    0    orth

 Final occupancy:  21

 !RKS STATE 1.1 Energy               -230.825965731542
 Nuclear energy                       198.77359127
 One-electron energy                 -707.22829087
 Two-electron energy                  293.55502095
 SCF exchange energy                  -32.71189972     Factor= 0.5600
 Density functional                   -15.92628708     M052XX=-32.80791925 M052XC= -1.49080261
 Virial quotient                       -1.01574600
 !RKS STATE 1.1 Dipole moment           0.32035933    -0.41738069     0.00000000
 Dipole moment /Debye                   0.81421885    -1.06080641     0.00000000

 Orbital energies:

         1.1          2.1          3.1          4.1          5.1          6.1          7.1          8.1          9.1         10.1
    -19.396741   -10.460678   -10.399325   -10.399250   -10.397081    -1.067951    -0.846548    -0.750952    -0.749169    -0.598696

        11.1         12.1         13.1         14.1         15.1         16.1         17.1         18.1         19.1         20.1
     -0.511740    -0.482972    -0.482633    -0.437238    -0.430331    -0.401954    -0.401792    -0.368778    -0.360209    -0.287659

        21.1         22.1         23.1
     -0.224102     0.371594     0.432007

 HOMO     21.1    -0.224102 =      -6.0981eV
 LUMO     22.1     0.371594 =      10.1116eV
 LUMO-HOMO         0.595696 =      16.2097eV


 **********************************************************************************************************************************
 DATASETS  * FILE   NREC   LENGTH (MB)   RECORD NAMES
              1      20       32.81       500      610      700      900      950      970     1000      129      960     1100   
                                          VAR    BASINP    GEOM    SYMINP    ZMAT    AOBASIS   BASIS     P2S    ABASIS      S 
                                         1400     1410     1200     1210     1080     1600     1650     1300     1700     1800   
                                           T        V       H0       H01     AOSYM     SMH    MOLCAS    ERIS     OPER     GRID   

              2       5        3.02       700     1000      520     1800     2100   
                                         GEOM     BASIS   MCVARS    GRID      RKS  

 PROGRAMS   *        TOTAL        KS       INT
 CPU TIMES  *        10.37      9.70      0.52
 REAL TIME  *        12.29 SEC
 DISK USED  *        36.55 MB      
 **********************************************************************************************************************************


 PROGRAM * Intrinsic Basis Bonding Analysis (IBBA)          Author: G. Knizia

 Molecular orbitals read from record     2100.2  Type=RKS/CANONICAL (state 1.1)
 Fock matrix read from record            2100.2  Type=RKS/TOTAL (state 1.1)
 Orbital energies read from record       2100.2  Type=RKS/CANONICAL (state 1.1)
 Density matrix read from record         2100.2  Type=RKS/CHARGE (state 1.1)

 Number of core orbitals:           5 (   5 )
 Number of closed-shell orbitals:  16 (  16 )

 Basis set MINAO-AUTO-PP generated.      Number of basis functions:   35 

 Polarized AO type:                A = (O Ot + (1-O)(1-Ot)) P12
 Orthogonalization method:         Symmetric (Loewdin)
 Localization functional:          L = sum[A,i] <i|n_A|i>^4 -> max

 Localization group 1:  21 orbitals, occupancy  2.000
 Iterative localization: IB/PM,    7 iter; Final gradient 0.26E-08

 Bond order analysis:       [THRPRINT= 0.020]

   CEN ATOM   CEN ATOM     WIBERG.BO      RENORM.BO
     1   C  -   2   C       0.990447       0.987444
     1   C  -   5   H       0.967844       0.991021
     1   C  -   6   H       0.964012       0.988557
     1   C  -   7   H       0.964012       0.988557

     2   C  -   3   O       0.995240       0.981327
     2   C  -   1   C       0.990447       0.987444
     2   C  -   8   C       0.989557       0.970193
     2   C  -   9   C       0.989557       0.970193

     3   O  -   2   C       0.995240       0.981327
     3   O  -   4   H       0.934959       0.983689
     3   O  -   9   C       0.021656       0.011270
     3   O  -   8   C       0.021656       0.011270

     4   H  -   3   O       0.934959       0.983689

     5   H  -   1   C       0.967844       0.991021

     6   H  -   1   C       0.964012       0.988557

     7   H  -   1   C       0.964012       0.988557

     8   C  -   2   C       0.989557       0.970193
     8   C  -  14   H       0.967009       0.987829
     8   C  -  12   H       0.966121       0.990107
     8   C  -  10   H       0.964711       0.988404
     8   C  -   3   O       0.021656       0.011270

     9   C  -   2   C       0.989557       0.970193
     9   C  -  15   H       0.967009       0.987829
     9   C  -  13   H       0.966121       0.990107
     9   C  -  11   H       0.964711       0.988404
     9   C  -   3   O       0.021656       0.011270

    10   H  -   8   C       0.964711       0.988404

    11   H  -   9   C       0.964711       0.988404

    12   H  -   8   C       0.966121       0.990107

    13   H  -   9   C       0.966121       0.990107

    14   H  -   8   C       0.967009       0.987829

    15   H  -   9   C       0.967009       0.987829


 Valency analysis:

   CEN ATOM   TOT.VALENCE
     1   C       3.931163
     2   C       3.975075
     3   O       2.015746
     4   H       0.950702
     5   H       0.983113
     6   H       0.981227
     7   H       0.981227
     8   C       3.933847
     9   C       3.933847
    10   H       0.981629
    11   H       0.981629
    12   H       0.982381
    13   H       0.982381
    14   H       0.984253
    15   H       0.984253

 Total charge composition:

   CEN ATOM         s          p       ELECTRONS ->P.CHARGE
     1   C       2.99023    3.40134      6.39157   -0.39157
     2   C       2.93985    2.94094      5.88079    0.11921
     3   O       3.66867    4.66503      8.33369   -0.33369
     4   H       0.77797                 0.77797    0.22203
     5   H       0.87005                 0.87005    0.12995
     6   H       0.86298                 0.86298    0.13702
     7   H       0.86298                 0.86298    0.13702
     8   C       2.99469    3.40905      6.40374   -0.40374
     9   C       2.99469    3.40905      6.40374   -0.40374
    10   H       0.86446                 0.86446    0.13554
    11   H       0.86446                 0.86446    0.13554
    12   H       0.86726                 0.86726    0.13274
    13   H       0.86726                 0.86726    0.13274
    14   H       0.87451                 0.87451    0.12549
    15   H       0.87451                 0.87451    0.12549

 Total charge composition, AO contributions:

   CEN ATOM SHL      SPHERICAL COMPONENTS
     1   C  1s       1.99147
     1   C  2s       0.99876
     1   C  2p       1.05224    1.17041    1.17869

     2   C  1s       1.99293
     2   C  2s       0.94691
     2   C  2p       1.03186    0.88317    1.02591

     3   O  1s       1.99724
     3   O  2s       1.67142
     3   O  2p       1.34942    1.34954    1.96607

     4   H  1s       0.77797

     5   H  1s       0.87005

     6   H  1s       0.86298

     7   H  1s       0.86298

     8   C  1s       1.99157
     8   C  2s       1.00312
     8   C  2p       1.15243    1.15363    1.10299

     9   C  1s       1.99157
     9   C  2s       1.00312
     9   C  2p       1.15243    1.15363    1.10299

    10   H  1s       0.86446

    11   H  1s       0.86446

    12   H  1s       0.86726

    13   H  1s       0.86726

    14   H  1s       0.87451

    15   H  1s       0.87451

 Summary of localized orbital composition:   [THRPRINT= 0.020]

   ORB  GRP  ORB.ENERGY      CENTERS/CHARGES
     1   1   -19.207797      O  3   2.000
     2   1   -10.364176      C  2   2.000
     3   1   -10.283841      C  8   2.000
     4   1   -10.283841      C  9   2.000
     5   1   -10.280767      C  1   2.000
     6   1    -0.747766      O  3   1.221   H  4   0.771
     7   1    -0.701753      O  3   1.153   C  2   0.832
     8   1    -0.622001      O  3   1.988
     9   1    -0.605227      C  8   0.998   C  2   0.989
    10   1    -0.605227      C  9   0.998   C  2   0.989
    11   1    -0.604130      C  2   0.997   C  1   0.982   (other: 0.021)
    12   1    -0.548095      C  9   1.123   H 15   0.868
    13   1    -0.548095      C  8   1.123   H 14   0.868
    14   1    -0.546745      C  8   1.130   H 12   0.861
    15   1    -0.546745      C  9   1.130   H 13   0.861
    16   1    -0.543746      C  9   1.134   H 11   0.858
    17   1    -0.543746      C  8   1.134   H 10   0.858
    18   1    -0.543736      C  1   1.127   H  5   0.864
    19   1    -0.538241      C  1   1.135   H  7   0.856
    20   1    -0.538241      C  1   1.135   H  6   0.856
    21   1    -0.251884      O  3   1.966   (other: 0.034)

 Localized orbitals saved to record      2100.2  (orbital set 2)


 **********************************************************************************************************************************
 DATASETS  * FILE   NREC   LENGTH (MB)   RECORD NAMES
              1      20       32.81       500      610      700      900      950      970     1000      129      960     1100   
                                          VAR    BASINP    GEOM    SYMINP    ZMAT    AOBASIS   BASIS     P2S    ABASIS      S 
                                         1400     1410     1200     1210     1080     1600     1650     1300     1700     1800   
                                           T        V       H0       H01     AOSYM     SMH    MOLCAS    ERIS     OPER     GRID   

              2       5        3.03       700     1000      520     1800     2100   
                                         GEOM     BASIS   MCVARS    GRID      RKS  

 PROGRAMS   *        TOTAL      IBBA        KS       INT
 CPU TIMES  *        10.41      0.03      9.70      0.52
 REAL TIME  *        12.44 SEC
 DISK USED  *        36.55 MB      
 **********************************************************************************************************************************
 Molecular orbitals read from record     2100.2  Type=RKS/LOCAL(IBO)  
 Occupation numbers read from record     2100.2  Type=RKS/LOCAL(IBO)  
 Orbital energies read from record       2100.2  Type=RKS/LOCAL(IBO)  
 Redundancy group numbers read from rec  2100.2  Type=RKS/LOCAL(IBO)  

 IBBA/STO-3G energy=      0.000000000000

        KS-SCF  
   -230.82596573
 **********************************************************************************************************************************
 Molpro calculation terminated
