
 Primary working directories    : /tmp/sb13343
 Secondary working directories  : /tmp/sb13343
 Wavefunction directory         : /panfs/panasas01/chem/sb13343/wfu/
 Main file repository           : /tmp/sb13343/

 SHA1      : b4a5b34a9e711420743f49e6833241d17c61fb3c
 NAME      : 2099.9.b4a5b34
 ARCHNAME  : linux/x86_64_openmp
 FC        : /cm/shared/languages/GCC-6.1/bin/gfortran
 BLASLIB   : -lblas
 id        : simonbennie

 Nodes     nprocs
 node32-034    1

 Using customized tuning parameters: mindgm=1; mindgv=20; mindgc=4; mindgr=1; noblas=0; minvec=7
 default implementation of scratch files=df  

 memory,500,m
 geomtyp=xyz
 nosym
 noorient
 geometry={
 H         -1.13405        1.76167        0.00000
 C         -1.32915        0.67205        0.00000
 C         -0.06360       -0.12883        0.00000
 C          0.67426       -0.31636        1.28970
 C          0.67426       -0.31636       -1.28970
 H         -1.94006        0.46750        0.88859
 H         -1.94006        0.46750       -0.88859
 H          1.28359        0.56876        1.55544
 H         -0.01165       -0.48291        2.13019
 H          1.36783       -1.16569        1.24157
 H          1.28359        0.56876       -1.55544
 H         -0.01165       -0.48291       -2.13019
 H          1.36783       -1.16569       -1.24157
 }
 basis={ default,svp }
 {uks,MM05-2X,direct;wf,33,1,1}
 {ibba,bonds=1}

 Variables initialized (895), CPU time= 0.00 sec
 Commands  initialized (725), CPU time= 0.02 sec, 591 directives.
 Default parameters read. Elapsed time= 0.19 sec

 Checking input...
 Passed
1


                                         ***  PROGRAM SYSTEM MOLPRO  ***
                                       Copyright, TTI GmbH Stuttgart, 2015
                                    Version 2099.9 linked May 26 2017 16:03:21


 **********************************************************************************************************************************
 LABEL *                                                                                 
  64 bit serial version                                                                  DATE: 08-Jun-17          TIME: 20:40:25  
 **********************************************************************************************************************************

 SHA1:             b4a5b34a9e711420743f49e6833241d17c61fb3c
 **********************************************************************************************************************************
 SETTING GEOMTYP        =    XYZ

 Variable memory set to  500000000 words,  buffer space 

 ZSYMEL=NOSYM

 SETTING BASIS          =    SVP


 Recomputing integrals since basis changed


 Using spherical harmonics

 Library entry H      S def2-SVP             selected for orbital group  1
 Library entry H      P def2-SVP             selected for orbital group  1
 Library entry C      S def2-SVP             selected for orbital group  2
 Library entry C      P def2-SVP             selected for orbital group  2
 Library entry C      D def2-SVP             selected for orbital group  2


 PROGRAM * SEWARD (Integral evaluation for generally contracted gaussian basis sets)     Author: Roland Lindh, 1990

 Geometry written to block  1 of record 700


 Point group  C1  



 ATOMIC COORDINATES

 NR  ATOM    CHARGE       X              Y              Z

   1  H       1.00   -2.143043912    3.329073822    0.000000000
   2  C       6.00   -2.511729478    1.269990442    0.000000000
   3  C       6.00   -0.120186582   -0.243453417    0.000000000
   4  C       6.00    1.274166737   -0.597833757    2.437179783
   5  C       6.00    1.274166737   -0.597833757   -2.437179783
   6  H       1.00   -3.666182065    0.883446963    1.679191737
   7  H       1.00   -3.666182065    0.883446963   -1.679191737
   8  H       1.00    2.425633556    1.074800631    2.939355603
   9  H       1.00   -0.022015309   -0.912567643    4.025475693
  10  H       1.00    2.584824085   -2.202834846    2.346227264
  11  H       1.00    2.425633556    1.074800631   -2.939355603
  12  H       1.00   -0.022015309   -0.912567643   -4.025475693
  13  H       1.00    2.584824085   -2.202834846   -2.346227264

 Bond lengths in Bohr (Angstrom)

 1-2  2.091830159  2-3  2.830192527  2-6  2.074092940  2-7  2.074092940  3-4  2.830132841
     ( 1.106948849)     ( 1.497673388)     ( 1.097562717)     ( 1.097562717)     ( 1.497641803)

  3- 5  2.830132841   4- 8  2.091832255   4- 9  2.074085151   4-10  2.074156104   5-11  2.091832255
       ( 1.497641803)       ( 1.106949959)       ( 1.097558596)       ( 1.097596142)       ( 1.106949959)

  5-12  2.074085151   5-13  2.074156104
       ( 1.097558596)       ( 1.097596142)

 Bond angles

  1-2-3  112.17549786   1-2-6  106.35284965   1-2-7  106.35284965   2-3-4  118.89987932

  2-3-5  118.89987932   3-2-6  111.75744418   3-2-7  111.75744418   3-4-8  112.19808176

  3- 4- 9  111.75014522   3- 4-10  111.74379558   3- 5-11  112.19808176   3- 5-12  111.75014522

  3- 5-13  111.74379558   4- 3- 5  118.89276928   6- 2- 7  108.11431090   8- 4- 9  106.34995457

  8- 4-10  106.34572146   9- 4-10  108.12296896  11- 5-12  106.34995457  11- 5-13  106.34572146

 12- 5-13  108.12296896

 NUCLEAR CHARGE:                   33
 NUMBER OF PRIMITIVE AOS:         163
 NUMBER OF SYMMETRY AOS:          159
 NUMBER OF CONTRACTIONS:          101   ( 101A   )
 NUMBER OF CORE ORBITALS:           4   (   4A   )
 NUMBER OF VALENCE ORBITALS:       25   (  25A   )


 NUCLEAR REPULSION ENERGY  124.92676597


 Eigenvalues of metric

         1 0.371E-02 0.424E-02 0.424E-02 0.242E-01 0.242E-01 0.268E-01 0.277E-01 0.371E-01


 Contracted 2-electron integrals neglected if value below      1.0D-11
 AO integral compression algorithm  1   Integral accuracy      1.0D-11

     53.477 MB (compressed) written to integral file ( 46.4%)


 NUMBER OF SORTED TWO-ELECTRON INTEGRALS:   13268976.     BUFFER LENGTH:  32768
 NUMBER OF SEGMENTS:   1  SEGMENT LENGTH:   13268976      RECORD LENGTH: 524288

 Memory used in sort:      13.83 MW

 SORT1 READ    14422061. AND WROTE    12225547. INTEGRALS IN     35 RECORDS. CPU TIME:     0.16 SEC, REAL TIME:     0.32 SEC
 SORT2 READ    12225547. AND WROTE    13268976. INTEGRALS IN    204 RECORDS. CPU TIME:     0.32 SEC, REAL TIME:     0.41 SEC

 FILE SIZES:   FILE 1:    84.0 MBYTE,  FILE 4:   146.8 MBYTE,   TOTAL:    230.9 MBYTE

 OPERATOR DM      FOR CENTER  0  COORDINATES:    0.000000    0.000000    0.000000


 **********************************************************************************************************************************
 DATASETS  * FILE   NREC   LENGTH (MB)   RECORD NAMES
              1      19       77.16       500      610      700      900      950      970     1000      129      960     1100   
                                          VAR    BASINP    GEOM    SYMINP    ZMAT    AOBASIS   BASIS     P2S    ABASIS      S 
                                         1400     1410     1200     1210     1080     1600     1650     1300     1700   
                                           T        V       H0       H01     AOSYM     SMH    MOLCAS    ERIS     OPER   

 PROGRAMS   *        TOTAL       INT
 CPU TIMES  *         2.19      2.05
 REAL TIME  *         3.04 SEC
 DISK USED  *       231.35 MB      
 **********************************************************************************************************************************

 Density functional group MM05-2X=M052XX+M052XC
 Functional: M052XX(Automatically generated (new) M052XX)                      Gradient terms: 2
 Functional: M052XC(Automatically generated (new) M052XC)                      Gradient terms: 2
 Use grid at  1800.2


 Exact exchange will be calculated, factor:  0.5600

 Functional: M052XX                    Factor:  0.4400
 Functional: M052XC                    Factor:  1.0000

 Generated new metagrid on record  1800.2 with target accuracy 1.0D-06 and 45406 points in CPU time    1.3
 Computed new grid on record 1800.1 in CPU time    1.4
  161317 words reserved for DFT integration

 PROGRAM * UKS-SCF (Unrestricted Kohn-Sham)     Authors: W. Meyer, H.-J. Werner, P.J. Knowles, 1993

 NUMBER OF ELECTRONS:      17+   16-    SPACE SYMMETRY=1    SPIN SYMMETRY: Doublet 
 CONVERGENCE THRESHOLDS:    1.00E-05 (Density)    1.00E-06 (Energy)
 MAX. NUMBER OF ITERATIONS:       60
 INTERPOLATION TYPE:            DIIS
 INTERPOLATION STEPS:              2 (START)      1 (STEP)
 LEVEL SHIFTS:                 -0.20 (ALPHA)  -0.20 (BETA) 



 Use fine grid record 1800.2 for energy threshold  1.0D-06
 Orbital guess generated from atomic densities. Full valence occupancy:   17

 Molecular orbital dump at record        2200.2

 Initial alpha occupation  17
 Initial beta  occupation  16

 ITERATION    DDIFF          GRAD             ENERGY        2-EL.EN.            DIPOLE MOMENTS         DIIS
    1      0.000D+00      0.000D+00      -157.53149229    380.549697    0.13854    0.28013    0.00000    0
    2      0.739D-02      0.407D-02      -157.62364262    371.852659    0.07175    0.14059    0.00000    1
    3      0.181D-02      0.118D-02      -157.63103647    373.224120    0.06616    0.12819    0.00000    2
    4      0.139D-02      0.418D-03      -157.63340692    373.109951    0.05706    0.10752    0.00000    3
    5      0.558D-03      0.129D-03      -157.63366171    373.084006    0.05378    0.10005    0.00000    4
    6      0.172D-03      0.470D-04      -157.63369481    373.073799    0.05242    0.09721    0.00000    5
    7      0.388D-04      0.145D-04      -157.63369722    373.080838    0.05231    0.09698    0.00000    6
    8      0.145D-04      0.434D-05      -157.63369741    373.079707    0.05207    0.09653    0.00000    7
    9      0.470D-05      0.106D-05      -157.63369743    373.079780    0.05213    0.09665    0.00000    7
   10      0.189D-05      0.346D-06      -157.63369743    373.079844    0.05211    0.09662    0.00000    7

 Final alpha occupancy:  17
 Final beta  occupancy:  16

 !UKS STATE 1.1 Energy               -157.633697431902
 Nuclear energy                       124.92676597
 One-electron energy                 -457.51359719
 Two-electron energy                  186.53992187
 Density functional                   -11.58678808     M052XX=-23.79499901 M052XC= -1.11698852
 Virial quotient                       -1.01338896
 !UKS STATE 1.1 Dipole moment           0.05210825     0.09662193     0.00000000
 Dipole moment /Debye                   0.13243728     0.24557237     0.00000000

 Orbital energies for positive spin:

         1.1          2.1          3.1          4.1          5.1          6.1          7.1          8.1          9.1         10.1
    -10.577296   -10.566598   -10.566576   -10.566124    -0.898082    -0.779168    -0.778959    -0.610806    -0.516523    -0.511307

        11.1         12.1         13.1         14.1         15.1         16.1         17.1         18.1         19.1
     -0.511086    -0.451508    -0.451464    -0.431264    -0.406439    -0.406246    -0.222762     0.105277     0.159330

 Orbital energies for negative spin:

         1.1          2.1          3.1          4.1          5.1          6.1          7.1          8.1          9.1         10.1
    -10.567362   -10.567360   -10.566935   -10.565625    -0.878024    -0.775079    -0.774761    -0.588901    -0.505131    -0.504990

        11.1         12.1         13.1         14.1         15.1         16.1         17.1         18.1         19.1
     -0.490954    -0.442927    -0.442840    -0.429745    -0.400822    -0.400628     0.017774     0.103116     0.157163

 HOMO     17.1    -0.222762 =      -6.0617eV
 LUMO    -17.1     0.017774 =       0.4837eV
 LUMO-HOMO         0.240536 =       6.5453eV

 EXPECTATION VALUE OF S**2:             0.75403256

 Occupation number threshold for canonical orbitals:  1.999000 (occupied),  0.001000 (virtual)

 Number of pseudo-canonical orbitals per symmetry:   16
 Number of active natural orbitals per symmetry:      1

 Natural orbitals saved to record    2200.2 (Orbital set 3)

 Orbital spaces for UNO-CAS (Min. occupation: 0.020  Max. occupation: 1.980):

 Closed:       16
 Active:        1


 **********************************************************************************************************************************
 DATASETS  * FILE   NREC   LENGTH (MB)   RECORD NAMES
              1      20       78.61       500      610      700      900      950      970     1000      129      960     1100   
                                          VAR    BASINP    GEOM    SYMINP    ZMAT    AOBASIS   BASIS     P2S    ABASIS      S 
                                         1400     1410     1200     1210     1080     1600     1650     1300     1700     1800   
                                           T        V       H0       H01     AOSYM     SMH    MOLCAS    ERIS     OPER     GRID   

              2       5        3.39       700     1000      520     1800     2200   
                                         GEOM     BASIS   MCVARS    GRID      UKS  

 PROGRAMS   *        TOTAL       UKS       INT
 CPU TIMES  *        56.56     54.37      2.05
 REAL TIME  *        57.63 SEC
 DISK USED  *       231.35 MB      
 **********************************************************************************************************************************


 PROGRAM * Intrinsic Basis Bonding Analysis (IBBA)          Author: G. Knizia

 Molecular orbitals read from record     2200.2  Type=UKS/ALPHA (state 1.1)
 Fock matrix read from record            2200.2  Type=UKS/TOTAL (state 1.1)
 Orbital energies read from record       2200.2  Type=UKS/ALPHA (state 1.1)
 Density matrix read from record         2200.2  Type=UKS/CHARGE (state 1.1)

 Number of core orbitals:           4 (   4 )
 Number of closed-shell orbitals:  12 (  12 )
 Number of active  orbitals:        1 (   1 )

 Basis set MINAO-AUTO-PP generated.      Number of basis functions:   29 

 Polarized AO type:                A = (O Ot + (1-O)(1-Ot)) P12
 Orthogonalization method:         Symmetric (Loewdin)
 Localization functional:          L = sum[A,i] <i|n_A|i>^4 -> max

 Localization group 1:  16 orbitals, occupancy  2.000
 Iterative localization: IB/PM,    8 iter; Final gradient 0.19E-08

 Bond order analysis:       [THRPRINT= 0.020]

   CEN ATOM   CEN ATOM     WIBERG.BO      RENORM.BO
     1   H  -   2   C       0.878051       0.995778
     1   H  -   3   C       0.053947       0.171188

     2   C  -   3   C       1.133258       1.304946
     2   C  -   6   H       0.947968       0.988254
     2   C  -   7   H       0.947968       0.988254
     2   C  -   1   H       0.878051       0.995778

     3   C  -   2   C       1.133258       1.304946
     3   C  -   5   C       1.133245       1.305003
     3   C  -   4   C       1.133245       1.305003
     3   C  -   1   H       0.053947       0.171188
     3   C  -  11   H       0.053860       0.170880
     3   C  -   8   H       0.053860       0.170880

     4   C  -   3   C       1.133245       1.305003
     4   C  -   9   H       0.948042       0.988267
     4   C  -  10   H       0.947739       0.988291
     4   C  -   8   H       0.878164       0.995760

     5   C  -   3   C       1.133245       1.305003
     5   C  -  12   H       0.948042       0.988267
     5   C  -  13   H       0.947739       0.988291
     5   C  -  11   H       0.878164       0.995760

     6   H  -   2   C       0.947968       0.988254

     7   H  -   2   C       0.947968       0.988254

     8   H  -   4   C       0.878164       0.995760
     8   H  -   3   C       0.053860       0.170880

     9   H  -   4   C       0.948042       0.988267

    10   H  -   4   C       0.947739       0.988291

    11   H  -   5   C       0.878164       0.995760
    11   H  -   3   C       0.053860       0.170880

    12   H  -   5   C       0.948042       0.988267

    13   H  -   5   C       0.947739       0.988291


 Valency analysis:

   CEN ATOM   TOT.VALENCE
     1   H       0.962096
     2   C       3.947895
     3   C       3.624633
     4   C       3.947840
     5   C       3.947840
     6   H       0.978613
     7   H       0.978613
     8   H       0.962132
     9   H       0.978601
    10   H       0.978531
    11   H       0.962132
    12   H       0.978601
    13   H       0.978531
 Localization group 2:   1 orbitals, occupancy  1.000
 Iterative localization: IB/PM,    1 iter; Final gradient 0.00E+00

 Bond order analysis:       [THRPRINT= 0.020]

   CEN ATOM   CEN ATOM     WIBERG.BO      RENORM.BO
     1   H  -   3   C       0.087949       0.500000


     3   C  -   1   H       0.087949       0.500000
     3   C  -  11   H       0.087947       0.500000
     3   C  -   8   H       0.087947       0.500000





     8   H  -   3   C       0.087947       0.500000



    11   H  -   3   C       0.087947       0.500000




 Valency analysis:

   CEN ATOM   TOT.VALENCE
     1   H       0.113601
     2   C       0.018464
     3   C       0.396585
     4   C       0.018379
     5   C       0.018379
     6   H       0.020866
     7   H       0.020866
     8   H       0.113597
     9   H       0.020736
    10   H       0.021104
    11   H       0.113597
    12   H       0.020736
    13   H       0.021104

 Total charge composition:

   CEN ATOM         s          p       ELECTRONS ->P.CHARGE
     1   H       0.86576                 0.86576    0.13424
     2   C       2.99853    3.35098      6.34950   -0.34950
     3   C       2.99719    3.17168      6.16887   -0.16887
     4   C       2.99859    3.35085      6.34944   -0.34944
     5   C       2.99859    3.35085      6.34944   -0.34944
     6   H       0.86430                 0.86430    0.13570
     7   H       0.86430                 0.86430    0.13570
     8   H       0.86586                 0.86586    0.13414
     9   H       0.86419                 0.86419    0.13581
    10   H       0.86414                 0.86414    0.13586
    11   H       0.86586                 0.86586    0.13414
    12   H       0.86419                 0.86419    0.13581
    13   H       0.86414                 0.86414    0.13586

 Total charge composition, AO contributions:

   CEN ATOM SHL      SPHERICAL COMPONENTS
     1   H  1s       0.86576

     2   C  1s       1.99059
     2   C  2s       1.00794
     2   C  2p       1.08151    1.10375    1.16572

     3   C  1s       1.99222
     3   C  2s       1.00497
     3   C  2p       1.04726    1.09168    1.03274

     4   C  1s       1.99058
     4   C  2s       1.00800
     4   C  2p       1.13030    1.13934    1.08121

     5   C  1s       1.99058
     5   C  2s       1.00800
     5   C  2p       1.13030    1.13934    1.08121

     6   H  1s       0.86430

     7   H  1s       0.86430

     8   H  1s       0.86586

     9   H  1s       0.86419

    10   H  1s       0.86414

    11   H  1s       0.86586

    12   H  1s       0.86419

    13   H  1s       0.86414

 Active orbital charges:

   CEN ATOM         s          p       ELECTRONS ->SPIN.DEN
     1   H       0.06046                 0.06046    0.06046
     2   C       0.00025    0.00907      0.00932    0.00932
     3   C       0.01045    0.71694      0.72739    0.72739
     4   C       0.00025    0.00903      0.00928    0.00928
     5   C       0.00025    0.00903      0.00928    0.00928
     6   H       0.01054                 0.01054    0.01054
     7   H       0.01054                 0.01054    0.01054
     8   H       0.06045                 0.06045    0.06045
     9   H       0.01048                 0.01048    0.01048
    10   H       0.01067                 0.01067    0.01067
    11   H       0.06045                 0.06045    0.06045
    12   H       0.01048                 0.01048    0.01048
    13   H       0.01067                 0.01067    0.01067

 Active orbital charges, AO contributions:

   CEN ATOM SHL      SPHERICAL COMPONENTS
     1   H  1s       0.06046

     2   C  1s       0.00000
     2   C  2s       0.00025
     2   C  2p       0.00031    0.00876    0.00000

     3   C  1s       0.00002
     3   C  2s       0.01043
     3   C  2p       0.13988    0.57706    0.00000

     4   C  1s       0.00000
     4   C  2s       0.00025
     4   C  2p       0.00268    0.00587    0.00048

     5   C  1s       0.00000
     5   C  2s       0.00025
     5   C  2p       0.00268    0.00587    0.00048

     6   H  1s       0.01054

     7   H  1s       0.01054

     8   H  1s       0.06045

     9   H  1s       0.01048

    10   H  1s       0.01067

    11   H  1s       0.06045

    12   H  1s       0.01048

    13   H  1s       0.01067

 Summary of localized orbital composition:   [THRPRINT= 0.020]

   ORB  GRP  ORB.ENERGY      CENTERS/CHARGES
     1   1   -10.470778      C  3   2.000
     2   1   -10.448788      C  4   2.000
     3   1   -10.448788      C  5   2.000
     4   1   -10.448355      C  2   2.000
     5   1    -0.671574      C  3   1.009   C  4   0.979
     6   1    -0.671574      C  3   1.009   C  5   0.979
     7   1    -0.671232      C  3   1.009   C  2   0.979
     8   1    -0.572290      C  5   1.099   H 11   0.797   C  3   0.096
     9   1    -0.572290      C  4   1.099   H  8   0.797   C  3   0.096
    10   1    -0.572161      C  2   1.099   H  1   0.797   C  3   0.096
    11   1    -0.568431      C  4   1.127   H 10   0.846   C  3   0.021
    12   1    -0.568431      C  5   1.127   H 13   0.846   C  3   0.021
    13   1    -0.568418      C  5   1.127   H 12   0.847   C  3   0.021
    14   1    -0.568418      C  4   1.127   H  9   0.847   C  3   0.021
    15   1    -0.567911      C  2   1.127   H  6   0.847   C  3   0.021
    16   1    -0.567911      C  2   1.127   H  7   0.847   C  3   0.021
    17   2    -0.101471      C  3   0.727   H  1   0.060   H 11   0.060   H  8   0.060   (other: 0.091)

 Localized orbitals saved to record      2200.2  (orbital set 4)


 **********************************************************************************************************************************
 DATASETS  * FILE   NREC   LENGTH (MB)   RECORD NAMES
              1      20       78.61       500      610      700      900      950      970     1000      129      960     1100   
                                          VAR    BASINP    GEOM    SYMINP    ZMAT    AOBASIS   BASIS     P2S    ABASIS      S 
                                         1400     1410     1200     1210     1080     1600     1650     1300     1700     1800   
                                           T        V       H0       H01     AOSYM     SMH    MOLCAS    ERIS     OPER     GRID   

              2       5        3.47       700     1000      520     1800     2200   
                                         GEOM     BASIS   MCVARS    GRID      UKS  

 PROGRAMS   *        TOTAL      IBBA       UKS       INT
 CPU TIMES  *        56.59      0.03     54.37      2.05
 REAL TIME  *        57.75 SEC
 DISK USED  *       231.35 MB      
 **********************************************************************************************************************************
 Molecular orbitals read from record     2200.2  Type=UKS/LOCAL(IBO)  
 Occupation numbers read from record     2200.2  Type=UKS/LOCAL(IBO)  
 Orbital energies read from record       2200.2  Type=UKS/LOCAL(IBO)  
 Redundancy group numbers read from rec  2200.2  Type=UKS/BETA (state 1.1)

 IBBA/SVP energy=      0.000000000000

        UKS-SCF 
   -157.63369743
 **********************************************************************************************************************************
 Molpro calculation terminated
