
 Primary working directories    : /tmp/sb13343
 Secondary working directories  : /tmp/sb13343
 Wavefunction directory         : /panfs/panasas01/chem/sb13343/wfu/
 Main file repository           : /tmp/sb13343/

 SHA1      : b4a5b34a9e711420743f49e6833241d17c61fb3c
 NAME      : 2099.9.b4a5b34
 ARCHNAME  : linux/x86_64_openmp
 FC        : /cm/shared/languages/GCC-6.1/bin/gfortran
 BLASLIB   : -lblas
 id        : simonbennie

 Nodes     nprocs
 node32-002    1

 Using customized tuning parameters: mindgm=1; mindgv=20; mindgc=4; mindgr=1; noblas=0; minvec=7
 default implementation of scratch files=df  

 memory,500,m
 geomtyp=xyz
 nosym
 noorient
 geometry={
 C          0.00000        0.00000        0.00000
 H          0.00000        0.00000        1.10056
 C          1.46209        0.00000       -0.46855
 C         -0.73105       -1.26621       -0.46855
 C         -0.73105        1.26621       -0.46855
 H          1.52118        0.00000       -1.56505
 H         -0.76059       -1.31738       -1.56505
 H         -0.76059        1.31738       -1.56505
 H          1.99755        0.88622       -0.10723
 H          1.99755       -0.88622       -0.10723
 H         -0.23129       -2.17304       -0.10723
 H         -1.76626       -1.28682       -0.10723
 H         -1.76626        1.28682       -0.10723
 H         -0.23129        2.17304       -0.10723
 }
 basis={ default,svp }
 {ks,M06,direct;wf,34,1,0}
 {ibba,bonds=1}

 Variables initialized (895), CPU time= 0.00 sec
 Commands  initialized (725), CPU time= 0.02 sec, 591 directives.
 Default parameters read. Elapsed time= 0.13 sec

 Checking input...
 Passed
1


                                         ***  PROGRAM SYSTEM MOLPRO  ***
                                       Copyright, TTI GmbH Stuttgart, 2015
                                    Version 2099.9 linked May 26 2017 16:03:21


 **********************************************************************************************************************************
 LABEL *                                                                                 
  64 bit serial version                                                                  DATE: 09-Jun-17          TIME: 00:17:01  
 **********************************************************************************************************************************

 SHA1:             b4a5b34a9e711420743f49e6833241d17c61fb3c
 **********************************************************************************************************************************
 SETTING GEOMTYP        =    XYZ

 Variable memory set to  500000000 words,  buffer space 

 ZSYMEL=NOSYM

 SETTING BASIS          =    SVP


 Recomputing integrals since basis changed


 Using spherical harmonics

 Library entry C      S def2-SVP             selected for orbital group  1
 Library entry C      P def2-SVP             selected for orbital group  1
 Library entry C      D def2-SVP             selected for orbital group  1
 Library entry H      S def2-SVP             selected for orbital group  2
 Library entry H      P def2-SVP             selected for orbital group  2


 PROGRAM * SEWARD (Integral evaluation for generally contracted gaussian basis sets)     Author: Roland Lindh, 1990

 Geometry written to block  1 of record 700


 Point group  C1  



 ATOMIC COORDINATES

 NR  ATOM    CHARGE       X              Y              Z

   1  C       6.00    0.000000000    0.000000000    0.000000000
   2  H       1.00    0.000000000    0.000000000    2.079756984
   3  C       6.00    2.762949669    0.000000000   -0.885431176
   4  C       6.00   -1.381484283   -2.392790116   -0.885431176
   5  C       6.00   -1.381484283    2.392790116   -0.885431176
   6  H       1.00    2.874613586    0.000000000   -2.957515871
   7  H       1.00   -1.437306793   -2.489487402   -2.957515871
   8  H       1.00   -1.437306793    2.489487402   -2.957515871
   9  H       1.00    3.774822420    1.674713086   -0.202635332
  10  H       1.00    3.774822420   -1.674713086   -0.202635332
  11  H       1.00   -0.437074755   -4.106450458   -0.202635332
  12  H       1.00   -3.337747665   -2.431737372   -0.202635332
  13  H       1.00   -3.337747665    2.431737372   -0.202635332
  14  H       1.00   -0.437074755    4.106450458   -0.202635332

 Bond lengths in Bohr (Angstrom)

 1-2  2.079756984  1-3  2.901358172  1-4  2.901367218  1-5  2.901367218  3-6  2.075091279
     ( 1.100560000)     ( 1.535332625)     ( 1.535337412)     ( 1.535337412)     ( 1.098091015)

  3- 9  2.072380406   3-10  2.072380406   4- 7  2.075090722   4-11  2.072378172   4-12  2.072364222
       ( 1.096656483)       ( 1.096656483)       ( 1.098090721)       ( 1.096655301)       ( 1.096647919)

  5- 8  2.075090722   5-13  2.072364222   5-14  2.072378172
       ( 1.098090721)       ( 1.096647919)       ( 1.096655301)

 Bond angles

  1- 3- 6  110.85354902   1- 3- 9  111.37220114   1- 3-10  111.37220114   1- 4- 7  110.85320625

  1- 4-11  111.37204414   1- 4-12  111.37216555   1- 5- 8  110.85320625   1- 5-13  111.37216555

  1- 5-14  111.37204414   2- 1- 3  107.76888332   2- 1- 4  107.76882608   2- 1- 5  107.76882608

  3-1-4  111.11870751   3-1-5  111.11870751   4-1-5  111.11845005   6-3-9  107.62119374

  6- 3-10  107.62119374   7- 4-11  107.62125572   7- 4-12  107.62162102   8- 5-13  107.62162102

  8- 5-14  107.62125572   9- 3-10  107.82352924  11- 4-12  107.82360822  13- 5-14  107.82360822

 NUCLEAR CHARGE:                   34
 NUMBER OF PRIMITIVE AOS:         170
 NUMBER OF SYMMETRY AOS:          166
 NUMBER OF CONTRACTIONS:          106   ( 106A   )
 NUMBER OF CORE ORBITALS:           4   (   4A   )
 NUMBER OF VALENCE ORBITALS:       26   (  26A   )


 NUCLEAR REPULSION ENERGY  134.07051350


 Eigenvalues of metric

         1 0.225E-02 0.614E-02 0.614E-02 0.233E-01 0.256E-01 0.268E-01 0.268E-01 0.277E-01


 Contracted 2-electron integrals neglected if value below      1.0D-11
 AO integral compression algorithm  1   Integral accuracy      1.0D-11

     64.750 MB (compressed) written to integral file ( 46.7%)


 NUMBER OF SORTED TWO-ELECTRON INTEGRALS:   16082956.     BUFFER LENGTH:  32768
 NUMBER OF SEGMENTS:   2  SEGMENT LENGTH:   15997996      RECORD LENGTH: 524288

 Memory used in sort:      16.56 MW

 SORT1 READ    17384690. AND WROTE    14795173. INTEGRALS IN     44 RECORDS. CPU TIME:     0.24 SEC, REAL TIME:     0.79 SEC
 SORT2 READ    14795173. AND WROTE    16082956. INTEGRALS IN    247 RECORDS. CPU TIME:     0.43 SEC, REAL TIME:     0.84 SEC

 FILE SIZES:   FILE 1:    95.4 MBYTE,  FILE 4:   184.6 MBYTE,   TOTAL:    279.9 MBYTE

 OPERATOR DM      FOR CENTER  0  COORDINATES:    0.000000    0.000000    0.000000


 **********************************************************************************************************************************
 DATASETS  * FILE   NREC   LENGTH (MB)   RECORD NAMES
              1      19       87.57       500      610      700      900      950      970     1000      129      960     1100   
                                          VAR    BASINP    GEOM    SYMINP    ZMAT    AOBASIS   BASIS     P2S    ABASIS      S 
                                         1400     1410     1200     1210     1080     1600     1650     1300     1700   
                                           T        V       H0       H01     AOSYM     SMH    MOLCAS    ERIS     OPER   

 PROGRAMS   *        TOTAL       INT
 CPU TIMES  *         2.95      2.80
 REAL TIME  *         6.91 SEC
 DISK USED  *       280.45 MB      
 **********************************************************************************************************************************

 Density functional group M06=XC-M06
 Functional: XC-M06(via MFM 1.6)                                               Gradient terms: 1
 Use grid at  1800.2


 Exact exchange will be calculated, factor:  0.2700

 Functional: XC-M06                    Factor:  1.0000

 Generated new metagrid on record  1800.2 with target accuracy 1.0D-06 and 45620 points in CPU time    1.1
 Computed new grid on record 1800.1 in CPU time    1.3
   88342 words reserved for DFT integration

 PROGRAM * RKS-SCF (Restricted closed shell Kohn-Sham)     Authors: W. Meyer, H.-J. Werner, P.J. Knowles, 1993

 NUMBER OF ELECTRONS:      17+   17-    SPACE SYMMETRY=1    SPIN SYMMETRY: Singlet 
 CONVERGENCE THRESHOLDS:    1.00E-05 (Density)    1.00E-06 (Energy)
 MAX. NUMBER OF ITERATIONS:       60
 INTERPOLATION TYPE:            DIIS
 INTERPOLATION STEPS:              2 (START)      1 (STEP)
 LEVEL SHIFTS:                  0.00 (CLOSED)  0.00 (OPEN) 



 Use fine grid record 1800.2 for energy threshold  1.0D-06
 Orbital guess generated from atomic densities. Full valence occupancy:   17

 Molecular orbital dump at record        2100.2

 Initial occupancy:  17

 ITERATION    DDIFF          GRAD             ENERGY        2-EL.EN.            DIPOLE MOMENTS         DIIS   ORB.
    1      0.000D+00      0.000D+00      -158.01385831    417.713716   -0.00026   -0.00000   -0.01597    0    start
    2      0.000D+00      0.102D-01      -157.92965789    391.328356   -0.03377   -0.00000   -0.00482    1    diag
    3      0.210D-01      0.127D-01      -158.19688077    405.808267   -0.00773   -0.00000    0.07113    2    diag
    4      0.125D-01      0.730D-03      -158.19752672    405.657448   -0.01112   -0.00000    0.02358    3    diag
    5      0.776D-03      0.328D-03      -158.19767533    405.765721   -0.01106   -0.00000    0.02257    4    diag
    6      0.319D-03      0.553D-04      -158.19767973    405.744553   -0.01048   -0.00000    0.03341    5    diag
    7      0.704D-04      0.168D-04      -158.19768021    405.741551   -0.01062   -0.00000    0.02898    6    diag
    8      0.189D-04      0.159D-05      -158.19768021    405.740791   -0.01064   -0.00000    0.02939    7    diag
    9      0.225D-05      0.319D-06      -158.19768021    405.740955   -0.01063   -0.00000    0.02929    0    orth

 Final occupancy:  17

 !RKS STATE 1.1 Energy               -158.197680214118
 Nuclear energy                       134.07051350
 One-electron energy                 -476.41779544
 Two-electron energy                  202.87047750
 SCF exchange energy                  -24.23322822     Factor= 0.2700
 Density functional                   -18.72087577     XC-M06=-18.72087577
 Virial quotient                       -1.01378394
 !RKS STATE 1.1 Dipole moment          -0.01063461    -0.00000000     0.02928954
 Dipole moment /Debye                  -0.02702870    -0.00000000     0.07444170

 Orbital energies:

         1.1          2.1          3.1          4.1          5.1          6.1          7.1          8.1          9.1         10.1
    -10.248373   -10.233604   -10.233584   -10.233504    -0.802070    -0.681439    -0.681354    -0.559988    -0.467768    -0.436726

        11.1         12.1         13.1         14.1         15.1         16.1         17.1         18.1         19.1
     -0.436704    -0.388876    -0.388612    -0.368707    -0.337388    -0.336782    -0.327241     0.060462     0.102224

 HOMO     17.1    -0.327241 =      -8.9047eV
 LUMO     18.1     0.060462 =       1.6453eV
 LUMO-HOMO         0.387703 =      10.5499eV


 **********************************************************************************************************************************
 DATASETS  * FILE   NREC   LENGTH (MB)   RECORD NAMES
              1      20       89.03       500      610      700      900      950      970     1000      129      960     1100   
                                          VAR    BASINP    GEOM    SYMINP    ZMAT    AOBASIS   BASIS     P2S    ABASIS      S 
                                         1400     1410     1200     1210     1080     1600     1650     1300     1700     1800   
                                           T        V       H0       H01     AOSYM     SMH    MOLCAS    ERIS     OPER     GRID   

              2       5        3.22       700     1000      520     1800     2100   
                                         GEOM     BASIS   MCVARS    GRID      RKS  

 PROGRAMS   *        TOTAL        KS       INT
 CPU TIMES  *        28.60     25.65      2.80
 REAL TIME  *        45.44 SEC
 DISK USED  *       280.45 MB      
 **********************************************************************************************************************************


 PROGRAM * Intrinsic Basis Bonding Analysis (IBBA)          Author: G. Knizia

 Molecular orbitals read from record     2100.2  Type=RKS/CANONICAL (state 1.1)
 Fock matrix read from record            2100.2  Type=RKS/TOTAL (state 1.1)
 Orbital energies read from record       2100.2  Type=RKS/CANONICAL (state 1.1)
 Density matrix read from record         2100.2  Type=RKS/CHARGE (state 1.1)

 Number of core orbitals:           4 (   4 )
 Number of closed-shell orbitals:  13 (  13 )

 Basis set MINAO-AUTO-PP generated.      Number of basis functions:   30 

 Polarized AO type:                A = (O Ot + (1-O)(1-Ot)) P12
 Orthogonalization method:         Symmetric (Loewdin)
 Localization functional:          L = sum[A,i] <i|n_A|i>^4 -> max

 Localization group 1:  17 orbitals, occupancy  2.000
 Iterative localization: IB/PM,    7 iter; Final gradient 0.28E-08

 Bond order analysis:       [THRPRINT= 0.020]

   CEN ATOM   CEN ATOM     WIBERG.BO      RENORM.BO
     1   C  -   3   C       1.013380       1.009722
     1   C  -   4   C       1.013130       1.009566
     1   C  -   5   C       1.013130       1.009566
     1   C  -   2   H       0.934550       0.955319

     2   H  -   1   C       0.934550       0.955319

     3   C  -   1   C       1.013380       1.009722
     3   C  -   9   H       0.965678       0.984122
     3   C  -  10   H       0.965678       0.984122
     3   C  -   6   H       0.963902       0.979198

     4   C  -   1   C       1.013130       1.009566
     4   C  -  11   H       0.965737       0.984100
     4   C  -  12   H       0.965499       0.984306
     4   C  -   7   H       0.964023       0.979163

     5   C  -   1   C       1.013130       1.009566
     5   C  -  14   H       0.965737       0.984100
     5   C  -  13   H       0.965499       0.984306
     5   C  -   8   H       0.964023       0.979163

     6   H  -   3   C       0.963902       0.979198

     7   H  -   4   C       0.964023       0.979163

     8   H  -   5   C       0.964023       0.979163

     9   H  -   3   C       0.965678       0.984122

    10   H  -   3   C       0.965678       0.984122

    11   H  -   4   C       0.965737       0.984100

    12   H  -   4   C       0.965499       0.984306

    13   H  -   5   C       0.965499       0.984306

    14   H  -   5   C       0.965737       0.984100


 Valency analysis:

   CEN ATOM   TOT.VALENCE
     1   C       3.981499
     2   H       0.986835
     3   C       3.943228
     4   C       3.943215
     5   C       3.943215
     6   H       0.984737
     7   H       0.984856
     8   H       0.984856
     9   H       0.983705
    10   H       0.983705
    11   H       0.983820
    12   H       0.983444
    13   H       0.983444
    14   H       0.983820

 Total charge composition:

   CEN ATOM         s          p       ELECTRONS ->P.CHARGE
     1   C       2.94532    3.12256      6.06789   -0.06789
     2   H       0.88526                 0.88526    0.11474
     3   C       3.01927    3.37550      6.39477   -0.39477
     4   C       3.01916    3.37524      6.39440   -0.39440
     5   C       3.01916    3.37524      6.39440   -0.39440
     6   H       0.87645                 0.87645    0.12355
     7   H       0.87694                 0.87694    0.12306
     8   H       0.87694                 0.87694    0.12306
     9   H       0.87235                 0.87235    0.12765
    10   H       0.87235                 0.87235    0.12765
    11   H       0.87280                 0.87280    0.12720
    12   H       0.87133                 0.87133    0.12867
    13   H       0.87133                 0.87133    0.12867
    14   H       0.87280                 0.87280    0.12720

 Total charge composition, AO contributions:

   CEN ATOM SHL      SPHERICAL COMPONENTS
     1   C  1s       1.99192
     1   C  2s       0.95341
     1   C  2p       1.00787    1.00784    1.10685

     2   H  1s       0.88526

     3   C  1s       1.99132
     3   C  2s       1.02795
     3   C  2p       1.07171    1.15750    1.14629

     4   C  1s       1.99132
     4   C  2s       1.02783
     4   C  2p       1.13700    1.09252    1.14572

     5   C  1s       1.99132
     5   C  2s       1.02783
     5   C  2p       1.13700    1.09252    1.14572

     6   H  1s       0.87645

     7   H  1s       0.87694

     8   H  1s       0.87694

     9   H  1s       0.87235

    10   H  1s       0.87235

    11   H  1s       0.87280

    12   H  1s       0.87133

    13   H  1s       0.87133

    14   H  1s       0.87280

 Summary of localized orbital composition:   [THRPRINT= 0.020]

   ORB  GRP  ORB.ENERGY      CENTERS/CHARGES
     1   1   -10.145436      C  1   2.000
     2   1   -10.119816      C  5   2.000
     3   1   -10.119816      C  4   2.000
     4   1   -10.119715      C  3   2.000
     5   1    -0.562572      C  3   1.008   C  1   0.976
     6   1    -0.562284      C  5   1.007   C  1   0.977
     7   1    -0.562284      C  4   1.007   C  1   0.977
     8   1    -0.498696      C  5   1.127   H 13   0.864
     9   1    -0.498696      C  4   1.127   H 12   0.864
    10   1    -0.497752      C  4   1.122   H  7   0.870
    11   1    -0.497752      C  5   1.122   H  8   0.870
    12   1    -0.497721      C  3   1.122   H  6   0.869
    13   1    -0.497432      C  3   1.126   H  9   0.865
    14   1    -0.497432      C  3   1.126   H 10   0.865
    15   1    -0.497267      C  5   1.125   H 14   0.866
    16   1    -0.497267      C  4   1.125   H 11   0.866
    17   1    -0.490781      C  1   1.098   H  2   0.872   (other: 0.030)

 Localized orbitals saved to record      2100.2  (orbital set 2)


 **********************************************************************************************************************************
 DATASETS  * FILE   NREC   LENGTH (MB)   RECORD NAMES
              1      20       89.03       500      610      700      900      950      970     1000      129      960     1100   
                                          VAR    BASINP    GEOM    SYMINP    ZMAT    AOBASIS   BASIS     P2S    ABASIS      S 
                                         1400     1410     1200     1210     1080     1600     1650     1300     1700     1800   
                                           T        V       H0       H01     AOSYM     SMH    MOLCAS    ERIS     OPER     GRID   

              2       5        3.31       700     1000      520     1800     2100   
                                         GEOM     BASIS   MCVARS    GRID      RKS  

 PROGRAMS   *        TOTAL      IBBA        KS       INT
 CPU TIMES  *        28.65      0.04     25.65      2.80
 REAL TIME  *        45.59 SEC
 DISK USED  *       280.45 MB      
 **********************************************************************************************************************************
 Molecular orbitals read from record     2100.2  Type=RKS/LOCAL(IBO)  
 Occupation numbers read from record     2100.2  Type=RKS/LOCAL(IBO)  
 Orbital energies read from record       2100.2  Type=RKS/LOCAL(IBO)  
 Redundancy group numbers read from rec  2100.2  Type=RKS/LOCAL(IBO)  

 IBBA/SVP energy=      0.000000000000

        KS-SCF  
   -158.19768021
 **********************************************************************************************************************************
 Molpro calculation terminated
