
 Primary working directories    : /local
 Secondary working directories  : /local
 Wavefunction directory         : /local/
 Main file repository           : /local/

 SHA1      : b4a5b34a9e711420743f49e6833241d17c61fb3c
 NAME      : 2099.9.b4a5b34
 ARCHNAME  : linux/x86_64_openmp
 FC        : /cm/shared/languages/GCC-6.1/bin/gfortran
 BLASLIB   : -lblas
 id        : simonbennie

 Nodes     nprocs
 node34-040    1

 Using customized tuning parameters: mindgm=1; mindgv=20; mindgc=4; mindgr=1; noblas=0; minvec=7
 default implementation of scratch files=df  

 memory,500,m
 geomtyp=xyz
 nosym
 noorient
 geometry={
 C         -1.53233        0.02247        0.00000
 C         -0.00192        0.01421        0.00000
 O          0.37239        1.40356        0.00000
 H          1.34248        1.44036        0.00000
 H         -1.92991       -0.99819        0.00000
 H         -1.90797        0.54382       -0.88653
 H         -1.90797        0.54382        0.88653
 C          0.54303       -0.66466       -1.26580
 C          0.54303       -0.66466        1.26580
 H          0.17836       -0.14752       -2.15943
 H          0.17836       -0.14752        2.15943
 H          0.23752       -1.71600       -1.32280
 H          0.23752       -1.71600        1.32280
 H          1.64084       -0.63767       -1.28032
 H          1.64084       -0.63767        1.28032
 }
 basis={ default,avtz }
 {ks,M08-HX,direct;wf,42,1,0}
 {ibba,bonds=1}

 Variables initialized (895), CPU time= 0.01 sec
 Commands  initialized (725), CPU time= 0.01 sec, 591 directives.
 Default parameters read. Elapsed time= 0.09 sec

 Checking input...
 Passed
1


                                         ***  PROGRAM SYSTEM MOLPRO  ***
                                       Copyright, TTI GmbH Stuttgart, 2015
                                    Version 2099.9 linked May 26 2017 16:03:21


 **********************************************************************************************************************************
 LABEL *                                                                                 
  64 bit serial version                                                                  DATE: 12-Jun-17          TIME: 14:15:48  
 **********************************************************************************************************************************

 SHA1:             b4a5b34a9e711420743f49e6833241d17c61fb3c
 **********************************************************************************************************************************
 SETTING GEOMTYP        =    XYZ

 Variable memory set to  500000000 words,  buffer space 

 ZSYMEL=NOSYM

 SETTING BASIS          =    AVTZ


 Recomputing integrals since basis changed


 Using spherical harmonics

 Library entry C      S aug-cc-pVTZ          selected for orbital group  1
 Library entry C      P aug-cc-pVTZ          selected for orbital group  1
 Library entry C      D aug-cc-pVTZ          selected for orbital group  1
 Library entry C      F aug-cc-pVTZ          selected for orbital group  1
 Library entry O      S aug-cc-pVTZ          selected for orbital group  2
 Library entry O      P aug-cc-pVTZ          selected for orbital group  2
 Library entry O      D aug-cc-pVTZ          selected for orbital group  2
 Library entry O      F aug-cc-pVTZ          selected for orbital group  2
 Library entry H      S aug-cc-pVTZ          selected for orbital group  3
 Library entry H      P aug-cc-pVTZ          selected for orbital group  3
 Library entry H      D aug-cc-pVTZ          selected for orbital group  3


 PROGRAM * SEWARD (Integral evaluation for generally contracted gaussian basis sets)     Author: Roland Lindh, 1990

 Geometry written to block  1 of record 700


 Point group  C1  



 ATOMIC COORDINATES

 NR  ATOM    CHARGE       X              Y              Z

   1  C       6.00   -2.895684032    0.042462146    0.000000000
   2  C       6.00   -0.003628274    0.026853008    0.000000000
   3  O       8.00    0.703715112    2.652343999    0.000000000
   4  H       1.00    2.536919528    2.721885921    0.000000000
   5  H       1.00   -3.647001345   -1.886305720    0.000000000
   6  H       1.00   -3.605540754    1.027670861   -1.675298901
   7  H       1.00   -3.605540754    1.027670861    1.675298901
   8  C       6.00    1.026177977   -1.256025366   -2.392015328
   9  C       6.00    1.026177977   -1.256025366    2.392015328
  10  H       1.00    0.337051552   -0.278772398   -4.080731285
  11  H       1.00    0.337051552   -0.278772398    4.080731285
  12  H       1.00    0.448847749   -3.242770030   -2.499729718
  13  H       1.00    0.448847749   -3.242770030    2.499729718
  14  H       1.00    3.100738214   -1.205021658   -2.419454152
  15  H       1.00    3.100738214   -1.205021658    2.419454152

 Bond lengths in Bohr (Angstrom)

 1-2  2.892097881  1-5  2.069933136  1-6  2.069096224  1-7  2.069096224  2-3  2.719106031
     ( 1.530432290)     ( 1.095361444)     ( 1.094918569)     ( 1.094918569)     ( 1.438888946)

  2- 8  2.903104402   2- 9  2.903104402   3- 4  1.834522965   8-10  2.069222119   8-12  2.071730422
       ( 1.536256691)       ( 1.536256691)       ( 0.970787746)       ( 1.094985190)       ( 1.096312526)

  8-14  2.075368508   9-11  2.069222119   9-13  2.071730422   9-15  2.075368508
       ( 1.098237719)       ( 1.094985190)       ( 1.096312526)       ( 1.098237719)

 Bond angles

  1-2-3  104.76902697   1-2-8  110.92255387   1-2-9  110.92255387   2-1-5  110.97328220

  2- 1- 6  110.22090701   2- 1- 7  110.22090701   2- 3- 4  107.25071562   2- 8-10  110.21836376

  2- 8-12  111.57747468   2- 8-14  110.77023896   2- 9-11  110.21836376   2- 9-13  111.57747468

  2- 9-15  110.77023896   3- 2- 8  109.53648747   3- 2- 9  109.53648747   5- 1- 6  108.61190457

  5- 1- 7  108.61190457   6- 1- 7  108.12870271   8- 2- 9  110.96453384  10- 8-12  108.52192632

 10- 8-14  108.08997829  11- 9-13  108.52192632  11- 9-15  108.08997829  12- 8-14  107.54424578

 13- 9-15  107.54424578

 NUCLEAR CHARGE:                   42
 NUMBER OF PRIMITIVE AOS:         605
 NUMBER OF SYMMETRY AOS:          540
 NUMBER OF CONTRACTIONS:          460   ( 460A   )
 NUMBER OF CORE ORBITALS:           5   (   5A   )
 NUMBER OF VALENCE ORBITALS:       30   (  30A   )


 NUCLEAR REPULSION ENERGY  198.77359127


 Eigenvalues of metric

         1 0.351E-05 0.596E-05 0.770E-05 0.977E-05 0.161E-04 0.173E-04 0.207E-04 0.297E-04


 Contracted 2-electron integrals neglected if value below      1.0D-12
 AO integral compression algorithm  1   Integral accuracy      1.0D-12

     24892.932 MB (compressed) written to integral file ( 51.7%)


 NUMBER OF SORTED TWO-ELECTRON INTEGRALS: 5621233465.     BUFFER LENGTH:  32768
 NUMBER OF SEGMENTS: 176  SEGMENT LENGTH:   31999951      RECORD LENGTH: 131072

 Memory used in sort:      32.16 MW

 SORT1 READ  6020115514. AND WROTE  5366777799. INTEGRALS IN  61513 RECORDS. CPU TIME:    81.90 SEC, REAL TIME:   857.12 SEC
 SORT2 READ  5366777799. AND WROTE  5621233465. INTEGRALS IN  94959 RECORDS. CPU TIME:   130.54 SEC, REAL TIME:  1290.20 SEC

 FILE SIZES:   FILE 1: 24930.9 MBYTE,  FILE 4: 64501.1 MBYTE,   TOTAL:  89432.0 MBYTE

 OPERATOR DM      FOR CENTER  0  COORDINATES:    0.000000    0.000000    0.000000


 **********************************************************************************************************************************
 DATASETS  * FILE   NREC   LENGTH (MB)   RECORD NAMES
              1      19    23757.53       500      610      700      900      950      970     1000      129      960     1100   
                                          VAR    BASINP    GEOM    SYMINP    ZMAT    AOBASIS   BASIS     P2S    ABASIS      S 
                                         1400     1410     1200     1210     1080     1600     1650     1300     1700   
                                           T        V       H0       H01     AOSYM     SMH    MOLCAS    ERIS     OPER   

 PROGRAMS   *        TOTAL       INT
 CPU TIMES  *       422.78    422.64
 REAL TIME  *      2405.61 SEC
 DISK USED  *        89.43 GB      
 **********************************************************************************************************************************

 Density functional group M08-HX=XC-M08-HX
 Functional: XC-M08-HX(via MFM 1.6)                                            Gradient terms: 1
 Use grid at  1800.2


 Exact exchange will be calculated, factor:  0.5223

 Functional: XC-M08-HX                 Factor:  1.0000

 Generated new metagrid on record  1800.2 with target accuracy 1.0D-06 and 55396 points in CPU time    1.6
 Computed new grid on record 1800.1 in CPU time    1.8
  370324 words reserved for DFT integration

 PROGRAM * RKS-SCF (Restricted closed shell Kohn-Sham)     Authors: W. Meyer, H.-J. Werner, P.J. Knowles, 1993

 NUMBER OF ELECTRONS:      21+   21-    SPACE SYMMETRY=1    SPIN SYMMETRY: Singlet 
 CONVERGENCE THRESHOLDS:    1.00E-05 (Density)    1.00E-06 (Energy)
 MAX. NUMBER OF ITERATIONS:       60
 INTERPOLATION TYPE:            DIIS
 INTERPOLATION STEPS:              2 (START)      1 (STEP)
 LEVEL SHIFTS:                  0.00 (CLOSED)  0.00 (OPEN) 



 Use fine grid record 1800.2 for energy threshold  1.0D-06
 Orbital guess generated from atomic densities. Full valence occupancy:   35

 Molecular orbital dump at record        2100.2

 Initial occupancy:  21

 ITERATION    DDIFF          GRAD             ENERGY        2-EL.EN.            DIPOLE MOMENTS         DIIS   ORB.
    1      0.000D+00      0.000D+00      -233.58731766    596.990970    0.70248   -0.81378    0.00000    0    start
    2      0.000D+00      0.372D-02      -233.60831825    577.547832    0.00701   -0.26811    0.00000    1    diag
    3      0.120D-01      0.363D-02      -233.70991073    587.889654    0.34648   -0.58459    0.00000    2    diag
    4      0.591D-02      0.465D-03      -233.71099726    587.382525    0.33471   -0.50425    0.00000    3    diag
    5      0.989D-03      0.226D-03      -233.71135868    587.342469    0.33564   -0.54818    0.00000    4    diag
    6      0.564D-03      0.418D-04      -233.71137079    587.422799    0.33514   -0.53945    0.00000    5    diag
    7      0.124D-03      0.170D-04      -233.71137312    587.395154    0.33489   -0.53933   -0.00000    6    diag
    8      0.290D-04      0.267D-05      -233.71137318    587.399008    0.33505   -0.54009    0.00000    7    diag
    9      0.874D-05      0.452D-06      -233.71137319    587.398456    0.33499   -0.53980    0.00000    0    orth

 Final occupancy:  21

 !RKS STATE 1.1 Energy               -233.711373185917
 Nuclear energy                       198.77359127
 One-electron energy                 -709.18195636
 Two-electron energy                  293.69922785
 SCF exchange energy                  -32.46937599     Factor= 0.5223
 Density functional                   -17.00223595     XC-M08-HX=-17.00223595
 Virial quotient                       -1.00757810
 !RKS STATE 1.1 Dipole moment           0.33498663    -0.53979810     0.00000000
 Dipole moment /Debye                   0.85139532    -1.37194005     0.00000000

 Orbital energies:

         1.1          2.1          3.1          4.1          5.1          6.1          7.1          8.1          9.1         10.1
    -19.604516   -10.592565   -10.519160   -10.519139   -10.514212    -1.136759    -0.893733    -0.789277    -0.788398    -0.654171

        11.1         12.1         13.1         14.1         15.1         16.1         17.1         18.1         19.1         20.1
     -0.567797    -0.527476    -0.524783    -0.484389    -0.467463    -0.446095    -0.433052    -0.425254    -0.417326    -0.386684

        21.1         22.1         23.1
     -0.348460    -0.031497    -0.011599

 HOMO     21.1    -0.348460 =      -9.4821eV
 LUMO     22.1    -0.031497 =      -0.8571eV
 LUMO-HOMO         0.316964 =       8.6250eV


 **********************************************************************************************************************************
 DATASETS  * FILE   NREC   LENGTH (MB)   RECORD NAMES
              1      20    23759.30       500      610      700      900      950      970     1000      129      960     1100   
                                          VAR    BASINP    GEOM    SYMINP    ZMAT    AOBASIS   BASIS     P2S    ABASIS      S 
                                         1400     1410     1200     1210     1080     1600     1650     1300     1700     1800   
                                           T        V       H0       H01     AOSYM     SMH    MOLCAS    ERIS     OPER     GRID   

              2       5        7.31       700     1000      520     1800     2100   
                                         GEOM     BASIS   MCVARS    GRID      RKS  

 PROGRAMS   *        TOTAL        KS       INT
 CPU TIMES  *      1620.53   1197.75    422.64
 REAL TIME  *      3703.16 SEC
 DISK USED  *        89.43 GB      
 **********************************************************************************************************************************


 PROGRAM * Intrinsic Basis Bonding Analysis (IBBA)          Author: G. Knizia

 Molecular orbitals read from record     2100.2  Type=RKS/CANONICAL (state 1.1)
 Fock matrix read from record            2100.2  Type=RKS/TOTAL (state 1.1)
 Orbital energies read from record       2100.2  Type=RKS/CANONICAL (state 1.1)
 Density matrix read from record         2100.2  Type=RKS/CHARGE (state 1.1)

 Number of core orbitals:           5 (   5 )
 Number of closed-shell orbitals:  16 (  16 )

 Basis set MINAO-AUTO-PP generated.      Number of basis functions:   35 

 Polarized AO type:                A = (O Ot + (1-O)(1-Ot)) P12
 Orthogonalization method:         Symmetric (Loewdin)
 Localization functional:          L = sum[A,i] <i|n_A|i>^4 -> max

 Localization group 1:  21 orbitals, occupancy  2.000
 Iterative localization: IB/PM,    7 iter; Final gradient 0.20E-08

 Bond order analysis:       [THRPRINT= 0.020]

   CEN ATOM   CEN ATOM     WIBERG.BO      RENORM.BO
     1   C  -   2   C       0.996356       0.993366
     1   C  -   5   H       0.964101       0.987777
     1   C  -   6   H       0.958794       0.982786
     1   C  -   7   H       0.958794       0.982786

     2   C  -   1   C       0.996356       0.993366
     2   C  -   9   C       0.995080       0.976884
     2   C  -   8   C       0.995080       0.976884
     2   C  -   3   O       0.934040       0.953293

     3   O  -   2   C       0.934040       0.953293
     3   O  -   4   H       0.861225       0.978327
     3   O  -   9   C       0.025473       0.013027
     3   O  -   8   C       0.025473       0.013027

     4   H  -   3   O       0.861225       0.978327

     5   H  -   1   C       0.964101       0.987777

     6   H  -   1   C       0.958794       0.982786

     7   H  -   1   C       0.958794       0.982786

     8   C  -   2   C       0.995080       0.976884
     8   C  -  14   H       0.963479       0.983408
     8   C  -  12   H       0.960227       0.983638
     8   C  -  10   H       0.959263       0.982663
     8   C  -   3   O       0.025473       0.013027

     9   C  -   2   C       0.995080       0.976884
     9   C  -  15   H       0.963479       0.983408
     9   C  -  13   H       0.960227       0.983638
     9   C  -  11   H       0.959263       0.982663
     9   C  -   3   O       0.025473       0.013027

    10   H  -   8   C       0.959263       0.982663

    11   H  -   9   C       0.959263       0.982663

    12   H  -   8   C       0.960227       0.983638

    13   H  -   9   C       0.960227       0.983638

    14   H  -   8   C       0.963479       0.983408

    15   H  -   9   C       0.963479       0.983408


 Valency analysis:

   CEN ATOM   TOT.VALENCE
     1   C       3.934433
     2   C       3.930316
     3   O       1.907639
     4   H       0.879216
     5   H       0.981684
     6   H       0.978437
     7   H       0.978437
     8   C       3.937093
     9   C       3.937093
    10   H       0.978436
    11   H       0.978436
    12   H       0.980465
    13   H       0.980465
    14   H       0.983043
    15   H       0.983043

 Total charge composition:

   CEN ATOM         s          p       ELECTRONS ->P.CHARGE
     1   C       3.04186    3.38029      6.42216   -0.42216
     2   C       2.93761    2.79846      5.73607    0.26393
     3   O       3.63696    4.94139      8.57835   -0.57835
     4   H       0.65246                 0.65246    0.34754
     5   H       0.86466                 0.86466    0.13534
     6   H       0.85316                 0.85316    0.14684
     7   H       0.85316                 0.85316    0.14684
     8   C       3.04773    3.38910      6.43683   -0.43683
     9   C       3.04773    3.38910      6.43683   -0.43683
    10   H       0.85315                 0.85315    0.14685
    11   H       0.85315                 0.85315    0.14685
    12   H       0.86023                 0.86023    0.13977
    13   H       0.86023                 0.86023    0.13977
    14   H       0.86978                 0.86978    0.13022
    15   H       0.86978                 0.86978    0.13022

 Total charge composition, AO contributions:

   CEN ATOM SHL      SPHERICAL COMPONENTS
     1   C  1s       1.99092
     1   C  2s       1.05095
     1   C  2p       1.04115    1.16241    1.17672

     2   C  1s       1.99256
     2   C  2s       0.94505
     2   C  2p       1.00670    0.78535    1.00641

     3   O  1s       1.99710
     3   O  2s       1.63986
     3   O  2p       1.48300    1.49807    1.96033

     4   H  1s       0.65246

     5   H  1s       0.86466

     6   H  1s       0.85316

     7   H  1s       0.85316

     8   C  1s       1.99102
     8   C  2s       1.05671
     8   C  2p       1.14514    1.14575    1.09822

     9   C  1s       1.99102
     9   C  2s       1.05671
     9   C  2p       1.14514    1.14575    1.09822

    10   H  1s       0.85315

    11   H  1s       0.85315

    12   H  1s       0.86023

    13   H  1s       0.86023

    14   H  1s       0.86978

    15   H  1s       0.86978

 Summary of localized orbital composition:   [THRPRINT= 0.020]

   ORB  GRP  ORB.ENERGY      CENTERS/CHARGES
     1   1   -19.439915      O  3   2.000
     2   1   -10.497621      C  2   2.000
     3   1   -10.400128      C  8   2.000
     4   1   -10.400128      C  9   2.000
     5   1   -10.394335      C  1   2.000
     6   1    -0.859224      O  3   1.349   H  4   0.642
     7   1    -0.813643      O  3   1.283   C  2   0.700
     8   1    -0.671236      O  3   1.983
     9   1    -0.657803      C  9   1.011   C  2   0.975
    10   1    -0.657803      C  8   1.011   C  2   0.975
    11   1    -0.657750      C  1   0.991   C  2   0.987   (other: 0.022)
    12   1    -0.581961      C  8   1.135   H 12   0.852
    13   1    -0.581961      C  9   1.135   H 13   0.852
    14   1    -0.579851      C  8   1.126   H 14   0.863
    15   1    -0.579851      C  9   1.126   H 15   0.863
    16   1    -0.577455      C  1   1.129   H  5   0.858
    17   1    -0.576570      C  8   1.145   H 10   0.845
    18   1    -0.576570      C  9   1.145   H 11   0.845
    19   1    -0.572187      C  1   1.144   H  6   0.846
    20   1    -0.572187      C  1   1.144   H  7   0.846
    21   1    -0.392531      O  3   1.960   (other: 0.040)

 Localized orbitals saved to record      2100.2  (orbital set 2)


 **********************************************************************************************************************************
 DATASETS  * FILE   NREC   LENGTH (MB)   RECORD NAMES
              1      20    23759.30       500      610      700      900      950      970     1000      129      960     1100   
                                          VAR    BASINP    GEOM    SYMINP    ZMAT    AOBASIS   BASIS     P2S    ABASIS      S 
                                         1400     1410     1200     1210     1080     1600     1650     1300     1700     1800   
                                           T        V       H0       H01     AOSYM     SMH    MOLCAS    ERIS     OPER     GRID   

              2       5        9.01       700     1000      520     1800     2100   
                                         GEOM     BASIS   MCVARS    GRID      RKS  

 PROGRAMS   *        TOTAL      IBBA        KS       INT
 CPU TIMES  *      1620.79      0.25   1197.75    422.64
 REAL TIME  *      3703.58 SEC
 DISK USED  *        89.43 GB      
 **********************************************************************************************************************************
 Molecular orbitals read from record     2100.2  Type=RKS/LOCAL(IBO)  
 Occupation numbers read from record     2100.2  Type=RKS/LOCAL(IBO)  
 Orbital energies read from record       2100.2  Type=RKS/LOCAL(IBO)  
 Redundancy group numbers read from rec  2100.2  Type=RKS/LOCAL(IBO)  

 IBBA/aug-cc-pVTZ energy=      0.000000000000

        KS-SCF  
   -233.71137319
 **********************************************************************************************************************************
 Molpro calculation terminated
