
 Primary working directories    : /tmp/sb13343
 Secondary working directories  : /tmp/sb13343
 Wavefunction directory         : /panfs/panasas01/chem/sb13343/wfu/
 Main file repository           : /tmp/sb13343/

 SHA1      : b4a5b34a9e711420743f49e6833241d17c61fb3c
 NAME      : 2099.9.b4a5b34
 ARCHNAME  : linux/x86_64_openmp
 FC        : /cm/shared/languages/GCC-6.1/bin/gfortran
 BLASLIB   : -lblas
 id        : simonbennie

 Nodes     nprocs
 node32-007    1

 Using customized tuning parameters: mindgm=1; mindgv=20; mindgc=4; mindgr=1; noblas=0; minvec=7
 default implementation of scratch files=df  

 memory,500,m
 geomtyp=xyz
 nosym
 noorient
 geometry={
 C         -1.53233        0.02247        0.00000
 C         -0.00192        0.01421        0.00000
 O          0.37239        1.40356        0.00000
 H          1.34248        1.44036        0.00000
 H         -1.92991       -0.99819        0.00000
 H         -1.90797        0.54382       -0.88653
 H         -1.90797        0.54382        0.88653
 C          0.54303       -0.66466       -1.26580
 C          0.54303       -0.66466        1.26580
 H          0.17836       -0.14752       -2.15943
 H          0.17836       -0.14752        2.15943
 H          0.23752       -1.71600       -1.32280
 H          0.23752       -1.71600        1.32280
 H          1.64084       -0.63767       -1.28032
 H          1.64084       -0.63767        1.28032
 }
 basis={ default,sto-3g }
 {ks,PBE,direct;wf,42,1,0}
 {ibba,bonds=1}

 Variables initialized (895), CPU time= 0.00 sec
 Commands  initialized (725), CPU time= 0.01 sec, 591 directives.
 Default parameters read. Elapsed time= 0.08 sec

 Checking input...
 Passed
1


                                         ***  PROGRAM SYSTEM MOLPRO  ***
                                       Copyright, TTI GmbH Stuttgart, 2015
                                    Version 2099.9 linked May 26 2017 16:03:21


 **********************************************************************************************************************************
 LABEL *                                                                                 
  64 bit serial version                                                                  DATE: 09-Jun-17          TIME: 03:21:51  
 **********************************************************************************************************************************

 SHA1:             b4a5b34a9e711420743f49e6833241d17c61fb3c
 **********************************************************************************************************************************
 SETTING GEOMTYP        =    XYZ

 Variable memory set to  500000000 words,  buffer space 

 ZSYMEL=NOSYM

 SETTING BASIS          =    STO-3G


 Recomputing integrals since basis changed


 Using spherical harmonics

 Library entry C      S STO-3G               selected for orbital group  1
 Library entry C      P STO-3G               selected for orbital group  1
 Library entry O      S STO-3G               selected for orbital group  2
 Library entry O      P STO-3G               selected for orbital group  2
 Library entry H      S STO-3G               selected for orbital group  3


 PROGRAM * SEWARD (Integral evaluation for generally contracted gaussian basis sets)     Author: Roland Lindh, 1990

 Geometry written to block  1 of record 700


 Point group  C1  



 ATOMIC COORDINATES

 NR  ATOM    CHARGE       X              Y              Z

   1  C       6.00   -2.895684032    0.042462146    0.000000000
   2  C       6.00   -0.003628274    0.026853008    0.000000000
   3  O       8.00    0.703715112    2.652343999    0.000000000
   4  H       1.00    2.536919528    2.721885921    0.000000000
   5  H       1.00   -3.647001345   -1.886305720    0.000000000
   6  H       1.00   -3.605540754    1.027670861   -1.675298901
   7  H       1.00   -3.605540754    1.027670861    1.675298901
   8  C       6.00    1.026177977   -1.256025366   -2.392015328
   9  C       6.00    1.026177977   -1.256025366    2.392015328
  10  H       1.00    0.337051552   -0.278772398   -4.080731285
  11  H       1.00    0.337051552   -0.278772398    4.080731285
  12  H       1.00    0.448847749   -3.242770030   -2.499729718
  13  H       1.00    0.448847749   -3.242770030    2.499729718
  14  H       1.00    3.100738214   -1.205021658   -2.419454152
  15  H       1.00    3.100738214   -1.205021658    2.419454152

 Bond lengths in Bohr (Angstrom)

 1-2  2.892097881  1-5  2.069933136  1-6  2.069096224  1-7  2.069096224  2-3  2.719106031
     ( 1.530432290)     ( 1.095361444)     ( 1.094918569)     ( 1.094918569)     ( 1.438888946)

  2- 8  2.903104402   2- 9  2.903104402   3- 4  1.834522965   8-10  2.069222119   8-12  2.071730422
       ( 1.536256691)       ( 1.536256691)       ( 0.970787746)       ( 1.094985190)       ( 1.096312526)

  8-14  2.075368508   9-11  2.069222119   9-13  2.071730422   9-15  2.075368508
       ( 1.098237719)       ( 1.094985190)       ( 1.096312526)       ( 1.098237719)

 Bond angles

  1-2-3  104.76902697   1-2-8  110.92255387   1-2-9  110.92255387   2-1-5  110.97328220

  2- 1- 6  110.22090701   2- 1- 7  110.22090701   2- 3- 4  107.25071562   2- 8-10  110.21836376

  2- 8-12  111.57747468   2- 8-14  110.77023896   2- 9-11  110.21836376   2- 9-13  111.57747468

  2- 9-15  110.77023896   3- 2- 8  109.53648747   3- 2- 9  109.53648747   5- 1- 6  108.61190457

  5- 1- 7  108.61190457   6- 1- 7  108.12870271   8- 2- 9  110.96453384  10- 8-12  108.52192632

 10- 8-14  108.08997829  11- 9-13  108.52192632  11- 9-15  108.08997829  12- 8-14  107.54424578

 13- 9-15  107.54424578

 NUCLEAR CHARGE:                   42
 NUMBER OF PRIMITIVE AOS:         105
 NUMBER OF SYMMETRY AOS:          105
 NUMBER OF CONTRACTIONS:           35   (  35A   )
 NUMBER OF CORE ORBITALS:           5   (   5A   )
 NUMBER OF VALENCE ORBITALS:       30   (  30A   )


 NUCLEAR REPULSION ENERGY  198.77359127


 Eigenvalues of metric

         1 0.207E+00 0.227E+00 0.228E+00 0.304E+00 0.354E+00 0.360E+00 0.361E+00 0.363E+00


 Contracted 2-electron integrals neglected if value below      1.0D-11
 AO integral compression algorithm  1   Integral accuracy      1.0D-11

     1.573 MB (compressed) written to integral file ( 87.8%)


 NUMBER OF SORTED TWO-ELECTRON INTEGRALS:     198765.     BUFFER LENGTH:  32768
 NUMBER OF SEGMENTS:   1  SEGMENT LENGTH:     198765      RECORD LENGTH: 524288

 Memory used in sort:       0.76 MW

 SORT1 READ      224962. AND WROTE      188577. INTEGRALS IN      1 RECORDS. CPU TIME:     0.00 SEC, REAL TIME:     0.00 SEC
 SORT2 READ      188577. AND WROTE      198765. INTEGRALS IN      6 RECORDS. CPU TIME:     0.02 SEC, REAL TIME:     0.02 SEC

 FILE SIZES:   FILE 1:    31.8 MBYTE,  FILE 4:     4.2 MBYTE,   TOTAL:     36.0 MBYTE

 OPERATOR DM      FOR CENTER  0  COORDINATES:    0.000000    0.000000    0.000000


 **********************************************************************************************************************************
 DATASETS  * FILE   NREC   LENGTH (MB)   RECORD NAMES
              1      19       31.10       500      610      700      900      950      970     1000      129      960     1100   
                                          VAR    BASINP    GEOM    SYMINP    ZMAT    AOBASIS   BASIS     P2S    ABASIS      S 
                                         1400     1410     1200     1210     1080     1600     1650     1300     1700   
                                           T        V       H0       H01     AOSYM     SMH    MOLCAS    ERIS     OPER   

 PROGRAMS   *        TOTAL       INT
 CPU TIMES  *         0.61      0.47
 REAL TIME  *         0.95 SEC
 DISK USED  *        36.55 MB      
 **********************************************************************************************************************************

 Density functional group PBE=PBEX+PBEC
 Functional: PBEX(Automatically generated (new) PBEX)                          Gradient terms: 1
 Functional: PBEC(Automatically generated (new) PBEC)                          Gradient terms: 1
 Use grid at  1800.2

 Functional: PBEX                      Factor:  1.0000
 Functional: PBEC                      Factor:  1.0000

 Generated new metagrid on record  1800.2 with target accuracy 1.0D-06 and 53396 points in CPU time    1.7
 Computed new grid on record 1800.1 in CPU time    1.9
   32369 words reserved for DFT integration

 PROGRAM * RKS-SCF (Restricted closed shell Kohn-Sham)     Authors: W. Meyer, H.-J. Werner, P.J. Knowles, 1993

 NUMBER OF ELECTRONS:      21+   21-    SPACE SYMMETRY=1    SPIN SYMMETRY: Singlet 
 CONVERGENCE THRESHOLDS:    1.00E-05 (Density)    1.00E-06 (Energy)
 MAX. NUMBER OF ITERATIONS:       60
 INTERPOLATION TYPE:            DIIS
 INTERPOLATION STEPS:              2 (START)      1 (STEP)
 LEVEL SHIFTS:                  0.00 (CLOSED)  0.00 (OPEN) 



 Use fine grid record 1800.2 for energy threshold  1.0D-06
 Orbital guess generated from atomic densities. Full valence occupancy:   21

 Molecular orbital dump at record        2100.2

 Initial occupancy:  21

 ITERATION    DDIFF          GRAD             ENERGY        2-EL.EN.            DIPOLE MOMENTS         DIIS   ORB.
    1      0.000D+00      0.000D+00      -230.06066039    640.455592    0.76943   -1.05187    0.00000    0    start
    2      0.000D+00      0.296D-01      -230.06985136    608.757038   -0.31202    0.22012    0.00000    1    diag
    3      0.105D+00      0.294D-01      -230.41551017    623.962607    0.37641   -0.31373    0.00000    2    diag
    4      0.545D-01      0.120D-02      -230.41598281    623.956560    0.32168   -0.37739    0.00000    3    diag
    5      0.304D-02      0.582D-03      -230.41610582    623.892381    0.31841   -0.35802    0.00000    4    diag
    6      0.106D-02      0.620D-04      -230.41610762    623.889804    0.32371   -0.35679    0.00000    5    diag
    7      0.160D-03      0.158D-04      -230.41610771    623.889092    0.32320   -0.35740    0.00000    6    diag
    8      0.324D-04      0.510D-05      -230.41610772    623.889115    0.32301   -0.35723    0.00000    7    diag
    9      0.876D-05      0.837D-06      -230.41610772    623.889138    0.32307   -0.35730    0.00000    0    orth

 Final occupancy:  21

 !RKS STATE 1.1 Energy               -230.416107717118
 Nuclear energy                       198.77359127
 One-electron energy                 -707.31013970
 Two-electron energy                  311.94456887
 Density functional                   -33.82412817     PBEX=-32.41339788 PBEC= -1.41073029
 Virial quotient                       -1.01438145
 !RKS STATE 1.1 Dipole moment           0.32307340    -0.35730368     0.00000000
 Dipole moment /Debye                   0.82111690    -0.90811589     0.00000000

 Orbital energies:

         1.1          2.1          3.1          4.1          5.1          6.1          7.1          8.1          9.1         10.1
    -18.461919    -9.764241    -9.702149    -9.702060    -9.701959    -0.855211    -0.665742    -0.583488    -0.582545    -0.455348

        11.1         12.1         13.1         14.1         15.1         16.1         17.1         18.1         19.1         20.1
     -0.381699    -0.353478    -0.352892    -0.311517    -0.306764    -0.283884    -0.282093    -0.251817    -0.248854    -0.148795

        21.1         22.1         23.1
     -0.061220     0.256399     0.316890

 HOMO     21.1    -0.061220 =      -1.6659eV
 LUMO     22.1     0.256399 =       6.9770eV
 LUMO-HOMO         0.317619 =       8.6429eV


 **********************************************************************************************************************************
 DATASETS  * FILE   NREC   LENGTH (MB)   RECORD NAMES
              1      20       32.81       500      610      700      900      950      970     1000      129      960     1100   
                                          VAR    BASINP    GEOM    SYMINP    ZMAT    AOBASIS   BASIS     P2S    ABASIS      S 
                                         1400     1410     1200     1210     1080     1600     1650     1300     1700     1800   
                                           T        V       H0       H01     AOSYM     SMH    MOLCAS    ERIS     OPER     GRID   

              2       5        3.02       700     1000      520     1800     2100   
                                         GEOM     BASIS   MCVARS    GRID      RKS  

 PROGRAMS   *        TOTAL        KS       INT
 CPU TIMES  *         5.23      4.62      0.47
 REAL TIME  *         5.95 SEC
 DISK USED  *        36.55 MB      
 **********************************************************************************************************************************


 PROGRAM * Intrinsic Basis Bonding Analysis (IBBA)          Author: G. Knizia

 Molecular orbitals read from record     2100.2  Type=RKS/CANONICAL (state 1.1)
 Fock matrix read from record            2100.2  Type=RKS/TOTAL (state 1.1)
 Orbital energies read from record       2100.2  Type=RKS/CANONICAL (state 1.1)
 Density matrix read from record         2100.2  Type=RKS/CHARGE (state 1.1)

 Number of core orbitals:           5 (   5 )
 Number of closed-shell orbitals:  16 (  16 )

 Basis set MINAO-AUTO-PP generated.      Number of basis functions:   35 

 Polarized AO type:                A = (O Ot + (1-O)(1-Ot)) P12
 Orthogonalization method:         Symmetric (Loewdin)
 Localization functional:          L = sum[A,i] <i|n_A|i>^4 -> max

 Localization group 1:  21 orbitals, occupancy  2.000
 Iterative localization: IB/PM,    7 iter; Final gradient 0.17E-08

 Bond order analysis:       [THRPRINT= 0.020]

   CEN ATOM   CEN ATOM     WIBERG.BO      RENORM.BO
     1   C  -   2   C       0.990084       0.984667
     1   C  -   5   H       0.965283       0.989678
     1   C  -   6   H       0.961893       0.986590
     1   C  -   7   H       0.961893       0.986590

     2   C  -   3   O       1.005438       0.980509
     2   C  -   1   C       0.990084       0.984667
     2   C  -   8   C       0.984888       0.957503
     2   C  -   9   C       0.984888       0.957503

     3   O  -   2   C       1.005438       0.980509
     3   O  -   4   H       0.929104       0.980957
     3   O  -   9   C       0.030421       0.015770
     3   O  -   8   C       0.030421       0.015770

     4   H  -   3   O       0.929104       0.980957

     5   H  -   1   C       0.965283       0.989678

     6   H  -   1   C       0.961893       0.986590

     7   H  -   1   C       0.961893       0.986590

     8   C  -   2   C       0.984888       0.957503
     8   C  -  14   H       0.964727       0.985771
     8   C  -  12   H       0.962961       0.986754
     8   C  -  10   H       0.962784       0.986266
     8   C  -   3   O       0.030421       0.015770

     9   C  -   2   C       0.984888       0.957503
     9   C  -  15   H       0.964727       0.985771
     9   C  -  13   H       0.962961       0.986754
     9   C  -  11   H       0.962784       0.986266
     9   C  -   3   O       0.030421       0.015770

    10   H  -   8   C       0.962784       0.986266

    11   H  -   9   C       0.962784       0.986266

    12   H  -   8   C       0.962961       0.986754

    13   H  -   9   C       0.962961       0.986754

    14   H  -   8   C       0.964727       0.985771

    15   H  -   9   C       0.964727       0.985771


 Valency analysis:

   CEN ATOM   TOT.VALENCE
     1   C       3.931387
     2   C       3.975068
     3   O       2.048834
     4   H       0.947328
     5   H       0.982060
     6   H       0.980539
     7   H       0.980539
     8   C       3.934268
     9   C       3.934268
    10   H       0.981179
    11   H       0.981179
    12   H       0.981693
    13   H       0.981693
    14   H       0.983590
    15   H       0.983590

 Total charge composition:

   CEN ATOM         s          p       ELECTRONS ->P.CHARGE
     1   C       3.00073    3.40080      6.40153   -0.40153
     2   C       2.94684    2.94001      5.88686    0.11314
     3   O       3.68645    4.63912      8.32557   -0.32557
     4   H       0.77050                 0.77050    0.22950
     5   H       0.86606                 0.86606    0.13394
     6   H       0.86050                 0.86050    0.13950
     7   H       0.86050                 0.86050    0.13950
     8   C       3.00598    3.40886      6.41484   -0.41484
     9   C       3.00598    3.40886      6.41484   -0.41484
    10   H       0.86281                 0.86281    0.13719
    11   H       0.86281                 0.86281    0.13719
    12   H       0.86470                 0.86470    0.13530
    13   H       0.86470                 0.86470    0.13530
    14   H       0.87190                 0.87190    0.12810
    15   H       0.87190                 0.87190    0.12810

 Total charge composition, AO contributions:

   CEN ATOM SHL      SPHERICAL COMPONENTS
     1   C  1s       1.99208
     1   C  2s       1.00865
     1   C  2p       1.05247    1.17036    1.17797

     2   C  1s       1.99347
     2   C  2s       0.95337
     2   C  2p       1.03070    0.88043    1.02888

     3   O  1s       1.99738
     3   O  2s       1.68906
     3   O  2p       1.34808    1.34092    1.95012

     4   H  1s       0.77050

     5   H  1s       0.86606

     6   H  1s       0.86050

     7   H  1s       0.86050

     8   C  1s       1.99218
     8   C  2s       1.01380
     8   C  2p       1.15235    1.15313    1.10338

     9   C  1s       1.99218
     9   C  2s       1.01380
     9   C  2p       1.15235    1.15313    1.10338

    10   H  1s       0.86281

    11   H  1s       0.86281

    12   H  1s       0.86470

    13   H  1s       0.86470

    14   H  1s       0.87190

    15   H  1s       0.87190

 Summary of localized orbital composition:   [THRPRINT= 0.020]

   ORB  GRP  ORB.ENERGY      CENTERS/CHARGES
     1   1   -18.293310      O  3   2.000
     2   1    -9.673359      C  2   2.000
     3   1    -9.593188      C  9   2.000
     4   1    -9.593188      C  8   2.000
     5   1    -9.592428      C  1   2.000
     6   1    -0.590780      O  3   1.228   H  4   0.762
     7   1    -0.546811      O  3   1.157   C  2   0.826
     8   1    -0.465146      C  2   0.993   C  1   0.983   (other: 0.023)
     9   1    -0.464631      C  9   0.998   C  2   0.987
    10   1    -0.464631      C  8   0.998   C  2   0.987
    11   1    -0.423216      O  3   1.985
    12   1    -0.412443      C  9   1.125   H 15   0.865
    13   1    -0.412443      C  8   1.125   H 14   0.865
    14   1    -0.410752      C  8   1.133   H 12   0.857
    15   1    -0.410752      C  9   1.133   H 13   0.857
    16   1    -0.409363      C  1   1.130   H  5   0.859
    17   1    -0.407920      C  8   1.135   H 10   0.856
    18   1    -0.407920      C  9   1.135   H 11   0.856
    19   1    -0.403571      C  1   1.137   H  7   0.853
    20   1    -0.403571      C  1   1.137   H  6   0.853
    21   1    -0.078248      O  3   1.950   C  2   0.023   (other: 0.027)

 Localized orbitals saved to record      2100.2  (orbital set 2)


 **********************************************************************************************************************************
 DATASETS  * FILE   NREC   LENGTH (MB)   RECORD NAMES
              1      20       32.81       500      610      700      900      950      970     1000      129      960     1100   
                                          VAR    BASINP    GEOM    SYMINP    ZMAT    AOBASIS   BASIS     P2S    ABASIS      S 
                                         1400     1410     1200     1210     1080     1600     1650     1300     1700     1800   
                                           T        V       H0       H01     AOSYM     SMH    MOLCAS    ERIS     OPER     GRID   

              2       5        3.03       700     1000      520     1800     2100   
                                         GEOM     BASIS   MCVARS    GRID      RKS  

 PROGRAMS   *        TOTAL      IBBA        KS       INT
 CPU TIMES  *         5.26      0.03      4.62      0.47
 REAL TIME  *         6.07 SEC
 DISK USED  *        36.55 MB      
 **********************************************************************************************************************************
 Molecular orbitals read from record     2100.2  Type=RKS/LOCAL(IBO)  
 Occupation numbers read from record     2100.2  Type=RKS/LOCAL(IBO)  
 Orbital energies read from record       2100.2  Type=RKS/LOCAL(IBO)  
 Redundancy group numbers read from rec  2100.2  Type=RKS/LOCAL(IBO)  

 IBBA/STO-3G energy=      0.000000000000

        KS-SCF  
   -230.41610772
 **********************************************************************************************************************************
 Molpro calculation terminated
