
 Primary working directories    : /tmp/sb13343
 Secondary working directories  : /tmp/sb13343
 Wavefunction directory         : /panfs/panasas01/chem/sb13343/wfu/
 Main file repository           : /tmp/sb13343/

 SHA1      : b4a5b34a9e711420743f49e6833241d17c61fb3c
 NAME      : 2099.9.b4a5b34
 ARCHNAME  : linux/x86_64_openmp
 FC        : /cm/shared/languages/GCC-6.1/bin/gfortran
 BLASLIB   : -lblas
 id        : simonbennie

 Nodes     nprocs
 node32-007    1

 Using customized tuning parameters: mindgm=1; mindgv=20; mindgc=4; mindgr=1; noblas=0; minvec=7
 default implementation of scratch files=df  

 memory,500,m
 geomtyp=xyz
 nosym
 noorient
 geometry={
 C         -1.53233        0.02247        0.00000
 C         -0.00192        0.01421        0.00000
 O          0.37239        1.40356        0.00000
 H          1.34248        1.44036        0.00000
 H         -1.92991       -0.99819        0.00000
 H         -1.90797        0.54382       -0.88653
 H         -1.90797        0.54382        0.88653
 C          0.54303       -0.66466       -1.26580
 C          0.54303       -0.66466        1.26580
 H          0.17836       -0.14752       -2.15943
 H          0.17836       -0.14752        2.15943
 H          0.23752       -1.71600       -1.32280
 H          0.23752       -1.71600        1.32280
 H          1.64084       -0.63767       -1.28032
 H          1.64084       -0.63767        1.28032
 }
 basis={ default,sto-3g }
 {uks,PW91,direct;wf,42,1,0}
 {ibba,bonds=1}

 Variables initialized (895), CPU time= 0.00 sec
 Commands  initialized (725), CPU time= 0.02 sec, 591 directives.
 Default parameters read. Elapsed time= 0.09 sec

 Checking input...
 Passed
1


                                         ***  PROGRAM SYSTEM MOLPRO  ***
                                       Copyright, TTI GmbH Stuttgart, 2015
                                    Version 2099.9 linked May 26 2017 16:03:21


 **********************************************************************************************************************************
 LABEL *                                                                                 
  64 bit serial version                                                                  DATE: 09-Jun-17          TIME: 03:22:23  
 **********************************************************************************************************************************

 SHA1:             b4a5b34a9e711420743f49e6833241d17c61fb3c
 **********************************************************************************************************************************
 SETTING GEOMTYP        =    XYZ

 Variable memory set to  500000000 words,  buffer space 

 ZSYMEL=NOSYM

 SETTING BASIS          =    STO-3G


 Recomputing integrals since basis changed


 Using spherical harmonics

 Library entry C      S STO-3G               selected for orbital group  1
 Library entry C      P STO-3G               selected for orbital group  1
 Library entry O      S STO-3G               selected for orbital group  2
 Library entry O      P STO-3G               selected for orbital group  2
 Library entry H      S STO-3G               selected for orbital group  3


 PROGRAM * SEWARD (Integral evaluation for generally contracted gaussian basis sets)     Author: Roland Lindh, 1990

 Geometry written to block  1 of record 700


 Point group  C1  



 ATOMIC COORDINATES

 NR  ATOM    CHARGE       X              Y              Z

   1  C       6.00   -2.895684032    0.042462146    0.000000000
   2  C       6.00   -0.003628274    0.026853008    0.000000000
   3  O       8.00    0.703715112    2.652343999    0.000000000
   4  H       1.00    2.536919528    2.721885921    0.000000000
   5  H       1.00   -3.647001345   -1.886305720    0.000000000
   6  H       1.00   -3.605540754    1.027670861   -1.675298901
   7  H       1.00   -3.605540754    1.027670861    1.675298901
   8  C       6.00    1.026177977   -1.256025366   -2.392015328
   9  C       6.00    1.026177977   -1.256025366    2.392015328
  10  H       1.00    0.337051552   -0.278772398   -4.080731285
  11  H       1.00    0.337051552   -0.278772398    4.080731285
  12  H       1.00    0.448847749   -3.242770030   -2.499729718
  13  H       1.00    0.448847749   -3.242770030    2.499729718
  14  H       1.00    3.100738214   -1.205021658   -2.419454152
  15  H       1.00    3.100738214   -1.205021658    2.419454152

 Bond lengths in Bohr (Angstrom)

 1-2  2.892097881  1-5  2.069933136  1-6  2.069096224  1-7  2.069096224  2-3  2.719106031
     ( 1.530432290)     ( 1.095361444)     ( 1.094918569)     ( 1.094918569)     ( 1.438888946)

  2- 8  2.903104402   2- 9  2.903104402   3- 4  1.834522965   8-10  2.069222119   8-12  2.071730422
       ( 1.536256691)       ( 1.536256691)       ( 0.970787746)       ( 1.094985190)       ( 1.096312526)

  8-14  2.075368508   9-11  2.069222119   9-13  2.071730422   9-15  2.075368508
       ( 1.098237719)       ( 1.094985190)       ( 1.096312526)       ( 1.098237719)

 Bond angles

  1-2-3  104.76902697   1-2-8  110.92255387   1-2-9  110.92255387   2-1-5  110.97328220

  2- 1- 6  110.22090701   2- 1- 7  110.22090701   2- 3- 4  107.25071562   2- 8-10  110.21836376

  2- 8-12  111.57747468   2- 8-14  110.77023896   2- 9-11  110.21836376   2- 9-13  111.57747468

  2- 9-15  110.77023896   3- 2- 8  109.53648747   3- 2- 9  109.53648747   5- 1- 6  108.61190457

  5- 1- 7  108.61190457   6- 1- 7  108.12870271   8- 2- 9  110.96453384  10- 8-12  108.52192632

 10- 8-14  108.08997829  11- 9-13  108.52192632  11- 9-15  108.08997829  12- 8-14  107.54424578

 13- 9-15  107.54424578

 NUCLEAR CHARGE:                   42
 NUMBER OF PRIMITIVE AOS:         105
 NUMBER OF SYMMETRY AOS:          105
 NUMBER OF CONTRACTIONS:           35   (  35A   )
 NUMBER OF CORE ORBITALS:           5   (   5A   )
 NUMBER OF VALENCE ORBITALS:       30   (  30A   )


 NUCLEAR REPULSION ENERGY  198.77359127


 Eigenvalues of metric

         1 0.207E+00 0.227E+00 0.228E+00 0.304E+00 0.354E+00 0.360E+00 0.361E+00 0.363E+00


 Contracted 2-electron integrals neglected if value below      1.0D-11
 AO integral compression algorithm  1   Integral accuracy      1.0D-11

     1.573 MB (compressed) written to integral file ( 87.8%)


 NUMBER OF SORTED TWO-ELECTRON INTEGRALS:     198765.     BUFFER LENGTH:  32768
 NUMBER OF SEGMENTS:   1  SEGMENT LENGTH:     198765      RECORD LENGTH: 524288

 Memory used in sort:       0.76 MW

 SORT1 READ      224962. AND WROTE      188577. INTEGRALS IN      1 RECORDS. CPU TIME:     0.00 SEC, REAL TIME:     0.01 SEC
 SORT2 READ      188577. AND WROTE      198765. INTEGRALS IN      6 RECORDS. CPU TIME:     0.02 SEC, REAL TIME:     0.02 SEC

 FILE SIZES:   FILE 1:    31.8 MBYTE,  FILE 4:     4.2 MBYTE,   TOTAL:     36.0 MBYTE

 OPERATOR DM      FOR CENTER  0  COORDINATES:    0.000000    0.000000    0.000000


 **********************************************************************************************************************************
 DATASETS  * FILE   NREC   LENGTH (MB)   RECORD NAMES
              1      19       31.10       500      610      700      900      950      970     1000      129      960     1100   
                                          VAR    BASINP    GEOM    SYMINP    ZMAT    AOBASIS   BASIS     P2S    ABASIS      S 
                                         1400     1410     1200     1210     1080     1600     1650     1300     1700   
                                           T        V       H0       H01     AOSYM     SMH    MOLCAS    ERIS     OPER   

 PROGRAMS   *        TOTAL       INT
 CPU TIMES  *         0.60      0.46
 REAL TIME  *         0.94 SEC
 DISK USED  *        36.55 MB      
 **********************************************************************************************************************************

 Density functional group PW91=PW91X+PW91C
 Functional: PW91X(Automatically generated (new) PW91X)                        Gradient terms: 1
 Functional: PW91C(Automatically generated (new) PW91C)                        Gradient terms: 1
 Use grid at  1800.2

 Functional: PW91X                     Factor:  1.0000
 Functional: PW91C                     Factor:  1.0000

 Generated new metagrid on record  1800.2 with target accuracy 1.0D-06 and 53396 points in CPU time    1.7
 Computed new grid on record 1800.1 in CPU time    1.9
   32369 words reserved for DFT integration

 PROGRAM * UKS-SCF (Unrestricted Kohn-Sham)     Authors: W. Meyer, H.-J. Werner, P.J. Knowles, 1993

 NUMBER OF ELECTRONS:      21+   21-    SPACE SYMMETRY=1    SPIN SYMMETRY: Singlet 
 CONVERGENCE THRESHOLDS:    1.00E-05 (Density)    1.00E-06 (Energy)
 MAX. NUMBER OF ITERATIONS:       60
 INTERPOLATION TYPE:            DIIS
 INTERPOLATION STEPS:              2 (START)      1 (STEP)
 LEVEL SHIFTS:                 -0.20 (ALPHA)  -0.20 (BETA) 



 Use fine grid record 1800.2 for energy threshold  1.0D-06
 Orbital guess generated from atomic densities. Full valence occupancy:   21

 Molecular orbital dump at record        2200.2

 Initial alpha occupation  21
 Initial beta  occupation  21

 ITERATION    DDIFF          GRAD             ENERGY        2-EL.EN.            DIPOLE MOMENTS         DIIS
    1      0.000D+00      0.000D+00      -230.25449165    640.526386    0.77102   -1.06030    0.00000    0
    2      0.628D-01      0.202D-01      -230.59611750    620.916405    0.22528   -0.32878    0.00000    1
    3      0.112D-01      0.449D-02      -230.61132193    623.941440    0.31536   -0.35739    0.00000    2
    4      0.106D-02      0.438D-03      -230.61151595    623.903117    0.32320   -0.36829    0.00000    3
    5      0.543D-03      0.138D-03      -230.61154686    623.896254    0.32299   -0.36050    0.00000    4
    6      0.156D-03      0.335D-04      -230.61154910    623.894489    0.32336   -0.36030    0.00000    5
    7      0.365D-04      0.857D-05      -230.61154916    623.895327    0.32306   -0.35988    0.00000    5
    8      0.134D-04      0.565D-05      -230.61154918    623.894711    0.32312   -0.36002    0.00000    6
    9      0.185D-05      0.409D-06      -230.61154918    623.894786    0.32313   -0.36001    0.00000    6
   10      0.627D-06      0.207D-06      -230.61154918    623.894751    0.32312   -0.36001    0.00000    6

 Final alpha occupancy:  21
 Final beta  occupancy:  21

 !UKS STATE 1.1 Energy               -230.611549182964
 Nuclear energy                       198.77359127
 One-electron energy                 -707.31208911
 Two-electron energy                  311.94737549
 Density functional                   -34.02042683     PW91X=-32.52482779 PW91C= -1.49559904
 Virial quotient                       -1.01520441
 !UKS STATE 1.1 Dipole moment           0.32312352    -0.36000948     0.00000000
 Dipole moment /Debye                   0.82124427    -0.91499289     0.00000000

 Orbital energies for positive spin:

         1.1          2.1          3.1          4.1          5.1          6.1          7.1          8.1          9.1         10.1
    -18.481727    -9.780436    -9.718215    -9.718144    -9.718042    -0.857413    -0.667980    -0.585881    -0.584923    -0.457748

        11.1         12.1         13.1         14.1         15.1         16.1         17.1         18.1         19.1         20.1
     -0.384139    -0.356076    -0.355512    -0.314316    -0.309599    -0.286675    -0.284985    -0.254707    -0.251699    -0.151757

        21.1         22.1         23.1
     -0.065151     0.252807     0.313119

 Orbital energies for negative spin:

         1.1          2.1          3.1          4.1          5.1          6.1          7.1          8.1          9.1         10.1
    -18.481727    -9.780436    -9.718215    -9.718144    -9.718042    -0.857413    -0.667980    -0.585881    -0.584923    -0.457748

        11.1         12.1         13.1         14.1         15.1         16.1         17.1         18.1         19.1         20.1
     -0.384139    -0.356076    -0.355512    -0.314316    -0.309599    -0.286675    -0.284985    -0.254707    -0.251699    -0.151757

        21.1         22.1         23.1
     -0.065151     0.252807     0.313119

 HOMO     21.1    -0.065151 =      -1.7728eV
 LUMO     22.1     0.252807 =       6.8792eV
 LUMO-HOMO         0.317958 =       8.6521eV

 EXPECTATION VALUE OF S**2:            -0.00000000

 Natural orbitals saved to record    2200.2 (Orbital set 3)

 Orbital spaces for UNO-CAS (Min. occupation: 0.020  Max. occupation: 1.980):

 Closed:       21
 Active:        0


 **********************************************************************************************************************************
 DATASETS  * FILE   NREC   LENGTH (MB)   RECORD NAMES
              1      20       32.81       500      610      700      900      950      970     1000      129      960     1100   
                                          VAR    BASINP    GEOM    SYMINP    ZMAT    AOBASIS   BASIS     P2S    ABASIS      S 
                                         1400     1410     1200     1210     1080     1600     1650     1300     1700     1800   
                                           T        V       H0       H01     AOSYM     SMH    MOLCAS    ERIS     OPER     GRID   

              2       5        3.05       700     1000      520     1800     2200   
                                         GEOM     BASIS   MCVARS    GRID      UKS  

 PROGRAMS   *        TOTAL       UKS       INT
 CPU TIMES  *         6.92      6.32      0.46
 REAL TIME  *         7.51 SEC
 DISK USED  *        36.55 MB      
 **********************************************************************************************************************************


 PROGRAM * Intrinsic Basis Bonding Analysis (IBBA)          Author: G. Knizia

 Molecular orbitals read from record     2200.2  Type=UKS/ALPHA (state 1.1)
 Fock matrix read from record            2200.2  Type=UKS/TOTAL (state 1.1)
 Orbital energies read from record       2200.2  Type=UKS/ALPHA (state 1.1)
 Density matrix read from record         2200.2  Type=UKS/CHARGE (state 1.1)

 Number of core orbitals:           5 (   5 )
 Number of closed-shell orbitals:  16 (  16 )

 Basis set MINAO-AUTO-PP generated.      Number of basis functions:   35 

 Polarized AO type:                A = (O Ot + (1-O)(1-Ot)) P12
 Orthogonalization method:         Symmetric (Loewdin)
 Localization functional:          L = sum[A,i] <i|n_A|i>^4 -> max

 Localization group 1:  21 orbitals, occupancy  2.000
 Iterative localization: IB/PM,    7 iter; Final gradient 0.16E-08

 Bond order analysis:       [THRPRINT= 0.020]

   CEN ATOM   CEN ATOM     WIBERG.BO      RENORM.BO
     1   C  -   2   C       0.990068       0.984692
     1   C  -   5   H       0.965355       0.989703
     1   C  -   6   H       0.961953       0.986632
     1   C  -   7   H       0.961953       0.986632

     2   C  -   3   O       1.004957       0.980531
     2   C  -   1   C       0.990068       0.984692
     2   C  -   8   C       0.984959       0.957707
     2   C  -   9   C       0.984959       0.957707

     3   O  -   2   C       1.004957       0.980531
     3   O  -   4   H       0.928880       0.980984
     3   O  -   9   C       0.030300       0.015706
     3   O  -   8   C       0.030300       0.015706

     4   H  -   3   O       0.928880       0.980984

     5   H  -   1   C       0.965355       0.989703

     6   H  -   1   C       0.961953       0.986632

     7   H  -   1   C       0.961953       0.986632

     8   C  -   2   C       0.984959       0.957707
     8   C  -  14   H       0.964799       0.985811
     8   C  -  12   H       0.963035       0.986806
     8   C  -  10   H       0.962843       0.986308
     8   C  -   3   O       0.030300       0.015706

     9   C  -   2   C       0.984959       0.957707
     9   C  -  15   H       0.964799       0.985811
     9   C  -  13   H       0.963035       0.986806
     9   C  -  11   H       0.962843       0.986308
     9   C  -   3   O       0.030300       0.015706

    10   H  -   8   C       0.962843       0.986308

    11   H  -   9   C       0.962843       0.986308

    12   H  -   8   C       0.963035       0.986806

    13   H  -   9   C       0.963035       0.986806

    14   H  -   8   C       0.964799       0.985811

    15   H  -   9   C       0.964799       0.985811


 Valency analysis:

   CEN ATOM   TOT.VALENCE
     1   C       3.931447
     2   C       3.974714
     3   O       2.047721
     4   H       0.947085
     5   H       0.982095
     6   H       0.980560
     7   H       0.980560
     8   C       3.934336
     9   C       3.934336
    10   H       0.981199
    11   H       0.981199
    12   H       0.981721
    13   H       0.981721
    14   H       0.983619
    15   H       0.983619

 Total charge composition:

   CEN ATOM         s          p       ELECTRONS ->P.CHARGE
     1   C       3.00062    3.40050      6.40112   -0.40112
     2   C       2.94674    2.93904      5.88578    0.11422
     3   O       3.68650    4.64100      8.32750   -0.32750
     4   H       0.76997                 0.76997    0.23003
     5   H       0.86619                 0.86619    0.13381
     6   H       0.86057                 0.86057    0.13943
     7   H       0.86057                 0.86057    0.13943
     8   C       3.00586    3.40859      6.41445   -0.41445
     9   C       3.00586    3.40859      6.41445   -0.41445
    10   H       0.86288                 0.86288    0.13712
    11   H       0.86288                 0.86288    0.13712
    12   H       0.86480                 0.86480    0.13520
    13   H       0.86480                 0.86480    0.13520
    14   H       0.87201                 0.87201    0.12799
    15   H       0.87201                 0.87201    0.12799

 Total charge composition, AO contributions:

   CEN ATOM SHL      SPHERICAL COMPONENTS
     1   C  1s       1.99206
     1   C  2s       1.00856
     1   C  2p       1.05227    1.17026    1.17796

     2   C  1s       1.99345
     2   C  2s       0.95329
     2   C  2p       1.03078    0.87947    1.02879

     3   O  1s       1.99738
     3   O  2s       1.68913
     3   O  2p       1.34860    1.34202    1.95038

     4   H  1s       0.76997

     5   H  1s       0.86619

     6   H  1s       0.86057

     7   H  1s       0.86057

     8   C  1s       1.99216
     8   C  2s       1.01370
     8   C  2p       1.15227    1.15304    1.10329

     9   C  1s       1.99216
     9   C  2s       1.01370
     9   C  2p       1.15227    1.15304    1.10329

    10   H  1s       0.86288

    11   H  1s       0.86288

    12   H  1s       0.86480

    13   H  1s       0.86480

    14   H  1s       0.87201

    15   H  1s       0.87201

 Summary of localized orbital composition:   [THRPRINT= 0.020]

   ORB  GRP  ORB.ENERGY      CENTERS/CHARGES
     1   1   -18.312886      O  3   2.000
     2   1    -9.689450      C  2   2.000
     3   1    -9.609147      C  9   2.000
     4   1    -9.609147      C  8   2.000
     5   1    -9.608370      C  1   2.000
     6   1    -0.593454      O  3   1.229   H  4   0.761
     7   1    -0.549138      O  3   1.158   C  2   0.825
     8   1    -0.467639      C  2   0.994   C  1   0.983   (other: 0.023)
     9   1    -0.467145      C  9   0.998   C  2   0.987
    10   1    -0.467145      C  8   0.998   C  2   0.987
    11   1    -0.425892      O  3   1.985
    12   1    -0.415192      C  9   1.125   H 15   0.865
    13   1    -0.415192      C  8   1.125   H 14   0.865
    14   1    -0.413534      C  8   1.133   H 12   0.857
    15   1    -0.413534      C  9   1.133   H 13   0.857
    16   1    -0.412123      C  1   1.130   H  5   0.859
    17   1    -0.410669      C  8   1.135   H 10   0.856
    18   1    -0.410669      C  9   1.135   H 11   0.856
    19   1    -0.406310      C  1   1.137   H  7   0.853
    20   1    -0.406310      C  1   1.137   H  6   0.853
    21   1    -0.082183      O  3   1.950   C  2   0.023   (other: 0.027)

 Localized orbitals saved to record      2200.2  (orbital set 4)


 **********************************************************************************************************************************
 DATASETS  * FILE   NREC   LENGTH (MB)   RECORD NAMES
              1      20       32.81       500      610      700      900      950      970     1000      129      960     1100   
                                          VAR    BASINP    GEOM    SYMINP    ZMAT    AOBASIS   BASIS     P2S    ABASIS      S 
                                         1400     1410     1200     1210     1080     1600     1650     1300     1700     1800   
                                           T        V       H0       H01     AOSYM     SMH    MOLCAS    ERIS     OPER     GRID   

              2       5        3.06       700     1000      520     1800     2200   
                                         GEOM     BASIS   MCVARS    GRID      UKS  

 PROGRAMS   *        TOTAL      IBBA       UKS       INT
 CPU TIMES  *         6.95      0.03      6.32      0.46
 REAL TIME  *         7.64 SEC
 DISK USED  *        36.55 MB      
 **********************************************************************************************************************************
 Molecular orbitals read from record     2200.2  Type=UKS/LOCAL(IBO)  
 Occupation numbers read from record     2200.2  Type=UKS/LOCAL(IBO)  
 Orbital energies read from record       2200.2  Type=UKS/LOCAL(IBO)  
 Redundancy group numbers read from rec  2200.2  Type=UKS/BETA (state 1.1)

 IBBA/STO-3G energy=      0.000000000000

        UKS-SCF 
   -230.61154918
 **********************************************************************************************************************************
 Molpro calculation terminated
