
 Primary working directories    : /tmp/sb13343
 Secondary working directories  : /tmp/sb13343
 Wavefunction directory         : /panfs/panasas01/chem/sb13343/wfu/
 Main file repository           : /tmp/sb13343/

 SHA1      : b4a5b34a9e711420743f49e6833241d17c61fb3c
 NAME      : 2099.9.b4a5b34
 ARCHNAME  : linux/x86_64_openmp
 FC        : /cm/shared/languages/GCC-6.1/bin/gfortran
 BLASLIB   : -lblas
 id        : simonbennie

 Nodes     nprocs
 node32-002    1

 Using customized tuning parameters: mindgm=1; mindgv=20; mindgc=4; mindgr=1; noblas=0; minvec=7
 default implementation of scratch files=df  

 memory,500,m
 geomtyp=xyz
 nosym
 noorient
 geometry={
 C          0.00000        0.00000        0.00000
 H          0.00000        0.00000        1.10056
 C          1.46209        0.00000       -0.46855
 C         -0.73105       -1.26621       -0.46855
 C         -0.73105        1.26621       -0.46855
 H          1.52118        0.00000       -1.56505
 H         -0.76059       -1.31738       -1.56505
 H         -0.76059        1.31738       -1.56505
 H          1.99755        0.88622       -0.10723
 H          1.99755       -0.88622       -0.10723
 H         -0.23129       -2.17304       -0.10723
 H         -1.76626       -1.28682       -0.10723
 H         -1.76626        1.28682       -0.10723
 H         -0.23129        2.17304       -0.10723
 }
 basis={ default,sto-3g }
 {ks,MM05-2X,direct;wf,34,1,0}
 {ibba,bonds=1}

 Variables initialized (895), CPU time= 0.00 sec
 Commands  initialized (725), CPU time= 0.02 sec, 591 directives.
 Default parameters read. Elapsed time= 0.12 sec

 Checking input...
 Passed
1


                                         ***  PROGRAM SYSTEM MOLPRO  ***
                                       Copyright, TTI GmbH Stuttgart, 2015
                                    Version 2099.9 linked May 26 2017 16:03:21


 **********************************************************************************************************************************
 LABEL *                                                                                 
  64 bit serial version                                                                  DATE: 08-Jun-17          TIME: 23:54:37  
 **********************************************************************************************************************************

 SHA1:             b4a5b34a9e711420743f49e6833241d17c61fb3c
 **********************************************************************************************************************************
 SETTING GEOMTYP        =    XYZ

 Variable memory set to  500000000 words,  buffer space 

 ZSYMEL=NOSYM

 SETTING BASIS          =    STO-3G


 Recomputing integrals since basis changed


 Using spherical harmonics

 Library entry C      S STO-3G               selected for orbital group  1
 Library entry C      P STO-3G               selected for orbital group  1
 Library entry H      S STO-3G               selected for orbital group  2


 PROGRAM * SEWARD (Integral evaluation for generally contracted gaussian basis sets)     Author: Roland Lindh, 1990

 Geometry written to block  1 of record 700


 Point group  C1  



 ATOMIC COORDINATES

 NR  ATOM    CHARGE       X              Y              Z

   1  C       6.00    0.000000000    0.000000000    0.000000000
   2  H       1.00    0.000000000    0.000000000    2.079756984
   3  C       6.00    2.762949669    0.000000000   -0.885431176
   4  C       6.00   -1.381484283   -2.392790116   -0.885431176
   5  C       6.00   -1.381484283    2.392790116   -0.885431176
   6  H       1.00    2.874613586    0.000000000   -2.957515871
   7  H       1.00   -1.437306793   -2.489487402   -2.957515871
   8  H       1.00   -1.437306793    2.489487402   -2.957515871
   9  H       1.00    3.774822420    1.674713086   -0.202635332
  10  H       1.00    3.774822420   -1.674713086   -0.202635332
  11  H       1.00   -0.437074755   -4.106450458   -0.202635332
  12  H       1.00   -3.337747665   -2.431737372   -0.202635332
  13  H       1.00   -3.337747665    2.431737372   -0.202635332
  14  H       1.00   -0.437074755    4.106450458   -0.202635332

 Bond lengths in Bohr (Angstrom)

 1-2  2.079756984  1-3  2.901358172  1-4  2.901367218  1-5  2.901367218  3-6  2.075091279
     ( 1.100560000)     ( 1.535332625)     ( 1.535337412)     ( 1.535337412)     ( 1.098091015)

  3- 9  2.072380406   3-10  2.072380406   4- 7  2.075090722   4-11  2.072378172   4-12  2.072364222
       ( 1.096656483)       ( 1.096656483)       ( 1.098090721)       ( 1.096655301)       ( 1.096647919)

  5- 8  2.075090722   5-13  2.072364222   5-14  2.072378172
       ( 1.098090721)       ( 1.096647919)       ( 1.096655301)

 Bond angles

  1- 3- 6  110.85354902   1- 3- 9  111.37220114   1- 3-10  111.37220114   1- 4- 7  110.85320625

  1- 4-11  111.37204414   1- 4-12  111.37216555   1- 5- 8  110.85320625   1- 5-13  111.37216555

  1- 5-14  111.37204414   2- 1- 3  107.76888332   2- 1- 4  107.76882608   2- 1- 5  107.76882608

  3-1-4  111.11870751   3-1-5  111.11870751   4-1-5  111.11845005   6-3-9  107.62119374

  6- 3-10  107.62119374   7- 4-11  107.62125572   7- 4-12  107.62162102   8- 5-13  107.62162102

  8- 5-14  107.62125572   9- 3-10  107.82352924  11- 4-12  107.82360822  13- 5-14  107.82360822

 NUCLEAR CHARGE:                   34
 NUMBER OF PRIMITIVE AOS:          90
 NUMBER OF SYMMETRY AOS:           90
 NUMBER OF CONTRACTIONS:           30   (  30A   )
 NUMBER OF CORE ORBITALS:           4   (   4A   )
 NUMBER OF VALENCE ORBITALS:       26   (  26A   )


 NUCLEAR REPULSION ENERGY  134.07051350


 Eigenvalues of metric

         1 0.203E+00 0.229E+00 0.229E+00 0.287E+00 0.356E+00 0.362E+00 0.364E+00 0.364E+00


 Contracted 2-electron integrals neglected if value below      1.0D-11
 AO integral compression algorithm  1   Integral accuracy      1.0D-11

     1.049 MB (compressed) written to integral file ( 95.2%)


 NUMBER OF SORTED TWO-ELECTRON INTEGRALS:     108345.     BUFFER LENGTH:  32768
 NUMBER OF SEGMENTS:   1  SEGMENT LENGTH:     108345      RECORD LENGTH: 524288

 Memory used in sort:       0.67 MW

 SORT1 READ      123158. AND WROTE      102148. INTEGRALS IN      1 RECORDS. CPU TIME:     0.00 SEC, REAL TIME:     0.02 SEC
 SORT2 READ      102148. AND WROTE      108345. INTEGRALS IN      4 RECORDS. CPU TIME:     0.02 SEC, REAL TIME:     0.03 SEC

 FILE SIZES:   FILE 1:    31.3 MBYTE,  FILE 4:     4.2 MBYTE,   TOTAL:     35.5 MBYTE

 OPERATOR DM      FOR CENTER  0  COORDINATES:    0.000000    0.000000    0.000000


 **********************************************************************************************************************************
 DATASETS  * FILE   NREC   LENGTH (MB)   RECORD NAMES
              1      19       30.69       500      610      700      900      950      970     1000      129      960     1100   
                                          VAR    BASINP    GEOM    SYMINP    ZMAT    AOBASIS   BASIS     P2S    ABASIS      S 
                                         1400     1410     1200     1210     1080     1600     1650     1300     1700   
                                           T        V       H0       H01     AOSYM     SMH    MOLCAS    ERIS     OPER   

 PROGRAMS   *        TOTAL       INT
 CPU TIMES  *         0.63      0.48
 REAL TIME  *         2.27 SEC
 DISK USED  *        35.98 MB      
 **********************************************************************************************************************************

 Density functional group MM05-2X=M052XX+M052XC
 Functional: M052XX(Automatically generated (new) M052XX)                      Gradient terms: 2
 Functional: M052XC(Automatically generated (new) M052XC)                      Gradient terms: 2
 Use grid at  1800.2


 Exact exchange will be calculated, factor:  0.5600

 Functional: M052XX                    Factor:  0.4400
 Functional: M052XC                    Factor:  1.0000

 Generated new metagrid on record  1800.2 with target accuracy 1.0D-06 and 45620 points in CPU time    1.1
 Computed new grid on record 1800.1 in CPU time    1.2
   51146 words reserved for DFT integration

 PROGRAM * RKS-SCF (Restricted closed shell Kohn-Sham)     Authors: W. Meyer, H.-J. Werner, P.J. Knowles, 1993

 NUMBER OF ELECTRONS:      17+   17-    SPACE SYMMETRY=1    SPIN SYMMETRY: Singlet 
 CONVERGENCE THRESHOLDS:    1.00E-05 (Density)    1.00E-06 (Energy)
 MAX. NUMBER OF ITERATIONS:       60
 INTERPOLATION TYPE:            DIIS
 INTERPOLATION STEPS:              2 (START)      1 (STEP)
 LEVEL SHIFTS:                  0.00 (CLOSED)  0.00 (OPEN) 



 Use fine grid record 1800.2 for energy threshold  1.0D-06
 Orbital guess generated from atomic densities. Full valence occupancy:   17

 Molecular orbital dump at record        2100.2

 Initial occupancy:  17

 ITERATION    DDIFF          GRAD             ENERGY        2-EL.EN.            DIPOLE MOMENTS         DIIS   ORB.
    1      0.000D+00      0.000D+00      -156.46188298    402.615768    0.00005   -0.00000   -0.01682    0    start
    2      0.000D+00      0.256D-01      -156.59457498    387.602009    0.00755   -0.00000   -0.01091    1    diag
    3      0.667D-01      0.139D-01      -156.64907777    392.755857    0.00275   -0.00000    0.01269    2    diag
    4      0.238D-01      0.160D-03      -156.64908841    392.766892    0.00272   -0.00000    0.01123    3    diag
    5      0.345D-03      0.212D-04      -156.64908856    392.767381    0.00276   -0.00000    0.01150    4    diag
    6      0.544D-04      0.101D-04      -156.64908859    392.767414    0.00274   -0.00000    0.01147    5    diag
    7      0.172D-04      0.992D-06      -156.64908859    392.767384    0.00274   -0.00000    0.01147    6    diag
    8      0.185D-05      0.831D-07      -156.64908859    392.767386    0.00274   -0.00000    0.01147    0    orth

 Final occupancy:  17

 !RKS STATE 1.1 Energy               -156.649088586506
 Nuclear energy                       134.07051350
 One-electron energy                 -475.19847427
 Two-electron energy                  196.38369310
 SCF exchange energy                  -24.36043648     Factor= 0.5600
 Density functional                   -11.90482092     M052XX=-24.43444927 M052XC= -1.15366324
 Virial quotient                       -1.01714696
 !RKS STATE 1.1 Dipole moment           0.00274251    -0.00000000     0.01146760
 Dipole moment /Debye                   0.00697030    -0.00000000     0.02914581

 Orbital energies:

         1.1          2.1          3.1          4.1          5.1          6.1          7.1          8.1          9.1         10.1
    -10.415498   -10.394316   -10.394296   -10.394175    -0.866462    -0.739807    -0.739773    -0.610101    -0.501977    -0.466850

        11.1         12.1         13.1         14.1         15.1         16.1         17.1         18.1         19.1
     -0.466753    -0.416626    -0.416532    -0.396256    -0.347912    -0.347693    -0.345026     0.438524     0.453383

 HOMO     17.1    -0.345026 =      -9.3886eV
 LUMO     18.1     0.438524 =      11.9328eV
 LUMO-HOMO         0.783550 =      21.3215eV


 **********************************************************************************************************************************
 DATASETS  * FILE   NREC   LENGTH (MB)   RECORD NAMES
              1      20       32.15       500      610      700      900      950      970     1000      129      960     1100   
                                          VAR    BASINP    GEOM    SYMINP    ZMAT    AOBASIS   BASIS     P2S    ABASIS      S 
                                         1400     1410     1200     1210     1080     1600     1650     1300     1700     1800   
                                           T        V       H0       H01     AOSYM     SMH    MOLCAS    ERIS     OPER     GRID   

              2       5        3.00       700     1000      520     1800     2100   
                                         GEOM     BASIS   MCVARS    GRID      RKS  

 PROGRAMS   *        TOTAL        KS       INT
 CPU TIMES  *         7.14      6.50      0.48
 REAL TIME  *        12.22 SEC
 DISK USED  *        35.98 MB      
 **********************************************************************************************************************************


 PROGRAM * Intrinsic Basis Bonding Analysis (IBBA)          Author: G. Knizia

 Molecular orbitals read from record     2100.2  Type=RKS/CANONICAL (state 1.1)
 Fock matrix read from record            2100.2  Type=RKS/TOTAL (state 1.1)
 Orbital energies read from record       2100.2  Type=RKS/CANONICAL (state 1.1)
 Density matrix read from record         2100.2  Type=RKS/CHARGE (state 1.1)

 Number of core orbitals:           4 (   4 )
 Number of closed-shell orbitals:  13 (  13 )

 Basis set MINAO-AUTO-PP generated.      Number of basis functions:   30 

 Polarized AO type:                A = (O Ot + (1-O)(1-Ot)) P12
 Orthogonalization method:         Symmetric (Loewdin)
 Localization functional:          L = sum[A,i] <i|n_A|i>^4 -> max

 Localization group 1:  17 orbitals, occupancy  2.000
 Iterative localization: IB/PM,    7 iter; Final gradient 0.20E-08

 Bond order analysis:       [THRPRINT= 0.020]

   CEN ATOM   CEN ATOM     WIBERG.BO      RENORM.BO
     1   C  -   5   C       1.007144       1.005698
     1   C  -   4   C       1.007144       1.005698
     1   C  -   3   C       1.007045       1.005656
     1   C  -   2   H       0.944548       0.965861

     2   H  -   1   C       0.944548       0.965861

     3   C  -   1   C       1.007045       1.005656
     3   C  -   6   H       0.967344       0.986460
     3   C  -   9   H       0.966948       0.988162
     3   C  -  10   H       0.966948       0.988162

     4   C  -   1   C       1.007144       1.005698
     4   C  -   7   H       0.967346       0.986462
     4   C  -  12   H       0.967037       0.988093
     4   C  -  11   H       0.966978       0.988152

     5   C  -   1   C       1.007144       1.005698
     5   C  -   8   H       0.967346       0.986462
     5   C  -  13   H       0.967037       0.988093
     5   C  -  14   H       0.966978       0.988152

     6   H  -   3   C       0.967344       0.986460

     7   H  -   4   C       0.967346       0.986462

     8   H  -   5   C       0.967346       0.986462

     9   H  -   3   C       0.966948       0.988162

    10   H  -   3   C       0.966948       0.988162

    11   H  -   4   C       0.966978       0.988152

    12   H  -   4   C       0.967037       0.988093

    13   H  -   5   C       0.967037       0.988093

    14   H  -   5   C       0.966978       0.988152


 Valency analysis:

   CEN ATOM   TOT.VALENCE
     1   C       3.975704
     2   H       0.984028
     3   C       3.935033
     4   C       3.935188
     5   C       3.935188
     6   H       0.984161
     7   H       0.984162
     8   H       0.984162
     9   H       0.983146
    10   H       0.983146
    11   H       0.983160
    12   H       0.983250
    13   H       0.983250
    14   H       0.983160

 Total charge composition:

   CEN ATOM         s          p       ELECTRONS ->P.CHARGE
     1   C       2.94711    3.17361      6.12072   -0.12072
     2   H       0.87362                 0.87362    0.12638
     3   C       2.98999    3.39724      6.38724   -0.38724
     4   C       2.99007    3.39693      6.38700   -0.38700
     5   C       2.99007    3.39693      6.38700   -0.38700
     6   H       0.87415                 0.87415    0.12585
     7   H       0.87415                 0.87415    0.12585
     8   H       0.87415                 0.87415    0.12585
     9   H       0.87018                 0.87018    0.12982
    10   H       0.87018                 0.87018    0.12982
    11   H       0.87023                 0.87023    0.12977
    12   H       0.87058                 0.87058    0.12942
    13   H       0.87058                 0.87058    0.12942
    14   H       0.87023                 0.87023    0.12977

 Total charge composition, AO contributions:

   CEN ATOM SHL      SPHERICAL COMPONENTS
     1   C  1s       1.99205
     1   C  2s       0.95506
     1   C  2p       1.02233    1.02229    1.12899

     2   H  1s       0.87362

     3   C  1s       1.99156
     3   C  2s       0.99843
     3   C  2p       1.06929    1.16992    1.15803

     4   C  1s       1.99156
     4   C  2s       0.99851
     4   C  2p       1.14437    1.09451    1.15804

     5   C  1s       1.99156
     5   C  2s       0.99851
     5   C  2p       1.14437    1.09451    1.15804

     6   H  1s       0.87415

     7   H  1s       0.87415

     8   H  1s       0.87415

     9   H  1s       0.87018

    10   H  1s       0.87018

    11   H  1s       0.87023

    12   H  1s       0.87058

    13   H  1s       0.87058

    14   H  1s       0.87023

 Summary of localized orbital composition:   [THRPRINT= 0.020]

   ORB  GRP  ORB.ENERGY      CENTERS/CHARGES
     1   1   -10.308405      C  1   2.000
     2   1   -10.279147      C  4   2.000
     3   1   -10.279147      C  5   2.000
     4   1   -10.279122      C  3   2.000
     5   1    -0.585533      C  5   0.995   C  1   0.990
     6   1    -0.585533      C  4   0.995   C  1   0.990
     7   1    -0.585401      C  3   0.995   C  1   0.991
     8   1    -0.537240      C  3   1.129   H 10   0.864
     9   1    -0.537240      C  3   1.129   H  9   0.864
    10   1    -0.537239      C  4   1.129   H 11   0.864
    11   1    -0.537239      C  5   1.129   H 14   0.864
    12   1    -0.536853      C  4   1.128   H 12   0.864
    13   1    -0.536853      C  5   1.128   H 13   0.864
    14   1    -0.534764      C  3   1.125   H  6   0.868
    15   1    -0.534730      C  5   1.125   H  8   0.868
    16   1    -0.534730      C  4   1.125   H  7   0.868
    17   1    -0.530880      C  1   1.118   H  2   0.862   (other: 0.020)

 Localized orbitals saved to record      2100.2  (orbital set 2)


 **********************************************************************************************************************************
 DATASETS  * FILE   NREC   LENGTH (MB)   RECORD NAMES
              1      20       32.15       500      610      700      900      950      970     1000      129      960     1100   
                                          VAR    BASINP    GEOM    SYMINP    ZMAT    AOBASIS   BASIS     P2S    ABASIS      S 
                                         1400     1410     1200     1210     1080     1600     1650     1300     1700     1800   
                                           T        V       H0       H01     AOSYM     SMH    MOLCAS    ERIS     OPER     GRID   

              2       5        3.01       700     1000      520     1800     2100   
                                         GEOM     BASIS   MCVARS    GRID      RKS  

 PROGRAMS   *        TOTAL      IBBA        KS       INT
 CPU TIMES  *         7.17      0.03      6.50      0.48
 REAL TIME  *        12.36 SEC
 DISK USED  *        35.98 MB      
 **********************************************************************************************************************************
 Molecular orbitals read from record     2100.2  Type=RKS/LOCAL(IBO)  
 Occupation numbers read from record     2100.2  Type=RKS/LOCAL(IBO)  
 Orbital energies read from record       2100.2  Type=RKS/LOCAL(IBO)  
 Redundancy group numbers read from rec  2100.2  Type=RKS/LOCAL(IBO)  

 IBBA/STO-3G energy=      0.000000000000

        KS-SCF  
   -156.64908859
 **********************************************************************************************************************************
 Molpro calculation terminated
