
 Primary working directories    : /local
 Secondary working directories  : /local
 Wavefunction directory         : /local/
 Main file repository           : /local/

 SHA1      : b4a5b34a9e711420743f49e6833241d17c61fb3c
 NAME      : 2099.9.b4a5b34
 ARCHNAME  : linux/x86_64_openmp
 FC        : /cm/shared/languages/GCC-6.1/bin/gfortran
 BLASLIB   : -lblas
 id        : simonbennie

 Nodes     nprocs
 node36-006    1

 Using customized tuning parameters: mindgm=1; mindgv=20; mindgc=4; mindgr=1; noblas=0; minvec=7
 default implementation of scratch files=df  

 memory,500,m
 geomtyp=xyz
 nosym
 noorient
 geometry={
 C         -1.53233        0.02247        0.00000
 C         -0.00192        0.01421        0.00000
 O          0.37239        1.40356        0.00000
 H          1.34248        1.44036        0.00000
 H         -1.92991       -0.99819        0.00000
 H         -1.90797        0.54382       -0.88653
 H         -1.90797        0.54382        0.88653
 C          0.54303       -0.66466       -1.26580
 C          0.54303       -0.66466        1.26580
 H          0.17836       -0.14752       -2.15943
 H          0.17836       -0.14752        2.15943
 H          0.23752       -1.71600       -1.32280
 H          0.23752       -1.71600        1.32280
 H          1.64084       -0.63767       -1.28032
 H          1.64084       -0.63767        1.28032
 }
 basis={ default,SV(P) }
 {uks,PBE,direct;wf,42,1,0}
 {ibba,bonds=1}

 Variables initialized (895), CPU time= 0.00 sec
 Commands  initialized (725), CPU time= 0.02 sec, 591 directives.
 Default parameters read. Elapsed time= 0.08 sec

 Checking input...
 Passed
1


                                         ***  PROGRAM SYSTEM MOLPRO  ***
                                       Copyright, TTI GmbH Stuttgart, 2015
                                    Version 2099.9 linked May 26 2017 16:03:21


 **********************************************************************************************************************************
 LABEL *                                                                                 
  64 bit serial version                                                                  DATE: 12-Jun-17          TIME: 20:29:04  
 **********************************************************************************************************************************

 SHA1:             b4a5b34a9e711420743f49e6833241d17c61fb3c
 **********************************************************************************************************************************
 SETTING GEOMTYP        =    XYZ

 Variable memory set to  500000000 words,  buffer space 

 ZSYMEL=NOSYM

 SETTING BASIS          =    SV(P)


 Recomputing integrals since basis changed


 Using spherical harmonics

 Library entry C      S def2-SV(P)           selected for orbital group  1
 Library entry C      P def2-SV(P)           selected for orbital group  1
 Library entry C      D def2-SV(P)           selected for orbital group  1
 Library entry O      S def2-SV(P)           selected for orbital group  2
 Library entry O      P def2-SV(P)           selected for orbital group  2
 Library entry O      D def2-SV(P)           selected for orbital group  2
 Library entry H      S def2-SV(P)           selected for orbital group  3


 PROGRAM * SEWARD (Integral evaluation for generally contracted gaussian basis sets)     Author: Roland Lindh, 1990

 Geometry written to block  1 of record 700


 Point group  C1  



 ATOMIC COORDINATES

 NR  ATOM    CHARGE       X              Y              Z

   1  C       6.00   -2.895684032    0.042462146    0.000000000
   2  C       6.00   -0.003628274    0.026853008    0.000000000
   3  O       8.00    0.703715112    2.652343999    0.000000000
   4  H       1.00    2.536919528    2.721885921    0.000000000
   5  H       1.00   -3.647001345   -1.886305720    0.000000000
   6  H       1.00   -3.605540754    1.027670861   -1.675298901
   7  H       1.00   -3.605540754    1.027670861    1.675298901
   8  C       6.00    1.026177977   -1.256025366   -2.392015328
   9  C       6.00    1.026177977   -1.256025366    2.392015328
  10  H       1.00    0.337051552   -0.278772398   -4.080731285
  11  H       1.00    0.337051552   -0.278772398    4.080731285
  12  H       1.00    0.448847749   -3.242770030   -2.499729718
  13  H       1.00    0.448847749   -3.242770030    2.499729718
  14  H       1.00    3.100738214   -1.205021658   -2.419454152
  15  H       1.00    3.100738214   -1.205021658    2.419454152

 Bond lengths in Bohr (Angstrom)

 1-2  2.892097881  1-5  2.069933136  1-6  2.069096224  1-7  2.069096224  2-3  2.719106031
     ( 1.530432290)     ( 1.095361444)     ( 1.094918569)     ( 1.094918569)     ( 1.438888946)

  2- 8  2.903104402   2- 9  2.903104402   3- 4  1.834522965   8-10  2.069222119   8-12  2.071730422
       ( 1.536256691)       ( 1.536256691)       ( 0.970787746)       ( 1.094985190)       ( 1.096312526)

  8-14  2.075368508   9-11  2.069222119   9-13  2.071730422   9-15  2.075368508
       ( 1.098237719)       ( 1.094985190)       ( 1.096312526)       ( 1.098237719)

 Bond angles

  1-2-3  104.76902697   1-2-8  110.92255387   1-2-9  110.92255387   2-1-5  110.97328220

  2- 1- 6  110.22090701   2- 1- 7  110.22090701   2- 3- 4  107.25071562   2- 8-10  110.21836376

  2- 8-12  111.57747468   2- 8-14  110.77023896   2- 9-11  110.21836376   2- 9-13  111.57747468

  2- 9-15  110.77023896   3- 2- 8  109.53648747   3- 2- 9  109.53648747   5- 1- 6  108.61190457

  5- 1- 7  108.61190457   6- 1- 7  108.12870271   8- 2- 9  110.96453384  10- 8-12  108.52192632

 10- 8-14  108.08997829  11- 9-13  108.52192632  11- 9-15  108.08997829  12- 8-14  107.54424578

 13- 9-15  107.54424578

 NUCLEAR CHARGE:                   42
 NUMBER OF PRIMITIVE AOS:         165
 NUMBER OF SYMMETRY AOS:          160
 NUMBER OF CONTRACTIONS:           90   (  90A   )
 NUMBER OF CORE ORBITALS:           5   (   5A   )
 NUMBER OF VALENCE ORBITALS:       30   (  30A   )


 NUCLEAR REPULSION ENERGY  198.77359127


 Eigenvalues of metric

         1 0.179E-02 0.600E-02 0.603E-02 0.144E-01 0.286E-01 0.297E-01 0.300E-01 0.361E-01


 Contracted 2-electron integrals neglected if value below      1.0D-11
 AO integral compression algorithm  1   Integral accuracy      1.0D-11

     37.487 MB (compressed) written to integral file ( 49.6%)


 NUMBER OF SORTED TWO-ELECTRON INTEGRALS:    8386560.     BUFFER LENGTH:  32768
 NUMBER OF SEGMENTS:   1  SEGMENT LENGTH:    8386560      RECORD LENGTH: 524288

 Memory used in sort:       8.94 MW

 SORT1 READ     9478508. AND WROTE     7931434. INTEGRALS IN     23 RECORDS. CPU TIME:     0.10 SEC, REAL TIME:     0.19 SEC
 SORT2 READ     7931434. AND WROTE     8386560. INTEGRALS IN    143 RECORDS. CPU TIME:     0.23 SEC, REAL TIME:     0.29 SEC

 FILE SIZES:   FILE 1:    68.0 MBYTE,  FILE 4:    96.5 MBYTE,   TOTAL:    164.5 MBYTE

 OPERATOR DM      FOR CENTER  0  COORDINATES:    0.000000    0.000000    0.000000


 **********************************************************************************************************************************
 DATASETS  * FILE   NREC   LENGTH (MB)   RECORD NAMES
              1      19       63.39       500      610      700      900      950      970     1000      129      960     1100   
                                          VAR    BASINP    GEOM    SYMINP    ZMAT    AOBASIS   BASIS     P2S    ABASIS      S 
                                         1400     1410     1200     1210     1080     1600     1650     1300     1700   
                                           T        V       H0       H01     AOSYM     SMH    MOLCAS    ERIS     OPER   

 PROGRAMS   *        TOTAL       INT
 CPU TIMES  *         1.74      1.59
 REAL TIME  *         2.36 SEC
 DISK USED  *       165.03 MB      
 **********************************************************************************************************************************

 Density functional group PBE=PBEX+PBEC
 Functional: PBEX(Automatically generated (new) PBEX)                          Gradient terms: 1
 Functional: PBEC(Automatically generated (new) PBEC)                          Gradient terms: 1
 Use grid at  1800.2

 Functional: PBEX                      Factor:  1.0000
 Functional: PBEC                      Factor:  1.0000

 Generated new metagrid on record  1800.2 with target accuracy 1.0D-06 and 53396 points in CPU time    1.5
 Computed new grid on record 1800.1 in CPU time    1.7
   75909 words reserved for DFT integration

 PROGRAM * UKS-SCF (Unrestricted Kohn-Sham)     Authors: W. Meyer, H.-J. Werner, P.J. Knowles, 1993

 NUMBER OF ELECTRONS:      21+   21-    SPACE SYMMETRY=1    SPIN SYMMETRY: Singlet 
 CONVERGENCE THRESHOLDS:    1.00E-05 (Density)    1.00E-06 (Energy)
 MAX. NUMBER OF ITERATIONS:       60
 INTERPOLATION TYPE:            DIIS
 INTERPOLATION STEPS:              2 (START)      1 (STEP)
 LEVEL SHIFTS:                 -0.20 (ALPHA)  -0.20 (BETA) 



 Use fine grid record 1800.2 for energy threshold  1.0D-06
 Orbital guess generated from atomic densities. Full valence occupancy:   21

 Molecular orbital dump at record        2200.2

 Initial alpha occupation  21
 Initial beta  occupation  21

 ITERATION    DDIFF          GRAD             ENERGY        2-EL.EN.            DIPOLE MOMENTS         DIIS
    1      0.000D+00      0.000D+00      -232.86563986    639.296145    0.74121   -0.79906    0.00000    0
    2      0.199D-01      0.825D-02      -233.09106727    614.667292    0.27073   -0.37485    0.00000    1
    3      0.670D-02      0.441D-02      -233.15634794    622.054705    0.40549   -0.50448    0.00000    2
    4      0.135D-02      0.562D-03      -233.15761663    621.799102    0.38999   -0.43987    0.00000    3
    5      0.993D-03      0.247D-03      -233.15801024    621.710022    0.38546   -0.43923    0.00000    4
    6      0.548D-03      0.587D-04      -233.15805825    621.690104    0.38337   -0.43122    0.00000    5
    7      0.109D-03      0.201D-04      -233.15806094    621.671315    0.38204   -0.43118    0.00000    6
    8      0.452D-04      0.112D-04      -233.15806165    621.680629    0.38207   -0.43186    0.00000    7
    9      0.127D-04      0.143D-05      -233.15806167    621.679253    0.38203   -0.43158    0.00000    6
   10      0.303D-05      0.350D-06      -233.15806167    621.679709    0.38200   -0.43166    0.00000    7
   11      0.483D-06      0.111D-06      -233.15806167    621.679485    0.38200   -0.43165    0.00000    6

 Final alpha occupancy:  21
 Final beta  occupancy:  21

 !UKS STATE 1.1 Energy               -233.158061674618
 Nuclear energy                       198.77359127
 One-electron energy                 -709.09226982
 Two-electron energy                  310.83974269
 Density functional                   -33.67912582     PBEX=-32.30174834 PBEC= -1.37737748
 Virial quotient                       -1.00901662
 !UKS STATE 1.1 Dipole moment           0.38200278    -0.43164531     0.00000000
 Dipole moment /Debye                   0.97089062    -1.09706109     0.00000000

 Orbital energies for positive spin:

         1.1          2.1          3.1          4.1          5.1          6.1          7.1          8.1          9.1         10.1
    -18.738692    -9.947645    -9.878144    -9.878126    -9.872664    -0.911730    -0.704512    -0.616065    -0.615118    -0.506272

        11.1         12.1         13.1         14.1         15.1         16.1         17.1         18.1         19.1         20.1
     -0.434630    -0.399580    -0.397692    -0.361065    -0.349665    -0.333042    -0.320697    -0.306157    -0.301651    -0.269533

        21.1         22.1         23.1
     -0.211673     0.019157     0.066487

 Orbital energies for negative spin:

         1.1          2.1          3.1          4.1          5.1          6.1          7.1          8.1          9.1         10.1
    -18.738692    -9.947645    -9.878144    -9.878126    -9.872664    -0.911730    -0.704512    -0.616065    -0.615118    -0.506272

        11.1         12.1         13.1         14.1         15.1         16.1         17.1         18.1         19.1         20.1
     -0.434630    -0.399580    -0.397692    -0.361065    -0.349665    -0.333042    -0.320697    -0.306157    -0.301651    -0.269533

        21.1         22.1         23.1
     -0.211673     0.019157     0.066487

 HOMO     21.1    -0.211673 =      -5.7599eV
 LUMO     22.1     0.019157 =       0.5213eV
 LUMO-HOMO         0.230830 =       6.2812eV

 EXPECTATION VALUE OF S**2:            -0.00000000

 Natural orbitals saved to record    2200.2 (Orbital set 3)

 Orbital spaces for UNO-CAS (Min. occupation: 0.020  Max. occupation: 1.980):

 Closed:       21
 Active:        0


 **********************************************************************************************************************************
 DATASETS  * FILE   NREC   LENGTH (MB)   RECORD NAMES
              1      20       65.10       500      610      700      900      950      970     1000      129      960     1100   
                                          VAR    BASINP    GEOM    SYMINP    ZMAT    AOBASIS   BASIS     P2S    ABASIS      S 
                                         1400     1410     1200     1210     1080     1600     1650     1300     1700     1800   
                                           T        V       H0       H01     AOSYM     SMH    MOLCAS    ERIS     OPER     GRID   

              2       5        3.34       700     1000      520     1800     2200   
                                         GEOM     BASIS   MCVARS    GRID      UKS  

 PROGRAMS   *        TOTAL       UKS       INT
 CPU TIMES  *        18.02     16.28      1.59
 REAL TIME  *        19.50 SEC
 DISK USED  *       165.03 MB      
 **********************************************************************************************************************************


 PROGRAM * Intrinsic Basis Bonding Analysis (IBBA)          Author: G. Knizia

 Molecular orbitals read from record     2200.2  Type=UKS/ALPHA (state 1.1)
 Fock matrix read from record            2200.2  Type=UKS/TOTAL (state 1.1)
 Orbital energies read from record       2200.2  Type=UKS/ALPHA (state 1.1)
 Density matrix read from record         2200.2  Type=UKS/CHARGE (state 1.1)

 Number of core orbitals:           5 (   5 )
 Number of closed-shell orbitals:  16 (  16 )

 Basis set MINAO-AUTO-PP generated.      Number of basis functions:   35 

 Polarized AO type:                A = (O Ot + (1-O)(1-Ot)) P12
 Orthogonalization method:         Symmetric (Loewdin)
 Localization functional:          L = sum[A,i] <i|n_A|i>^4 -> max

 Localization group 1:  21 orbitals, occupancy  2.000
 Iterative localization: IB/PM,    7 iter; Final gradient 0.29E-08

 Bond order analysis:       [THRPRINT= 0.020]

   CEN ATOM   CEN ATOM     WIBERG.BO      RENORM.BO
     1   C  -   2   C       0.994229       0.992151
     1   C  -   5   H       0.963768       0.986168
     1   C  -   6   H       0.958960       0.980124
     1   C  -   7   H       0.958960       0.980124

     2   C  -   1   C       0.994229       0.992151
     2   C  -   9   C       0.993080       0.972322
     2   C  -   8   C       0.993080       0.972322
     2   C  -   3   O       0.946764       0.949611

     3   O  -   2   C       0.946764       0.949611
     3   O  -   4   H       0.879087       0.974464
     3   O  -   8   C       0.030841       0.015853
     3   O  -   9   C       0.030841       0.015853

     4   H  -   3   O       0.879087       0.974464

     5   H  -   1   C       0.963768       0.986168

     6   H  -   1   C       0.958960       0.980124

     7   H  -   1   C       0.958960       0.980124

     8   C  -   2   C       0.993080       0.972322
     8   C  -  14   H       0.962967       0.980853
     8   C  -  10   H       0.959550       0.979865
     8   C  -  12   H       0.958930       0.979354
     8   C  -   3   O       0.030841       0.015853

     9   C  -   2   C       0.993080       0.972322
     9   C  -  15   H       0.962967       0.980853
     9   C  -  11   H       0.959550       0.979865
     9   C  -  13   H       0.958930       0.979354
     9   C  -   3   O       0.030841       0.015853

    10   H  -   8   C       0.959550       0.979865

    11   H  -   9   C       0.959550       0.979865

    12   H  -   8   C       0.958930       0.979354

    13   H  -   9   C       0.958930       0.979354

    14   H  -   8   C       0.962967       0.980853

    15   H  -   9   C       0.962967       0.980853


 Valency analysis:

   CEN ATOM   TOT.VALENCE
     1   C       3.941211
     2   C       3.939227
     3   O       1.961673
     4   H       0.900019
     5   H       0.984107
     6   H       0.981751
     7   H       0.981751
     8   C       3.943686
     9   C       3.943686
    10   H       0.981837
    11   H       0.981837
    12   H       0.983337
    13   H       0.983337
    14   H       0.985727
    15   H       0.985727

 Total charge composition:

   CEN ATOM         s          p       ELECTRONS ->P.CHARGE
     1   C       3.02125    3.36797      6.38922   -0.38922
     2   C       2.92387    2.83887      5.76274    0.23726
     3   O       3.63624    4.88282      8.51906   -0.51906
     4   H       0.68380                 0.68380    0.31620
     5   H       0.87393                 0.87393    0.12607
     6   H       0.86491                 0.86491    0.13509
     7   H       0.86491                 0.86491    0.13509
     8   C       3.02816    3.37588      6.40404   -0.40404
     9   C       3.02816    3.37588      6.40404   -0.40404
    10   H       0.86523                 0.86523    0.13477
    11   H       0.86523                 0.86523    0.13477
    12   H       0.87091                 0.87091    0.12909
    13   H       0.87091                 0.87091    0.12909
    14   H       0.88053                 0.88053    0.11947
    15   H       0.88053                 0.88053    0.11947

 Total charge composition, AO contributions:

   CEN ATOM SHL      SPHERICAL COMPONENTS
     1   C  1s       1.99130
     1   C  2s       1.02995
     1   C  2p       1.04340    1.15600    1.16857

     2   C  1s       1.99288
     2   C  2s       0.93099
     2   C  2p       1.01619    0.80658    1.01610

     3   O  1s       1.99718
     3   O  2s       1.63906
     3   O  2p       1.45313    1.47933    1.95036

     4   H  1s       0.68380

     5   H  1s       0.87393

     6   H  1s       0.86491

     7   H  1s       0.86491

     8   C  1s       1.99140
     8   C  2s       1.03676
     8   C  2p       1.13888    1.14075    1.09626

     9   C  1s       1.99140
     9   C  2s       1.03676
     9   C  2p       1.13888    1.14075    1.09626

    10   H  1s       0.86523

    11   H  1s       0.86523

    12   H  1s       0.87091

    13   H  1s       0.87091

    14   H  1s       0.88053

    15   H  1s       0.88053

 Summary of localized orbital composition:   [THRPRINT= 0.020]

   ORB  GRP  ORB.ENERGY      CENTERS/CHARGES
     1   1   -18.592831      O  3   2.000
     2   1    -9.858809      C  2   2.000
     3   1    -9.767767      C  8   2.000
     4   1    -9.767767      C  9   2.000
     5   1    -9.761522      C  1   2.000
     6   1    -0.689695      O  3   1.319   H  4   0.671
     7   1    -0.650775      O  3   1.266   C  2   0.716
     8   1    -0.514586      C  9   1.008   C  2   0.976
     9   1    -0.514586      C  8   1.008   C  2   0.976
    10   1    -0.513777      C  1   0.989   C  2   0.985   (other: 0.026)
    11   1    -0.476353      O  3   1.980   (other: 0.020)
    12   1    -0.449795      C  8   1.125   H 12   0.860
    13   1    -0.449795      C  9   1.125   H 13   0.860
    14   1    -0.449382      C  9   1.115   H 15   0.873
    15   1    -0.449382      C  8   1.115   H 14   0.873
    16   1    -0.445453      C  1   1.120   H  5   0.866
    17   1    -0.443881      C  9   1.132   H 11   0.856
    18   1    -0.443881      C  8   1.132   H 10   0.856
    19   1    -0.438838      C  1   1.132   H  6   0.856
    20   1    -0.438838      C  1   1.132   H  7   0.856
    21   1    -0.236683      O  3   1.950   (other: 0.050)

 Localized orbitals saved to record      2200.2  (orbital set 4)


 **********************************************************************************************************************************
 DATASETS  * FILE   NREC   LENGTH (MB)   RECORD NAMES
              1      20       65.10       500      610      700      900      950      970     1000      129      960     1100   
                                          VAR    BASINP    GEOM    SYMINP    ZMAT    AOBASIS   BASIS     P2S    ABASIS      S 
                                         1400     1410     1200     1210     1080     1600     1650     1300     1700     1800   
                                           T        V       H0       H01     AOSYM     SMH    MOLCAS    ERIS     OPER     GRID   

              2       5        3.40       700     1000      520     1800     2200   
                                         GEOM     BASIS   MCVARS    GRID      UKS  

 PROGRAMS   *        TOTAL      IBBA       UKS       INT
 CPU TIMES  *        18.06      0.04     16.28      1.59
 REAL TIME  *        19.63 SEC
 DISK USED  *       165.03 MB      
 **********************************************************************************************************************************
 Molecular orbitals read from record     2200.2  Type=UKS/LOCAL(IBO)  
 Occupation numbers read from record     2200.2  Type=UKS/LOCAL(IBO)  
 Orbital energies read from record       2200.2  Type=UKS/LOCAL(IBO)  
 Redundancy group numbers read from rec  2200.2  Type=UKS/BETA (state 1.1)

 IBBA/SV(P) energy=      0.000000000000

        UKS-SCF 
   -233.15806167
 **********************************************************************************************************************************
 Molpro calculation terminated
