
 Primary working directories    : /local
 Secondary working directories  : /local
 Wavefunction directory         : /local/
 Main file repository           : /local/

 SHA1      : b4a5b34a9e711420743f49e6833241d17c61fb3c
 NAME      : 2099.9.b4a5b34
 ARCHNAME  : linux/x86_64_openmp
 FC        : /cm/shared/languages/GCC-6.1/bin/gfortran
 BLASLIB   : -lblas
 id        : simonbennie

 Nodes     nprocs
 node45-011    1

 Using customized tuning parameters: mindgm=1; mindgv=20; mindgc=4; mindgr=1; noblas=0; minvec=7
 default implementation of scratch files=df  

 memory,500,m
 geomtyp=xyz
 nosym
 noorient
 geometry={
 C         -1.53233        0.02247        0.00000
 C         -0.00192        0.01421        0.00000
 O          0.37239        1.40356        0.00000
 H          1.34248        1.44036        0.00000
 H         -1.92991       -0.99819        0.00000
 H         -1.90797        0.54382       -0.88653
 H         -1.90797        0.54382        0.88653
 C          0.54303       -0.66466       -1.26580
 C          0.54303       -0.66466        1.26580
 H          0.17836       -0.14752       -2.15943
 H          0.17836       -0.14752        2.15943
 H          0.23752       -1.71600       -1.32280
 H          0.23752       -1.71600        1.32280
 H          1.64084       -0.63767       -1.28032
 H          1.64084       -0.63767        1.28032
 }
 basis={ default,tzvp }
 {ks,B-P,direct;wf,42,1,0}
 {ibba,bonds=1}

 Variables initialized (895), CPU time= 0.01 sec
 Commands  initialized (725), CPU time= 0.01 sec, 591 directives.
 Default parameters read. Elapsed time= 0.14 sec

 Checking input...
 Passed
1


                                         ***  PROGRAM SYSTEM MOLPRO  ***
                                       Copyright, TTI GmbH Stuttgart, 2015
                                    Version 2099.9 linked May 26 2017 16:03:21


 **********************************************************************************************************************************
 LABEL *                                                                                 
  64 bit serial version                                                                  DATE: 12-Jun-17          TIME: 20:28:02  
 **********************************************************************************************************************************

 SHA1:             b4a5b34a9e711420743f49e6833241d17c61fb3c
 **********************************************************************************************************************************
 SETTING GEOMTYP        =    XYZ

 Variable memory set to  500000000 words,  buffer space 

 ZSYMEL=NOSYM

 SETTING BASIS          =    TZVP


 Recomputing integrals since basis changed


 Using spherical harmonics

 Library entry C      S def2-TZVP            selected for orbital group  1
 Library entry C      P def2-TZVP            selected for orbital group  1
 Library entry C      D def2-TZVP            selected for orbital group  1
 Library entry C      F def2-TZVP            selected for orbital group  1
 Library entry O      S def2-TZVP            selected for orbital group  2
 Library entry O      P def2-TZVP            selected for orbital group  2
 Library entry O      D def2-TZVP            selected for orbital group  2
 Library entry O      F def2-TZVP            selected for orbital group  2
 Library entry H      S def2-TZVP            selected for orbital group  3
 Library entry H      P def2-TZVP            selected for orbital group  3


 PROGRAM * SEWARD (Integral evaluation for generally contracted gaussian basis sets)     Author: Roland Lindh, 1990

 Geometry written to block  1 of record 700


 Point group  C1  



 ATOMIC COORDINATES

 NR  ATOM    CHARGE       X              Y              Z

   1  C       6.00   -2.895684032    0.042462146    0.000000000
   2  C       6.00   -0.003628274    0.026853008    0.000000000
   3  O       8.00    0.703715112    2.652343999    0.000000000
   4  H       1.00    2.536919528    2.721885921    0.000000000
   5  H       1.00   -3.647001345   -1.886305720    0.000000000
   6  H       1.00   -3.605540754    1.027670861   -1.675298901
   7  H       1.00   -3.605540754    1.027670861    1.675298901
   8  C       6.00    1.026177977   -1.256025366   -2.392015328
   9  C       6.00    1.026177977   -1.256025366    2.392015328
  10  H       1.00    0.337051552   -0.278772398   -4.080731285
  11  H       1.00    0.337051552   -0.278772398    4.080731285
  12  H       1.00    0.448847749   -3.242770030   -2.499729718
  13  H       1.00    0.448847749   -3.242770030    2.499729718
  14  H       1.00    3.100738214   -1.205021658   -2.419454152
  15  H       1.00    3.100738214   -1.205021658    2.419454152

 Bond lengths in Bohr (Angstrom)

 1-2  2.892097881  1-5  2.069933136  1-6  2.069096224  1-7  2.069096224  2-3  2.719106031
     ( 1.530432290)     ( 1.095361444)     ( 1.094918569)     ( 1.094918569)     ( 1.438888946)

  2- 8  2.903104402   2- 9  2.903104402   3- 4  1.834522965   8-10  2.069222119   8-12  2.071730422
       ( 1.536256691)       ( 1.536256691)       ( 0.970787746)       ( 1.094985190)       ( 1.096312526)

  8-14  2.075368508   9-11  2.069222119   9-13  2.071730422   9-15  2.075368508
       ( 1.098237719)       ( 1.094985190)       ( 1.096312526)       ( 1.098237719)

 Bond angles

  1-2-3  104.76902697   1-2-8  110.92255387   1-2-9  110.92255387   2-1-5  110.97328220

  2- 1- 6  110.22090701   2- 1- 7  110.22090701   2- 3- 4  107.25071562   2- 8-10  110.21836376

  2- 8-12  111.57747468   2- 8-14  110.77023896   2- 9-11  110.21836376   2- 9-13  111.57747468

  2- 9-15  110.77023896   3- 2- 8  109.53648747   3- 2- 9  109.53648747   5- 1- 6  108.61190457

  5- 1- 7  108.61190457   6- 1- 7  108.12870271   8- 2- 9  110.96453384  10- 8-12  108.52192632

 10- 8-14  108.08997829  11- 9-13  108.52192632  11- 9-15  108.08997829  12- 8-14  107.54424578

 13- 9-15  107.54424578

 NUCLEAR CHARGE:                   42
 NUMBER OF PRIMITIVE AOS:         335
 NUMBER OF SYMMETRY AOS:          310
 NUMBER OF CONTRACTIONS:          215   ( 215A   )
 NUMBER OF CORE ORBITALS:           5   (   5A   )
 NUMBER OF VALENCE ORBITALS:       30   (  30A   )


 NUCLEAR REPULSION ENERGY  198.77359127


 Eigenvalues of metric

         1 0.262E-03 0.510E-03 0.539E-03 0.594E-03 0.697E-03 0.755E-03 0.210E-02 0.239E-02


 Contracted 2-electron integrals neglected if value below      1.0D-11
 AO integral compression algorithm  1   Integral accuracy      1.0D-11

     977.797 MB (compressed) written to integral file ( 41.7%)


 NUMBER OF SORTED TWO-ELECTRON INTEGRALS:  269595810.     BUFFER LENGTH:  32768
 NUMBER OF SEGMENTS:  17  SEGMENT LENGTH:   15999762      RECORD LENGTH: 524288

 Memory used in sort:      16.56 MW

 SORT1 READ   292827432. AND WROTE   238500613. INTEGRALS IN    690 RECORDS. CPU TIME:     3.62 SEC, REAL TIME:     7.80 SEC
 SORT2 READ   238500613. AND WROTE   269595810. INTEGRALS IN   3730 RECORDS. CPU TIME:     5.63 SEC, REAL TIME:     8.03 SEC

 FILE SIZES:   FILE 1:  1009.7 MBYTE,  FILE 4:  2894.1 MBYTE,   TOTAL:   3903.8 MBYTE

 OPERATOR DM      FOR CENTER  0  COORDINATES:    0.000000    0.000000    0.000000


 **********************************************************************************************************************************
 DATASETS  * FILE   NREC   LENGTH (MB)   RECORD NAMES
              1      19      926.27       500      610      700      900      950      970     1000      129      960     1100   
                                          VAR    BASINP    GEOM    SYMINP    ZMAT    AOBASIS   BASIS     P2S    ABASIS      S 
                                         1400     1410     1200     1210     1080     1600     1650     1300     1700   
                                           T        V       H0       H01     AOSYM     SMH    MOLCAS    ERIS     OPER   

 PROGRAMS   *        TOTAL       INT
 CPU TIMES  *        26.57     26.42
 REAL TIME  *        61.73 SEC
 DISK USED  *         3.90 GB      
 **********************************************************************************************************************************

 Density functional group B-P=B88+P86
 Functional: B88(Automatically generated (new) B88)                            Gradient terms: 1
 Functional: P86(Automatically generated (new) P86)                            Gradient terms: 1
 Use grid at  1800.2

 Functional: B88                       Factor:  1.0000
 Functional: P86                       Factor:  1.0000

 Generated new metagrid on record  1800.2 with target accuracy 1.0D-06 and 54596 points in CPU time    1.7
 Computed new grid on record 1800.1 in CPU time    1.9
  175219 words reserved for DFT integration

 PROGRAM * RKS-SCF (Restricted closed shell Kohn-Sham)     Authors: W. Meyer, H.-J. Werner, P.J. Knowles, 1993

 NUMBER OF ELECTRONS:      21+   21-    SPACE SYMMETRY=1    SPIN SYMMETRY: Singlet 
 CONVERGENCE THRESHOLDS:    1.00E-05 (Density)    1.00E-06 (Energy)
 MAX. NUMBER OF ITERATIONS:       60
 INTERPOLATION TYPE:            DIIS
 INTERPOLATION STEPS:              2 (START)      1 (STEP)
 LEVEL SHIFTS:                  0.00 (CLOSED)  0.00 (OPEN) 



 Use fine grid record 1800.2 for energy threshold  1.0D-06
 Orbital guess generated from atomic densities. Full valence occupancy:   21

 Molecular orbital dump at record        2100.2

 Initial occupancy:  21

 ITERATION    DDIFF          GRAD             ENERGY        2-EL.EN.            DIPOLE MOMENTS         DIIS   ORB.
    1      0.000D+00      0.000D+00      -233.45890408    640.809035    0.70392   -0.77777    0.00000    0    start
    2      0.000D+00      0.886D-02      -232.95008246    590.810491   -0.51865    0.28585    0.00000    1    diag
    3      0.175D-01      0.141D-01      -233.76197367    624.174928    0.43895   -0.68789    0.00000    2    diag
    4      0.146D-01      0.186D-02      -233.77155056    622.149215    0.34389   -0.38221    0.00000    3    diag
    5      0.125D-02      0.781D-03      -233.77342226    621.921047    0.33360   -0.50637    0.00000    4    diag
    6      0.425D-03      0.221D-03      -233.77357638    622.088364    0.34103   -0.47821    0.00000    5    diag
    7      0.122D-03      0.775D-04      -233.77359452    622.072177    0.34391   -0.47807    0.00000    6    diag
    8      0.294D-04      0.998D-05      -233.77359493    622.089753    0.34242   -0.48228    0.00000    7    diag
    9      0.970D-05      0.298D-05      -233.77359493    622.088954    0.34358   -0.47978    0.00000    0    orth

 Final occupancy:  21

 !RKS STATE 1.1 Energy               -233.773594925312
 Nuclear energy                       198.77359127
 One-electron energy                 -709.52168020
 Two-electron energy                  311.04447705
 Density functional                   -34.06998305     B88=-32.56898897 P86= -1.50099408
 Virial quotient                       -1.00488891
 !RKS STATE 1.1 Dipole moment           0.34358150    -0.47978051     0.00000000
 Dipole moment /Debye                   0.87323986    -1.21940055     0.00000000

 Orbital energies:

         1.1          2.1          3.1          4.1          5.1          6.1          7.1          8.1          9.1         10.1
    -18.761188    -9.954799    -9.887187    -9.887182    -9.882420    -0.933161    -0.718078    -0.627932    -0.627188    -0.516325

        11.1         12.1         13.1         14.1         15.1         16.1         17.1         18.1         19.1         20.1
     -0.442605    -0.407207    -0.404498    -0.369245    -0.356066    -0.339806    -0.326434    -0.315004    -0.308764    -0.281431

        21.1         22.1         23.1
     -0.228158     0.002952     0.048463

 HOMO     21.1    -0.228158 =      -6.2085eV
 LUMO     22.1     0.002952 =       0.0803eV
 LUMO-HOMO         0.231110 =       6.2888eV


 **********************************************************************************************************************************
 DATASETS  * FILE   NREC   LENGTH (MB)   RECORD NAMES
              1      20      928.02       500      610      700      900      950      970     1000      129      960     1100   
                                          VAR    BASINP    GEOM    SYMINP    ZMAT    AOBASIS   BASIS     P2S    ABASIS      S 
                                         1400     1410     1200     1210     1080     1600     1650     1300     1700     1800   
                                           T        V       H0       H01     AOSYM     SMH    MOLCAS    ERIS     OPER     GRID   

              2       5        3.96       700     1000      520     1800     2100   
                                         GEOM     BASIS   MCVARS    GRID      RKS  

 PROGRAMS   *        TOTAL        KS       INT
 CPU TIMES  *        68.77     42.20     26.42
 REAL TIME  *       106.36 SEC
 DISK USED  *         3.90 GB      
 **********************************************************************************************************************************


 PROGRAM * Intrinsic Basis Bonding Analysis (IBBA)          Author: G. Knizia

 Molecular orbitals read from record     2100.2  Type=RKS/CANONICAL (state 1.1)
 Fock matrix read from record            2100.2  Type=RKS/TOTAL (state 1.1)
 Orbital energies read from record       2100.2  Type=RKS/CANONICAL (state 1.1)
 Density matrix read from record         2100.2  Type=RKS/CHARGE (state 1.1)

 Number of core orbitals:           5 (   5 )
 Number of closed-shell orbitals:  16 (  16 )

 Basis set MINAO-AUTO-PP generated.      Number of basis functions:   35 

 Polarized AO type:                A = (O Ot + (1-O)(1-Ot)) P12
 Orthogonalization method:         Symmetric (Loewdin)
 Localization functional:          L = sum[A,i] <i|n_A|i>^4 -> max

 Localization group 1:  21 orbitals, occupancy  2.000
 Iterative localization: IB/PM,    7 iter; Final gradient 0.15E-08

 Bond order analysis:       [THRPRINT= 0.020]

   CEN ATOM   CEN ATOM     WIBERG.BO      RENORM.BO
     1   C  -   2   C       0.996413       0.993046
     1   C  -   5   H       0.960254       0.986070
     1   C  -   6   H       0.955493       0.979904
     1   C  -   7   H       0.955493       0.979904

     2   C  -   1   C       0.996413       0.993046
     2   C  -   9   C       0.994890       0.973671
     2   C  -   8   C       0.994890       0.973671
     2   C  -   3   O       0.937102       0.944952

     3   O  -   2   C       0.937102       0.944952
     3   O  -   4   H       0.861477       0.973784
     3   O  -   8   C       0.030471       0.015585
     3   O  -   9   C       0.030471       0.015585

     4   H  -   3   O       0.861477       0.973784

     5   H  -   1   C       0.960254       0.986070

     6   H  -   1   C       0.955493       0.979904

     7   H  -   1   C       0.955493       0.979904

     8   C  -   2   C       0.994890       0.973671
     8   C  -  14   H       0.959781       0.980671
     8   C  -  10   H       0.956127       0.979785
     8   C  -  12   H       0.955410       0.978936
     8   C  -   3   O       0.030471       0.015585

     9   C  -   2   C       0.994890       0.973671
     9   C  -  15   H       0.959781       0.980671
     9   C  -  11   H       0.956127       0.979785
     9   C  -  13   H       0.955410       0.978936
     9   C  -   3   O       0.030471       0.015585

    10   H  -   8   C       0.956127       0.979785

    11   H  -   9   C       0.956127       0.979785

    12   H  -   8   C       0.955410       0.978936

    13   H  -   9   C       0.955410       0.978936

    14   H  -   8   C       0.959781       0.980671

    15   H  -   9   C       0.959781       0.980671


 Valency analysis:

   CEN ATOM   TOT.VALENCE
     1   C       3.932691
     2   C       3.934305
     3   O       1.934114
     4   H       0.882990
     5   H       0.980447
     6   H       0.977896
     7   H       0.977896
     8   C       3.935434
     9   C       3.935434
    10   H       0.977961
    11   H       0.977961
    12   H       0.979810
    13   H       0.979810
    14   H       0.982184
    15   H       0.982184

 Total charge composition:

   CEN ATOM         s          p       ELECTRONS ->P.CHARGE
     1   C       3.04559    3.38393      6.42952   -0.42952
     2   C       2.94094    2.81091      5.75185    0.24815
     3   O       3.65271    4.90738      8.56009   -0.56009
     4   H       0.65793                 0.65793    0.34207
     5   H       0.86017                 0.86017    0.13983
     6   H       0.85133                 0.85133    0.14867
     7   H       0.85133                 0.85133    0.14867
     8   C       3.05238    3.39053      6.44292   -0.44292
     9   C       3.05238    3.39053      6.44292   -0.44292
    10   H       0.85155                 0.85155    0.14845
    11   H       0.85155                 0.85155    0.14845
    12   H       0.85791                 0.85791    0.14209
    13   H       0.85791                 0.85791    0.14209
    14   H       0.86652                 0.86652    0.13348
    15   H       0.86652                 0.86652    0.13348

 Total charge composition, AO contributions:

   CEN ATOM SHL      SPHERICAL COMPONENTS
     1   C  1s       1.99137
     1   C  2s       1.05422
     1   C  2p       1.04057    1.16535    1.17801

     2   C  1s       1.99298
     2   C  2s       0.94796
     2   C  2p       1.00781    0.79219    1.01091

     3   O  1s       1.99720
     3   O  2s       1.65551
     3   O  2p       1.47013    1.48602    1.95123

     4   H  1s       0.65793

     5   H  1s       0.86017

     6   H  1s       0.85133

     7   H  1s       0.85133

     8   C  1s       1.99147
     8   C  2s       1.06092
     8   C  2p       1.14726    1.14677    1.09650

     9   C  1s       1.99147
     9   C  2s       1.06092
     9   C  2p       1.14726    1.14677    1.09650

    10   H  1s       0.85155

    11   H  1s       0.85155

    12   H  1s       0.85791

    13   H  1s       0.85791

    14   H  1s       0.86652

    15   H  1s       0.86652

 Summary of localized orbital composition:   [THRPRINT= 0.020]

   ORB  GRP  ORB.ENERGY      CENTERS/CHARGES
     1   1   -18.607183      O  3   2.000
     2   1    -9.865327      C  2   2.000
     3   1    -9.775063      C  9   2.000
     4   1    -9.775063      C  8   2.000
     5   1    -9.769525      C  1   2.000
     6   1    -0.699753      O  3   1.345   H  4   0.645
     7   1    -0.658364      O  3   1.280   C  2   0.701
     8   1    -0.522863      C  8   1.007   C  2   0.977
     9   1    -0.522863      C  9   1.007   C  2   0.977
    10   1    -0.522599      C  1   0.991   C  2   0.984   (other: 0.025)
    11   1    -0.515193      O  3   1.980
    12   1    -0.458290      C  9   1.137   H 13   0.847
    13   1    -0.458290      C  8   1.137   H 12   0.847
    14   1    -0.456847      C  8   1.129   H 14   0.859
    15   1    -0.456847      C  9   1.129   H 15   0.859
    16   1    -0.454324      C  1   1.133   H  5   0.853
    17   1    -0.452432      C  8   1.146   H 10   0.843
    18   1    -0.452432      C  9   1.146   H 11   0.843
    19   1    -0.448107      C  1   1.145   H  6   0.843
    20   1    -0.448107      C  1   1.145   H  7   0.843
    21   1    -0.255203      O  3   1.951   (other: 0.049)

 Localized orbitals saved to record      2100.2  (orbital set 2)


 **********************************************************************************************************************************
 DATASETS  * FILE   NREC   LENGTH (MB)   RECORD NAMES
              1      20      928.02       500      610      700      900      950      970     1000      129      960     1100   
                                          VAR    BASINP    GEOM    SYMINP    ZMAT    AOBASIS   BASIS     P2S    ABASIS      S 
                                         1400     1410     1200     1210     1080     1600     1650     1300     1700     1800   
                                           T        V       H0       H01     AOSYM     SMH    MOLCAS    ERIS     OPER     GRID   

              2       5        4.33       700     1000      520     1800     2100   
                                         GEOM     BASIS   MCVARS    GRID      RKS  

 PROGRAMS   *        TOTAL      IBBA        KS       INT
 CPU TIMES  *        68.83      0.06     42.20     26.42
 REAL TIME  *       106.53 SEC
 DISK USED  *         3.90 GB      
 **********************************************************************************************************************************
 Molecular orbitals read from record     2100.2  Type=RKS/LOCAL(IBO)  
 Occupation numbers read from record     2100.2  Type=RKS/LOCAL(IBO)  
 Orbital energies read from record       2100.2  Type=RKS/LOCAL(IBO)  
 Redundancy group numbers read from rec  2100.2  Type=RKS/LOCAL(IBO)  

 IBBA/TZVP energy=      0.000000000000

        KS-SCF  
   -233.77359493
 **********************************************************************************************************************************
 Molpro calculation terminated
