
 Primary working directories    : /tmp/sb13343
 Secondary working directories  : /tmp/sb13343
 Wavefunction directory         : /panfs/panasas01/chem/sb13343/wfu/
 Main file repository           : /tmp/sb13343/

 SHA1      : b4a5b34a9e711420743f49e6833241d17c61fb3c
 NAME      : 2099.9.b4a5b34
 ARCHNAME  : linux/x86_64_openmp
 FC        : /cm/shared/languages/GCC-6.1/bin/gfortran
 BLASLIB   : -lblas
 id        : simonbennie

 Nodes     nprocs
 node32-028    1

 Using customized tuning parameters: mindgm=1; mindgv=20; mindgc=4; mindgr=1; noblas=0; minvec=7
 default implementation of scratch files=df  

 memory,500,m
 geomtyp=xyz
 nosym
 noorient
 geometry={
 H         -1.13405        1.76167        0.00000
 C         -1.32915        0.67205        0.00000
 C         -0.06360       -0.12883        0.00000
 C          0.67426       -0.31636        1.28970
 C          0.67426       -0.31636       -1.28970
 H         -1.94006        0.46750        0.88859
 H         -1.94006        0.46750       -0.88859
 H          1.28359        0.56876        1.55544
 H         -0.01165       -0.48291        2.13019
 H          1.36783       -1.16569        1.24157
 H          1.28359        0.56876       -1.55544
 H         -0.01165       -0.48291       -2.13019
 H          1.36783       -1.16569       -1.24157
 }
 basis={ default,sto-3g }
 {ks,MM06-L,direct;wf,33,1,1}
 {ibba,bonds=1}

 Variables initialized (895), CPU time= 0.00 sec
 Commands  initialized (725), CPU time= 0.01 sec, 591 directives.
 Default parameters read. Elapsed time= 0.07 sec

 Checking input...
 Passed
1


                                         ***  PROGRAM SYSTEM MOLPRO  ***
                                       Copyright, TTI GmbH Stuttgart, 2015
                                    Version 2099.9 linked May 26 2017 16:03:21


 **********************************************************************************************************************************
 LABEL *                                                                                 
  64 bit serial version                                                                  DATE: 08-Jun-17          TIME: 20:24:25  
 **********************************************************************************************************************************

 SHA1:             b4a5b34a9e711420743f49e6833241d17c61fb3c
 **********************************************************************************************************************************
 SETTING GEOMTYP        =    XYZ

 Variable memory set to  500000000 words,  buffer space 

 ZSYMEL=NOSYM

 SETTING BASIS          =    STO-3G


 Recomputing integrals since basis changed


 Using spherical harmonics

 Library entry H      S STO-3G               selected for orbital group  1
 Library entry C      S STO-3G               selected for orbital group  2
 Library entry C      P STO-3G               selected for orbital group  2


 PROGRAM * SEWARD (Integral evaluation for generally contracted gaussian basis sets)     Author: Roland Lindh, 1990

 Geometry written to block  1 of record 700


 Point group  C1  



 ATOMIC COORDINATES

 NR  ATOM    CHARGE       X              Y              Z

   1  H       1.00   -2.143043912    3.329073822    0.000000000
   2  C       6.00   -2.511729478    1.269990442    0.000000000
   3  C       6.00   -0.120186582   -0.243453417    0.000000000
   4  C       6.00    1.274166737   -0.597833757    2.437179783
   5  C       6.00    1.274166737   -0.597833757   -2.437179783
   6  H       1.00   -3.666182065    0.883446963    1.679191737
   7  H       1.00   -3.666182065    0.883446963   -1.679191737
   8  H       1.00    2.425633556    1.074800631    2.939355603
   9  H       1.00   -0.022015309   -0.912567643    4.025475693
  10  H       1.00    2.584824085   -2.202834846    2.346227264
  11  H       1.00    2.425633556    1.074800631   -2.939355603
  12  H       1.00   -0.022015309   -0.912567643   -4.025475693
  13  H       1.00    2.584824085   -2.202834846   -2.346227264

 Bond lengths in Bohr (Angstrom)

 1-2  2.091830159  2-3  2.830192527  2-6  2.074092940  2-7  2.074092940  3-4  2.830132841
     ( 1.106948849)     ( 1.497673388)     ( 1.097562717)     ( 1.097562717)     ( 1.497641803)

  3- 5  2.830132841   4- 8  2.091832255   4- 9  2.074085151   4-10  2.074156104   5-11  2.091832255
       ( 1.497641803)       ( 1.106949959)       ( 1.097558596)       ( 1.097596142)       ( 1.106949959)

  5-12  2.074085151   5-13  2.074156104
       ( 1.097558596)       ( 1.097596142)

 Bond angles

  1-2-3  112.17549786   1-2-6  106.35284965   1-2-7  106.35284965   2-3-4  118.89987932

  2-3-5  118.89987932   3-2-6  111.75744418   3-2-7  111.75744418   3-4-8  112.19808176

  3- 4- 9  111.75014522   3- 4-10  111.74379558   3- 5-11  112.19808176   3- 5-12  111.75014522

  3- 5-13  111.74379558   4- 3- 5  118.89276928   6- 2- 7  108.11431090   8- 4- 9  106.34995457

  8- 4-10  106.34572146   9- 4-10  108.12296896  11- 5-12  106.34995457  11- 5-13  106.34572146

 12- 5-13  108.12296896

 NUCLEAR CHARGE:                   33
 NUMBER OF PRIMITIVE AOS:          87
 NUMBER OF SYMMETRY AOS:           87
 NUMBER OF CONTRACTIONS:           29   (  29A   )
 NUMBER OF CORE ORBITALS:           4   (   4A   )
 NUMBER OF VALENCE ORBITALS:       25   (  25A   )


 NUCLEAR REPULSION ENERGY  124.92676597


 Eigenvalues of metric

         1 0.210E+00 0.225E+00 0.225E+00 0.315E+00 0.353E+00 0.353E+00 0.362E+00 0.372E+00


 Contracted 2-electron integrals neglected if value below      1.0D-11
 AO integral compression algorithm  1   Integral accuracy      1.0D-11

     0.786 MB (compressed) written to integral file (100.0%)


 NUMBER OF SORTED TWO-ELECTRON INTEGRALS:      94830.     BUFFER LENGTH:  32768
 NUMBER OF SEGMENTS:   1  SEGMENT LENGTH:      94830      RECORD LENGTH: 524288

 Memory used in sort:       0.65 MW

 SORT1 READ      108770. AND WROTE       91348. INTEGRALS IN      1 RECORDS. CPU TIME:     0.00 SEC, REAL TIME:     0.01 SEC
 SORT2 READ       91348. AND WROTE       94830. INTEGRALS IN      3 RECORDS. CPU TIME:     0.01 SEC, REAL TIME:     0.02 SEC

 FILE SIZES:   FILE 1:    31.0 MBYTE,  FILE 4:     4.2 MBYTE,   TOTAL:     35.2 MBYTE

 OPERATOR DM      FOR CENTER  0  COORDINATES:    0.000000    0.000000    0.000000


 **********************************************************************************************************************************
 DATASETS  * FILE   NREC   LENGTH (MB)   RECORD NAMES
              1      19       30.62       500      610      700      900      950      970     1000      129      960     1100   
                                          VAR    BASINP    GEOM    SYMINP    ZMAT    AOBASIS   BASIS     P2S    ABASIS      S 
                                         1400     1410     1200     1210     1080     1600     1650     1300     1700   
                                           T        V       H0       H01     AOSYM     SMH    MOLCAS    ERIS     OPER   

 PROGRAMS   *        TOTAL       INT
 CPU TIMES  *         0.51      0.37
 REAL TIME  *         0.86 SEC
 DISK USED  *        35.68 MB      
 **********************************************************************************************************************************

 Density functional group MM06-L=M06LX+M06LC
 Functional: M06LX(Automatically generated (new) M06LX)                        Gradient terms: 2
 Functional: M06LC(Automatically generated (new) M06LC)                        Gradient terms: 2
 Use grid at  1800.2

 Functional: M06LX                     Factor:  1.0000
 Functional: M06LC                     Factor:  1.0000

 Generated new metagrid on record  1800.2 with target accuracy 1.0D-06 and 45406 points in CPU time    1.4
 Computed new grid on record 1800.1 in CPU time    1.6
   49557 words reserved for DFT integration

 PROGRAM * RKS-SCF (Restricted open shell Kohn-Sham)     Authors: W. Meyer, H.-J. Werner, P.J. Knowles, 1993

 NUMBER OF ELECTRONS:      17+   16-    SPACE SYMMETRY=1    SPIN SYMMETRY: Doublet 
 CONVERGENCE THRESHOLDS:    1.00E-05 (Density)    1.00E-06 (Energy)
 MAX. NUMBER OF ITERATIONS:       60
 INTERPOLATION TYPE:            DIIS
 INTERPOLATION STEPS:              2 (START)      1 (STEP)
 LEVEL SHIFTS:                 -0.60 (CLOSED) -0.30 (OPEN) 



 Use fine grid record 1800.2 for energy threshold  1.0D-06
 Orbital guess generated from atomic densities. Full valence occupancy:   17

 Molecular orbital dump at record        2100.2

 Initial alpha occupancy:  17
 Initial beta  occupancy:  16
 Wave function symmetry:    1

 ITERATION    DDIFF          GRAD             ENERGY        2-EL.EN.            DIPOLE MOMENTS         DIIS   ORB.
    1      0.000D+00      0.000D+00      -155.59529579    412.405373    0.20185    0.40825   -0.00000    0    start
    2      0.000D+00      0.268D-01      -155.83419637    400.076606   -0.00133   -0.00092   -0.00000    1    diag,B
    3      0.557D-01      0.361D-02      -155.83924033    401.233607    0.03946    0.08339   -0.00000    2    diag,B
    4      0.693D-02      0.563D-03      -155.83966644    401.211759    0.03781    0.08112   -0.00000    3    diag,B
    5      0.133D-02      0.218D-03      -155.83974468    401.202042    0.03635    0.07877   -0.00000    4    diag,B
    6      0.672D-03      0.560D-04      -155.83975037    401.200826    0.03530    0.07674   -0.00000    5    diag,B
    7      0.175D-03      0.170D-04      -155.83975074    401.201553    0.03519    0.07650   -0.00000    6    fixocc
    8      0.577D-04      0.268D-05      -155.83975075    401.201548    0.03522    0.07655   -0.00000    7    diag,B
    9      0.894D-05      0.583D-06      -155.83975075    401.201550    0.03522    0.07654   -0.00000    0    orth

 Final alpha occupancy:  17
 Final beta  occupancy:  16

 !RKS STATE 1.1 Energy               -155.839750753431
 Nuclear energy                       124.92676597
 One-electron energy                 -456.33702068
 Two-electron energy                  200.60077508
 Density functional                   -25.03027113     M06LX=-23.90927911 M06LC= -1.12099202
 Virial quotient                       -1.01508105
 !RKS STATE 1.1 Dipole moment           0.03521547     0.07653635    -0.00000000
 Dipole moment /Debye                   0.08950294     0.19452326    -0.00000000

 Orbital energies:

         1.1          2.1          3.1          4.1          5.1          6.1          7.1          8.1          9.1         10.1
     -9.864635    -9.864208    -9.864192    -9.838388    -0.712591    -0.617750    -0.617533    -0.453550    -0.364007    -0.363952

        11.1         12.1         13.1         14.1         15.1         16.1         17.1         18.1         19.1
     -0.358109    -0.314062    -0.313657    -0.298127    -0.263471    -0.263277    -0.073328     0.353878     0.354323

 HOMO     17.1    -0.073328 =      -1.9954eV
 LUMO     18.1     0.353878 =       9.6295eV
 LUMO-HOMO         0.427207 =      11.6249eV


 **********************************************************************************************************************************
 DATASETS  * FILE   NREC   LENGTH (MB)   RECORD NAMES
              1      20       32.07       500      610      700      900      950      970     1000      129      960     1100   
                                          VAR    BASINP    GEOM    SYMINP    ZMAT    AOBASIS   BASIS     P2S    ABASIS      S 
                                         1400     1410     1200     1210     1080     1600     1650     1300     1700     1800   
                                           T        V       H0       H01     AOSYM     SMH    MOLCAS    ERIS     OPER     GRID   

              2       5        2.99       700     1000      520     1800     2100   
                                         GEOM     BASIS   MCVARS    GRID      RKS  

 PROGRAMS   *        TOTAL        KS       INT
 CPU TIMES  *        10.51     10.00      0.37
 REAL TIME  *        12.28 SEC
 DISK USED  *        35.68 MB      
 **********************************************************************************************************************************


 PROGRAM * Intrinsic Basis Bonding Analysis (IBBA)          Author: G. Knizia

 Molecular orbitals read from record     2100.2  Type=RKS/CANONICAL (state 1.1)
 Fock matrix read from record            2100.2  Type=RKS/TOTAL (state 1.1)
 Orbital energies read from record       2100.2  Type=RKS/CANONICAL (state 1.1)
 Density matrix read from record         2100.2  Type=RKS/CHARGE (state 1.1)

 Number of core orbitals:           4 (   4 )
 Number of closed-shell orbitals:  12 (  12 )
 Number of active  orbitals:        1 (   1 )

 Basis set MINAO-AUTO-PP generated.      Number of basis functions:   29 

 Polarized AO type:                A = (O Ot + (1-O)(1-Ot)) P12
 Orthogonalization method:         Symmetric (Loewdin)
 Localization functional:          L = sum[A,i] <i|n_A|i>^4 -> max

 Localization group 1:  16 orbitals, occupancy  2.000
 Iterative localization: IB/PM,    7 iter; Final gradient 0.74E-09

 Bond order analysis:       [THRPRINT= 0.020]

   CEN ATOM   CEN ATOM     WIBERG.BO      RENORM.BO
     1   H  -   2   C       0.933332       0.998589
     1   H  -   3   C       0.029365       0.202843

     2   C  -   3   C       1.061225       1.321610
     2   C  -   7   H       0.959007       0.989184
     2   C  -   6   H       0.959007       0.989184
     2   C  -   1   H       0.933332       0.998589

     3   C  -   2   C       1.061225       1.321610
     3   C  -   5   C       1.060870       1.320506
     3   C  -   4   C       1.060870       1.320506
     3   C  -  11   H       0.029381       0.202919
     3   C  -   8   H       0.029381       0.202919
     3   C  -   1   H       0.029365       0.202843

     4   C  -   3   C       1.060870       1.320506
     4   C  -  10   H       0.959131       0.989236
     4   C  -   9   H       0.959107       0.989238
     4   C  -   8   H       0.933471       0.998591

     5   C  -   3   C       1.060870       1.320506
     5   C  -  13   H       0.959131       0.989236
     5   C  -  12   H       0.959107       0.989238
     5   C  -  11   H       0.933471       0.998591

     6   H  -   2   C       0.959007       0.989184

     7   H  -   2   C       0.959007       0.989184

     8   H  -   4   C       0.933471       0.998591
     8   H  -   3   C       0.029381       0.202919

     9   H  -   4   C       0.959107       0.989238

    10   H  -   4   C       0.959131       0.989236

    11   H  -   5   C       0.933471       0.998591
    11   H  -   3   C       0.029381       0.202919

    12   H  -   5   C       0.959107       0.989238

    13   H  -   5   C       0.959131       0.989236


 Valency analysis:

   CEN ATOM   TOT.VALENCE
     1   H       0.972780
     2   C       3.940663
     3   C       3.309079
     4   C       3.940698
     5   C       3.940698
     6   H       0.981166
     7   H       0.981166
     8   H       0.972905
     9   H       0.981165
    10   H       0.981140
    11   H       0.972905
    12   H       0.981165
    13   H       0.981140
 Localization group 2:   1 orbitals, occupancy  1.000
 Iterative localization: IB/PM,    1 iter; Final gradient 0.00E+00

 Bond order analysis:       [THRPRINT= 0.020]

   CEN ATOM   CEN ATOM     WIBERG.BO      RENORM.BO
     1   H  -   3   C       0.062135       0.500000


     3   C  -  11   H       0.062379       0.500000
     3   C  -   8   H       0.062379       0.500000
     3   C  -   1   H       0.062135       0.500000





     8   H  -   3   C       0.062379       0.500000



    11   H  -   3   C       0.062379       0.500000




 Valency analysis:

   CEN ATOM   TOT.VALENCE
     1   H       0.071528
     2   C       0.003967
     3   C       0.273651
     4   C       0.003988
     5   C       0.003988
     6   H       0.015207
     7   H       0.015207
     8   H       0.071798
     9   H       0.015173
    10   H       0.015149
    11   H       0.071798
    12   H       0.015173
    13   H       0.015149

 Total charge composition:

   CEN ATOM         s          p       ELECTRONS ->P.CHARGE
     1   H       0.87216                 0.87216    0.12784
     2   C       3.00463    3.39123      6.39585   -0.39585
     3   C       2.97952    2.99232      5.97184    0.02816
     4   C       3.00481    3.39145      6.39626   -0.39626
     5   C       3.00481    3.39145      6.39626   -0.39626
     6   H       0.87043                 0.87043    0.12957
     7   H       0.87043                 0.87043    0.12957
     8   H       0.87268                 0.87268    0.12732
     9   H       0.87041                 0.87041    0.12959
    10   H       0.87030                 0.87030    0.12970
    11   H       0.87268                 0.87268    0.12732
    12   H       0.87041                 0.87041    0.12959
    13   H       0.87030                 0.87030    0.12970

 Total charge composition, AO contributions:

   CEN ATOM SHL      SPHERICAL COMPONENTS
     1   H  1s       0.87216

     2   C  1s       1.99149
     2   C  2s       1.01313
     2   C  2p       1.09704    1.13251    1.16168

     3   C  1s       1.99300
     3   C  2s       0.98652
     3   C  2p       0.99764    0.99629    0.99839

     4   C  1s       1.99149
     4   C  2s       1.01331
     4   C  2p       1.13902    1.15634    1.09609

     5   C  1s       1.99149
     5   C  2s       1.01331
     5   C  2p       1.13902    1.15634    1.09609

     6   H  1s       0.87043

     7   H  1s       0.87043

     8   H  1s       0.87268

     9   H  1s       0.87041

    10   H  1s       0.87030

    11   H  1s       0.87268

    12   H  1s       0.87041

    13   H  1s       0.87030

 Active orbital charges:

   CEN ATOM         s          p       ELECTRONS ->SPIN.DEN
     1   H       0.03714                 0.03714    0.03714
     2   C       0.00010    0.00188      0.00199    0.00199
     3   C       0.01790    0.81852      0.83641    0.83641
     4   C       0.00011    0.00189      0.00200    0.00200
     5   C       0.00011    0.00189      0.00200    0.00200
     6   H       0.00766                 0.00766    0.00766
     7   H       0.00766                 0.00766    0.00766
     8   H       0.03729                 0.03729    0.03729
     9   H       0.00764                 0.00764    0.00764
    10   H       0.00763                 0.00763    0.00763
    11   H       0.03729                 0.03729    0.03729
    12   H       0.00764                 0.00764    0.00764
    13   H       0.00763                 0.00763    0.00763

 Active orbital charges, AO contributions:

   CEN ATOM SHL      SPHERICAL COMPONENTS
     1   H  1s       0.03714

     2   C  1s       0.00000
     2   C  2s       0.00010
     2   C  2p       0.00000    0.00188    0.00000

     3   C  1s       0.00001
     3   C  2s       0.01788
     3   C  2p       0.16095    0.65757    0.00000

     4   C  1s       0.00000
     4   C  2s       0.00011
     4   C  2p       0.00070    0.00083    0.00035

     5   C  1s       0.00000
     5   C  2s       0.00011
     5   C  2p       0.00070    0.00083    0.00035

     6   H  1s       0.00766

     7   H  1s       0.00766

     8   H  1s       0.03729

     9   H  1s       0.00764

    10   H  1s       0.00763

    11   H  1s       0.03729

    12   H  1s       0.00764

    13   H  1s       0.00763

 Summary of localized orbital composition:   [THRPRINT= 0.020]

   ORB  GRP  ORB.ENERGY      CENTERS/CHARGES
     1   1    -9.751181      C  2   2.000
     2   1    -9.750731      C  5   2.000
     3   1    -9.750731      C  4   2.000
     4   1    -9.742462      C  3   2.000
     5   1    -0.507241      C  2   1.008   C  3   0.980
     6   1    -0.507101      C  4   1.008   C  3   0.979
     7   1    -0.507101      C  5   1.008   C  3   0.979
     8   1    -0.430020      C  2   1.125   H  1   0.832   C  3   0.041
     9   1    -0.429677      C  4   1.124   H  8   0.832   C  3   0.041
    10   1    -0.429677      C  5   1.124   H 11   0.832   C  3   0.041
    11   1    -0.427804      C  2   1.127   H  7   0.857
    12   1    -0.427804      C  2   1.127   H  6   0.857
    13   1    -0.427540      C  5   1.127   H 12   0.857
    14   1    -0.427540      C  4   1.127   H  9   0.857
    15   1    -0.427448      C  5   1.127   H 13   0.857
    16   1    -0.427448      C  4   1.127   H 10   0.857
    17   2    -0.004775      C  3   0.836   H 11   0.037   H  8   0.037   H  1   0.037   (other: 0.052)

 Localized orbitals saved to record      2100.2  (orbital set 2)


 **********************************************************************************************************************************
 DATASETS  * FILE   NREC   LENGTH (MB)   RECORD NAMES
              1      20       32.07       500      610      700      900      950      970     1000      129      960     1100   
                                          VAR    BASINP    GEOM    SYMINP    ZMAT    AOBASIS   BASIS     P2S    ABASIS      S 
                                         1400     1410     1200     1210     1080     1600     1650     1300     1700     1800   
                                           T        V       H0       H01     AOSYM     SMH    MOLCAS    ERIS     OPER     GRID   

              2       5        3.00       700     1000      520     1800     2100   
                                         GEOM     BASIS   MCVARS    GRID      RKS  

 PROGRAMS   *        TOTAL      IBBA        KS       INT
 CPU TIMES  *        10.53      0.02     10.00      0.37
 REAL TIME  *        12.38 SEC
 DISK USED  *        35.68 MB      
 **********************************************************************************************************************************
 Molecular orbitals read from record     2100.2  Type=RKS/LOCAL(IBO)  
 Occupation numbers read from record     2100.2  Type=RKS/LOCAL(IBO)  
 Orbital energies read from record       2100.2  Type=RKS/LOCAL(IBO)  
 Redundancy group numbers read from rec  2100.2  Type=RKS/LOCAL(IBO)  

 IBBA/STO-3G energy=      0.000000000000

        KS-SCF  
   -155.83975075
 **********************************************************************************************************************************
 Molpro calculation terminated
