
 Primary working directories    : /tmp/sb13343
 Secondary working directories  : /tmp/sb13343
 Wavefunction directory         : /panfs/panasas01/chem/sb13343/wfu/
 Main file repository           : /tmp/sb13343/

 SHA1      : b4a5b34a9e711420743f49e6833241d17c61fb3c
 NAME      : 2099.9.b4a5b34
 ARCHNAME  : linux/x86_64_openmp
 FC        : /cm/shared/languages/GCC-6.1/bin/gfortran
 BLASLIB   : -lblas
 id        : simonbennie

 Nodes     nprocs
 node32-028    1

 Using customized tuning parameters: mindgm=1; mindgv=20; mindgc=4; mindgr=1; noblas=0; minvec=7
 default implementation of scratch files=df  

 memory,500,m
 geomtyp=xyz
 nosym
 noorient
 geometry={
 H         -1.13405        1.76167        0.00000
 C         -1.32915        0.67205        0.00000
 C         -0.06360       -0.12883        0.00000
 C          0.67426       -0.31636        1.28970
 C          0.67426       -0.31636       -1.28970
 H         -1.94006        0.46750        0.88859
 H         -1.94006        0.46750       -0.88859
 H          1.28359        0.56876        1.55544
 H         -0.01165       -0.48291        2.13019
 H          1.36783       -1.16569        1.24157
 H          1.28359        0.56876       -1.55544
 H         -0.01165       -0.48291       -2.13019
 H          1.36783       -1.16569       -1.24157
 }
 basis={ default,svp }
 {uks,M11-L,direct;wf,33,1,1}
 {ibba,bonds=1}

 Variables initialized (895), CPU time= 0.00 sec
 Commands  initialized (725), CPU time= 0.02 sec, 591 directives.
 Default parameters read. Elapsed time= 0.08 sec

 Checking input...
 Passed
1


                                         ***  PROGRAM SYSTEM MOLPRO  ***
                                       Copyright, TTI GmbH Stuttgart, 2015
                                    Version 2099.9 linked May 26 2017 16:03:21


 **********************************************************************************************************************************
 LABEL *                                                                                 
  64 bit serial version                                                                  DATE: 08-Jun-17          TIME: 20:50:01  
 **********************************************************************************************************************************

 SHA1:             b4a5b34a9e711420743f49e6833241d17c61fb3c
 **********************************************************************************************************************************
 SETTING GEOMTYP        =    XYZ

 Variable memory set to  500000000 words,  buffer space 

 ZSYMEL=NOSYM

 SETTING BASIS          =    SVP


 Recomputing integrals since basis changed


 Using spherical harmonics

 Library entry H      S def2-SVP             selected for orbital group  1
 Library entry H      P def2-SVP             selected for orbital group  1
 Library entry C      S def2-SVP             selected for orbital group  2
 Library entry C      P def2-SVP             selected for orbital group  2
 Library entry C      D def2-SVP             selected for orbital group  2


 PROGRAM * SEWARD (Integral evaluation for generally contracted gaussian basis sets)     Author: Roland Lindh, 1990

 Geometry written to block  1 of record 700


 Point group  C1  



 ATOMIC COORDINATES

 NR  ATOM    CHARGE       X              Y              Z

   1  H       1.00   -2.143043912    3.329073822    0.000000000
   2  C       6.00   -2.511729478    1.269990442    0.000000000
   3  C       6.00   -0.120186582   -0.243453417    0.000000000
   4  C       6.00    1.274166737   -0.597833757    2.437179783
   5  C       6.00    1.274166737   -0.597833757   -2.437179783
   6  H       1.00   -3.666182065    0.883446963    1.679191737
   7  H       1.00   -3.666182065    0.883446963   -1.679191737
   8  H       1.00    2.425633556    1.074800631    2.939355603
   9  H       1.00   -0.022015309   -0.912567643    4.025475693
  10  H       1.00    2.584824085   -2.202834846    2.346227264
  11  H       1.00    2.425633556    1.074800631   -2.939355603
  12  H       1.00   -0.022015309   -0.912567643   -4.025475693
  13  H       1.00    2.584824085   -2.202834846   -2.346227264

 Bond lengths in Bohr (Angstrom)

 1-2  2.091830159  2-3  2.830192527  2-6  2.074092940  2-7  2.074092940  3-4  2.830132841
     ( 1.106948849)     ( 1.497673388)     ( 1.097562717)     ( 1.097562717)     ( 1.497641803)

  3- 5  2.830132841   4- 8  2.091832255   4- 9  2.074085151   4-10  2.074156104   5-11  2.091832255
       ( 1.497641803)       ( 1.106949959)       ( 1.097558596)       ( 1.097596142)       ( 1.106949959)

  5-12  2.074085151   5-13  2.074156104
       ( 1.097558596)       ( 1.097596142)

 Bond angles

  1-2-3  112.17549786   1-2-6  106.35284965   1-2-7  106.35284965   2-3-4  118.89987932

  2-3-5  118.89987932   3-2-6  111.75744418   3-2-7  111.75744418   3-4-8  112.19808176

  3- 4- 9  111.75014522   3- 4-10  111.74379558   3- 5-11  112.19808176   3- 5-12  111.75014522

  3- 5-13  111.74379558   4- 3- 5  118.89276928   6- 2- 7  108.11431090   8- 4- 9  106.34995457

  8- 4-10  106.34572146   9- 4-10  108.12296896  11- 5-12  106.34995457  11- 5-13  106.34572146

 12- 5-13  108.12296896

 NUCLEAR CHARGE:                   33
 NUMBER OF PRIMITIVE AOS:         163
 NUMBER OF SYMMETRY AOS:          159
 NUMBER OF CONTRACTIONS:          101   ( 101A   )
 NUMBER OF CORE ORBITALS:           4   (   4A   )
 NUMBER OF VALENCE ORBITALS:       25   (  25A   )


 NUCLEAR REPULSION ENERGY  124.92676597


 Eigenvalues of metric

         1 0.371E-02 0.424E-02 0.424E-02 0.242E-01 0.242E-01 0.268E-01 0.277E-01 0.371E-01


 Contracted 2-electron integrals neglected if value below      1.0D-11
 AO integral compression algorithm  1   Integral accuracy      1.0D-11

     53.477 MB (compressed) written to integral file ( 46.4%)


 NUMBER OF SORTED TWO-ELECTRON INTEGRALS:   13268976.     BUFFER LENGTH:  32768
 NUMBER OF SEGMENTS:   1  SEGMENT LENGTH:   13268976      RECORD LENGTH: 524288

 Memory used in sort:      13.83 MW

 SORT1 READ    14422061. AND WROTE    12225547. INTEGRALS IN     35 RECORDS. CPU TIME:     0.15 SEC, REAL TIME:     0.32 SEC
 SORT2 READ    12225547. AND WROTE    13268976. INTEGRALS IN    204 RECORDS. CPU TIME:     0.34 SEC, REAL TIME:     0.41 SEC

 FILE SIZES:   FILE 1:    84.0 MBYTE,  FILE 4:   146.8 MBYTE,   TOTAL:    230.9 MBYTE

 OPERATOR DM      FOR CENTER  0  COORDINATES:    0.000000    0.000000    0.000000


 **********************************************************************************************************************************
 DATASETS  * FILE   NREC   LENGTH (MB)   RECORD NAMES
              1      19       77.16       500      610      700      900      950      970     1000      129      960     1100   
                                          VAR    BASINP    GEOM    SYMINP    ZMAT    AOBASIS   BASIS     P2S    ABASIS      S 
                                         1400     1410     1200     1210     1080     1600     1650     1300     1700   
                                           T        V       H0       H01     AOSYM     SMH    MOLCAS    ERIS     OPER   

 PROGRAMS   *        TOTAL       INT
 CPU TIMES  *         2.15      2.01
 REAL TIME  *         2.81 SEC
 DISK USED  *       231.35 MB      
 **********************************************************************************************************************************

 Density functional group M11-L=XC-M11-L
 Functional: XC-M11-L(via MFM 1.6)                                             Gradient terms: 1
 Use grid at  1800.2

 Functional: XC-M11-L                  Factor:  1.0000

 Generated new metagrid on record  1800.2 with target accuracy 1.0D-06 and 45406 points in CPU time    1.3
 Computed new grid on record 1800.1 in CPU time    1.4
   84355 words reserved for DFT integration

 PROGRAM * UKS-SCF (Unrestricted Kohn-Sham)     Authors: W. Meyer, H.-J. Werner, P.J. Knowles, 1993

 NUMBER OF ELECTRONS:      17+   16-    SPACE SYMMETRY=1    SPIN SYMMETRY: Doublet 
 CONVERGENCE THRESHOLDS:    1.00E-05 (Density)    1.00E-06 (Energy)
 MAX. NUMBER OF ITERATIONS:       60
 INTERPOLATION TYPE:            DIIS
 INTERPOLATION STEPS:              2 (START)      1 (STEP)
 LEVEL SHIFTS:                 -0.20 (ALPHA)  -0.20 (BETA) 



 Use fine grid record 1800.2 for energy threshold  1.0D-06
 Orbital guess generated from atomic densities. Full valence occupancy:   17

 Molecular orbital dump at record        2200.2

 Initial alpha occupation  17
 Initial beta  occupation  16

 ITERATION    DDIFF          GRAD             ENERGY        2-EL.EN.            DIPOLE MOMENTS         DIIS
    1      0.000D+00      0.000D+00      -157.39020711    412.188118    0.13895    0.28118    0.00000    0
    2      0.116D-01      0.594D-02      -157.59273995    396.088621    0.04480    0.09436    0.00000    1
    3      0.338D-02      0.204D-02      -157.61250360    399.518827    0.05412    0.11061    0.00000    2
    4      0.998D-03      0.323D-03      -157.61349774    399.270700    0.04675    0.09456    0.00000    3
    5      0.525D-03      0.142D-03      -157.61377712    399.260433    0.04352    0.08772    0.00000    4
    6      0.345D-03      0.713D-04      -157.61385739    399.218896    0.03869    0.07794    0.00000    5
    7      0.116D-03      0.186D-04      -157.61386397    399.226374    0.03857    0.07770    0.00000    6
    8      0.390D-04      0.656D-05      -157.61386456    399.223835    0.03762    0.07581    0.00000    7
    9      0.126D-04      0.200D-05      -157.61386461    399.223531    0.03785    0.07626    0.00000    7
   10      0.503D-05      0.699D-06      -157.61386461    399.223927    0.03779    0.07614    0.00000    7
   11      0.265D-05      0.272D-06      -157.61386461    399.223523    0.03779    0.07615    0.00000    8

 Final alpha occupancy:  17
 Final beta  occupancy:  16

 !UKS STATE 1.1 Energy               -157.613864614226
 Nuclear energy                       124.92676597
 One-electron energy                 -457.17058126
 Two-electron energy                  199.61176164
 Density functional                   -24.98181096     XC-M11-L=-24.98181096
 Virial quotient                       -1.00814022
 !UKS STATE 1.1 Dipole moment           0.03778864     0.07614560     0.00000000
 Dipole moment /Debye                   0.09604286     0.19353012     0.00000000

 Orbital energies for positive spin:

         1.1          2.1          3.1          4.1          5.1          6.1          7.1          8.1          9.1         10.1
    -10.376211   -10.355927   -10.355818   -10.355816    -0.779181    -0.662443    -0.662421    -0.508723    -0.410674    -0.410534

        11.1         12.1         13.1         14.1         15.1         16.1         17.1         18.1         19.1
     -0.407618    -0.354416    -0.354415    -0.336860    -0.325762    -0.325554    -0.147360     0.020908     0.070050

 Orbital energies for negative spin:

         1.1          2.1          3.1          4.1          5.1          6.1          7.1          8.1          9.1         10.1
    -10.358846   -10.356960   -10.356856   -10.356846    -0.753747    -0.657033    -0.656921    -0.487930    -0.406045    -0.406032

        11.1         12.1         13.1         14.1         15.1         16.1         17.1         18.1         19.1
     -0.391347    -0.351378    -0.351377    -0.337647    -0.315459    -0.315423    -0.055834     0.019712     0.068251

 HOMO     17.1    -0.147360 =      -4.0099eV
 LUMO    -17.1    -0.055834 =      -1.5193eV
 LUMO-HOMO         0.091526 =       2.4906eV

 EXPECTATION VALUE OF S**2:             0.75543176

 Occupation number threshold for canonical orbitals:  1.999000 (occupied),  0.001000 (virtual)

 Number of pseudo-canonical orbitals per symmetry:   15
 Number of active natural orbitals per symmetry:      3

 Natural orbitals saved to record    2200.2 (Orbital set 3)

 Orbital spaces for UNO-CAS (Min. occupation: 0.020  Max. occupation: 1.980):

 Closed:       16
 Active:        1


 **********************************************************************************************************************************
 DATASETS  * FILE   NREC   LENGTH (MB)   RECORD NAMES
              1      20       78.61       500      610      700      900      950      970     1000      129      960     1100   
                                          VAR    BASINP    GEOM    SYMINP    ZMAT    AOBASIS   BASIS     P2S    ABASIS      S 
                                         1400     1410     1200     1210     1080     1600     1650     1300     1700     1800   
                                           T        V       H0       H01     AOSYM     SMH    MOLCAS    ERIS     OPER     GRID   

              2       5        3.39       700     1000      520     1800     2200   
                                         GEOM     BASIS   MCVARS    GRID      UKS  

 PROGRAMS   *        TOTAL       UKS       INT
 CPU TIMES  *        40.18     38.03      2.01
 REAL TIME  *        41.13 SEC
 DISK USED  *       231.35 MB      
 **********************************************************************************************************************************


 PROGRAM * Intrinsic Basis Bonding Analysis (IBBA)          Author: G. Knizia

 Molecular orbitals read from record     2200.2  Type=UKS/ALPHA (state 1.1)
 Fock matrix read from record            2200.2  Type=UKS/TOTAL (state 1.1)
 Orbital energies read from record       2200.2  Type=UKS/ALPHA (state 1.1)
 Density matrix read from record         2200.2  Type=UKS/CHARGE (state 1.1)

 Number of core orbitals:           4 (   4 )
 Number of closed-shell orbitals:  12 (  12 )
 Number of active  orbitals:        1 (   1 )

 Basis set MINAO-AUTO-PP generated.      Number of basis functions:   29 

 Polarized AO type:                A = (O Ot + (1-O)(1-Ot)) P12
 Orthogonalization method:         Symmetric (Loewdin)
 Localization functional:          L = sum[A,i] <i|n_A|i>^4 -> max

 Localization group 1:  16 orbitals, occupancy  2.000
 Iterative localization: IB/PM,    8 iter; Final gradient 0.68E-09

 Bond order analysis:       [THRPRINT= 0.020]

   CEN ATOM   CEN ATOM     WIBERG.BO      RENORM.BO
     1   H  -   2   C       0.882053       0.995780
     1   H  -   3   C       0.052069       0.176620

     2   C  -   3   C       1.129149       1.306853
     2   C  -   6   H       0.949294       0.986468
     2   C  -   7   H       0.949294       0.986468
     2   C  -   1   H       0.882053       0.995780

     3   C  -   2   C       1.129149       1.306853
     3   C  -   5   C       1.128880       1.306065
     3   C  -   4   C       1.128880       1.306065
     3   C  -   1   H       0.052069       0.176620
     3   C  -  11   H       0.051959       0.176244
     3   C  -   8   H       0.051959       0.176244

     4   C  -   3   C       1.128880       1.306065
     4   C  -   9   H       0.949392       0.986438
     4   C  -  10   H       0.949310       0.986451
     4   C  -   8   H       0.882206       0.995780

     5   C  -   3   C       1.128880       1.306065
     5   C  -  12   H       0.949392       0.986438
     5   C  -  13   H       0.949310       0.986451
     5   C  -  11   H       0.882206       0.995780

     6   H  -   2   C       0.949294       0.986468

     7   H  -   2   C       0.949294       0.986468

     8   H  -   4   C       0.882206       0.995780
     8   H  -   3   C       0.051959       0.176244

     9   H  -   4   C       0.949392       0.986438

    10   H  -   4   C       0.949310       0.986451

    11   H  -   5   C       0.882206       0.995780
    11   H  -   3   C       0.051959       0.176244

    12   H  -   5   C       0.949392       0.986438

    13   H  -   5   C       0.949310       0.986451


 Valency analysis:

   CEN ATOM   TOT.VALENCE
     1   H       0.959361
     2   C       3.953156
     3   C       3.600727
     4   C       3.953108
     5   C       3.953108
     6   H       0.978930
     7   H       0.978930
     8   H       0.959362
     9   H       0.978953
    10   H       0.978928
    11   H       0.959362
    12   H       0.978953
    13   H       0.978928
 Localization group 2:   1 orbitals, occupancy  1.000
 Iterative localization: IB/PM,    1 iter; Final gradient 0.00E+00

 Bond order analysis:       [THRPRINT= 0.020]

   CEN ATOM   CEN ATOM     WIBERG.BO      RENORM.BO
     1   H  -   3   C       0.095554       0.500000


     3   C  -   1   H       0.095554       0.500000
     3   C  -  11   H       0.095456       0.500000
     3   C  -   8   H       0.095456       0.500000





     8   H  -   3   C       0.095456       0.500000



    11   H  -   3   C       0.095456       0.500000




 Valency analysis:

   CEN ATOM   TOT.VALENCE
     1   H       0.125313
     2   C       0.012030
     3   C       0.410696
     4   C       0.011976
     5   C       0.011976
     6   H       0.022859
     7   H       0.022859
     8   H       0.125193
     9   H       0.022730
    10   H       0.022836
    11   H       0.125193
    12   H       0.022730
    13   H       0.022836

 Total charge composition:

   CEN ATOM         s          p       ELECTRONS ->P.CHARGE
     1   H       0.86558                 0.86558    0.13442
     2   C       3.04362    3.31699      6.36062   -0.36062
     3   C       3.02676    3.09542      6.12218   -0.12218
     4   C       3.04378    3.31730      6.36108   -0.36108
     5   C       3.04378    3.31730      6.36108   -0.36108
     6   H       0.86641                 0.86641    0.13359
     7   H       0.86641                 0.86641    0.13359
     8   H       0.86551                 0.86551    0.13449
     9   H       0.86642                 0.86642    0.13358
    10   H       0.86639                 0.86639    0.13361
    11   H       0.86551                 0.86551    0.13449
    12   H       0.86642                 0.86642    0.13358
    13   H       0.86639                 0.86639    0.13361

 Total charge composition, AO contributions:

   CEN ATOM SHL      SPHERICAL COMPONENTS
     1   H  1s       0.86558

     2   C  1s       1.98861
     2   C  2s       1.05502
     2   C  2p       1.07222    1.09867    1.14610

     3   C  1s       1.99061
     3   C  2s       1.03616
     3   C  2p       1.02413    1.05787    1.01342

     4   C  1s       1.98861
     4   C  2s       1.05518
     4   C  2p       1.11631    1.13008    1.07090

     5   C  1s       1.98861
     5   C  2s       1.05518
     5   C  2p       1.11631    1.13008    1.07090

     6   H  1s       0.86641

     7   H  1s       0.86641

     8   H  1s       0.86551

     9   H  1s       0.86642

    10   H  1s       0.86639

    11   H  1s       0.86551

    12   H  1s       0.86642

    13   H  1s       0.86639

 Active orbital charges:

   CEN ATOM         s          p       ELECTRONS ->SPIN.DEN
     1   H       0.06717                 0.06717    0.06717
     2   C       0.00030    0.00575      0.00605    0.00605
     3   C       0.01147    0.69985      0.71131    0.71131
     4   C       0.00030    0.00572      0.00602    0.00602
     5   C       0.00030    0.00572      0.00602    0.00602
     6   H       0.01156                 0.01156    0.01156
     7   H       0.01156                 0.01156    0.01156
     8   H       0.06710                 0.06710    0.06710
     9   H       0.01150                 0.01150    0.01150
    10   H       0.01155                 0.01155    0.01155
    11   H       0.06710                 0.06710    0.06710
    12   H       0.01150                 0.01150    0.01150
    13   H       0.01155                 0.01155    0.01155

 Active orbital charges, AO contributions:

   CEN ATOM SHL      SPHERICAL COMPONENTS
     1   H  1s       0.06717

     2   C  1s       0.00000
     2   C  2s       0.00030
     2   C  2p       0.00001    0.00574    0.00000

     3   C  1s       0.00003
     3   C  2s       0.01143
     3   C  2p       0.13710    0.56275    0.00000

     4   C  1s       0.00000
     4   C  2s       0.00030
     4   C  2p       0.00197    0.00304    0.00071

     5   C  1s       0.00000
     5   C  2s       0.00030
     5   C  2p       0.00197    0.00304    0.00071

     6   H  1s       0.01156

     7   H  1s       0.01156

     8   H  1s       0.06710

     9   H  1s       0.01150

    10   H  1s       0.01155

    11   H  1s       0.06710

    12   H  1s       0.01150

    13   H  1s       0.01155

 Summary of localized orbital composition:   [THRPRINT= 0.020]

   ORB  GRP  ORB.ENERGY      CENTERS/CHARGES
     1   1   -10.266960      C  3   2.000
     2   1   -10.234016      C  2   2.000
     3   1   -10.233886      C  4   2.000
     4   1   -10.233886      C  5   2.000
     5   1    -0.578570      C  3   1.004   C  2   0.984
     6   1    -0.578452      C  3   1.004   C  4   0.984
     7   1    -0.578452      C  3   1.004   C  5   0.984
     8   1    -0.471085      C  2   1.110   H  1   0.792   C  3   0.091
     9   1    -0.471043      C  5   1.111   H 11   0.792   C  3   0.091
    10   1    -0.471043      C  4   1.111   H  8   0.792   C  3   0.091
    11   1    -0.466373      C  2   1.125   H  7   0.849   C  3   0.021
    12   1    -0.466373      C  2   1.125   H  6   0.849   C  3   0.021
    13   1    -0.466262      C  4   1.125   H  9   0.849   C  3   0.021
    14   1    -0.466262      C  5   1.125   H 12   0.849   C  3   0.021
    15   1    -0.466257      C  5   1.125   H 13   0.849   C  3   0.021
    16   1    -0.466257      C  4   1.125   H 10   0.849   C  3   0.021
    17   2    -0.098221      C  3   0.711   H  1   0.067   H 11   0.067   H  8   0.067   (other: 0.087)

 Localized orbitals saved to record      2200.2  (orbital set 4)


 **********************************************************************************************************************************
 DATASETS  * FILE   NREC   LENGTH (MB)   RECORD NAMES
              1      20       78.61       500      610      700      900      950      970     1000      129      960     1100   
                                          VAR    BASINP    GEOM    SYMINP    ZMAT    AOBASIS   BASIS     P2S    ABASIS      S 
                                         1400     1410     1200     1210     1080     1600     1650     1300     1700     1800   
                                           T        V       H0       H01     AOSYM     SMH    MOLCAS    ERIS     OPER     GRID   

              2       5        3.47       700     1000      520     1800     2200   
                                         GEOM     BASIS   MCVARS    GRID      UKS  

 PROGRAMS   *        TOTAL      IBBA       UKS       INT
 CPU TIMES  *        40.21      0.03     38.03      2.01
 REAL TIME  *        41.24 SEC
 DISK USED  *       231.35 MB      
 **********************************************************************************************************************************
 Molecular orbitals read from record     2200.2  Type=UKS/LOCAL(IBO)  
 Occupation numbers read from record     2200.2  Type=UKS/LOCAL(IBO)  
 Orbital energies read from record       2200.2  Type=UKS/LOCAL(IBO)  
 Redundancy group numbers read from rec  2200.2  Type=UKS/BETA (state 1.1)

 IBBA/SVP energy=      0.000000000000

        UKS-SCF 
   -157.61386461
 **********************************************************************************************************************************
 Molpro calculation terminated
