
 Primary working directories    : /tmp/sb13343
 Secondary working directories  : /tmp/sb13343
 Wavefunction directory         : /panfs/panasas01/chem/sb13343/wfu/
 Main file repository           : /tmp/sb13343/

 SHA1      : b4a5b34a9e711420743f49e6833241d17c61fb3c
 NAME      : 2099.9.b4a5b34
 ARCHNAME  : linux/x86_64_openmp
 FC        : /cm/shared/languages/GCC-6.1/bin/gfortran
 BLASLIB   : -lblas
 id        : simonbennie

 Nodes     nprocs
 node32-014    1

 Using customized tuning parameters: mindgm=1; mindgv=20; mindgc=4; mindgr=1; noblas=0; minvec=7
 default implementation of scratch files=df  

 memory,500,m
 geomtyp=xyz
 nosym
 noorient
 geometry={
 C          0.00000        0.00000        0.00000
 C          1.54025       -0.00009       -0.00004
 C         -0.51333        1.45219       -0.00005
 C         -0.51349       -0.72611       -1.25756
 C         -0.51342       -0.72599        1.25765
 H         -1.60999        1.48489       -0.00002
 H         -1.61015       -0.74237       -1.28580
 H         -1.61008       -0.74225        1.28596
 H         -0.16312        1.99638        0.88591
 H         -0.16316        1.99630       -0.88608
 H         -0.16333       -0.23096       -2.17186
 H         -0.16339       -1.76551       -1.28580
 H         -0.16332       -1.76539        1.28596
 H         -0.16320       -0.23077        2.17189
 H          1.93652       -1.02316       -0.00001
 H          1.93658        0.51138       -0.88607
 H          1.93663        0.51146        0.88592
 }
 basis={ default,sto-3g }
 {ks,S-VWN,direct;wf,42,1,0}
 {ibba,bonds=1}

 Variables initialized (895), CPU time= 0.00 sec
 Commands  initialized (725), CPU time= 0.02 sec, 591 directives.
 Default parameters read. Elapsed time= 0.08 sec

 Checking input...
 Passed
1


                                         ***  PROGRAM SYSTEM MOLPRO  ***
                                       Copyright, TTI GmbH Stuttgart, 2015
                                    Version 2099.9 linked May 26 2017 16:03:21


 **********************************************************************************************************************************
 LABEL *                                                                                 
  64 bit serial version                                                                  DATE: 08-Jun-17          TIME: 22:12:44  
 **********************************************************************************************************************************

 SHA1:             b4a5b34a9e711420743f49e6833241d17c61fb3c
 **********************************************************************************************************************************
 SETTING GEOMTYP        =    XYZ

 Variable memory set to  500000000 words,  buffer space 

 ZSYMEL=NOSYM

 SETTING BASIS          =    STO-3G


 Recomputing integrals since basis changed


 Using spherical harmonics

 Library entry C      S STO-3G               selected for orbital group  1
 Library entry C      P STO-3G               selected for orbital group  1
 Library entry H      S STO-3G               selected for orbital group  2


 PROGRAM * SEWARD (Integral evaluation for generally contracted gaussian basis sets)     Author: Roland Lindh, 1990

 Geometry written to block  1 of record 700


 Point group  C1  



 ATOMIC COORDINATES

 NR  ATOM    CHARGE       X              Y              Z

   1  C       6.00    0.000000000    0.000000000    0.000000000
   2  C       6.00    2.910650663   -0.000170075   -0.000075589
   3  C       6.00   -0.970053112    2.744241381   -0.000094486
   4  C       6.00   -0.970355468   -1.372149036   -2.376443985
   5  C       6.00   -0.970223187   -1.371922269    2.376614061
   6  H       1.00   -3.042440163    2.806035425   -0.000037795
   7  H       1.00   -3.042742519   -1.402875983   -2.429809851
   8  H       1.00   -3.042610239   -1.402649216    2.430112207
   9  H       1.00   -0.308252125    3.772611441    1.674127271
  10  H       1.00   -0.308327714    3.772460262   -1.674448524
  11  H       1.00   -0.308648968   -0.436451146   -4.104220581
  12  H       1.00   -0.308762351   -3.336330370   -2.429809851
  13  H       1.00   -0.308630071   -3.336103603    2.430112207
  14  H       1.00   -0.308403304   -0.436092098    4.104277273
  15  H       1.00    3.659492435   -1.933492182   -0.000018897
  16  H       1.00    3.659605818    0.966368146   -1.674429627
  17  H       1.00    3.659700305    0.966519324    1.674146168

 Bond lengths in Bohr (Angstrom)

  1- 2  2.910650669   1- 3  2.910646630   1- 4  2.910647475   1- 5  2.910635350   2-15  2.073282028
       ( 1.540250003)       ( 1.540247866)       ( 1.540248313)       ( 1.540241896)       ( 1.097133601)

  2-16  2.073304464   2-17  2.073302258   3- 6  2.073308129   3- 9  2.073293037   3-10  2.073300754
       ( 1.097145474)       ( 1.097144306)       ( 1.097147413)       ( 1.097139427)       ( 1.097143510)

  4- 7  2.073301752   4-11  2.073306055   4-12  2.073297296   5- 8  2.073305161   5-13  2.073300706
       ( 1.097144038)       ( 1.097146316)       ( 1.097141681)       ( 1.097145842)       ( 1.097143485)

  5-14  2.073307464
       ( 1.097147061)

 Bond angles

  1- 2-15  111.17643746   1- 2-16  111.17582452   1- 2-17  111.17607088   1- 3- 6  111.17575783

  1- 3- 9  111.17644989   1- 3-10  111.17611121   1- 4- 7  111.17614317   1- 4-11  111.17631877

  1- 4-12  111.17675056   1- 5- 8  111.17663037   1- 5-13  111.17645588   1- 5-14  111.17672823

  2-1-3  109.47117711   2-1-4  109.47117360   2-1-5  109.47107360   3-1-4  109.47144919

  3- 1- 5  109.47121161   4- 1- 5  109.47123870   6- 3- 9  107.71338639   6- 3-10  107.71391335

  7- 4-11  107.71323113   7- 4-12  107.71354587   8- 5-13  107.71328790   8- 5-14  107.71342022

  9- 3-10  107.71420977  11- 4-12  107.71378459  13- 5-14  107.71321488  15- 2-16  107.71365571

 15- 2-17  107.71411853  16- 2-17  107.71372051

 NUCLEAR CHARGE:                   42
 NUMBER OF PRIMITIVE AOS:         111
 NUMBER OF SYMMETRY AOS:          111
 NUMBER OF CONTRACTIONS:           37   (  37A   )
 NUMBER OF CORE ORBITALS:           5   (   5A   )
 NUMBER OF VALENCE ORBITALS:       32   (  32A   )


 NUCLEAR REPULSION ENERGY  197.66618863


 Eigenvalues of metric

         1 0.202E+00 0.229E+00 0.229E+00 0.229E+00 0.312E+00 0.362E+00 0.362E+00 0.362E+00


 Contracted 2-electron integrals neglected if value below      1.0D-11
 AO integral compression algorithm  1   Integral accuracy      1.0D-11

     2.097 MB (compressed) written to integral file ( 90.5%)


 NUMBER OF SORTED TWO-ELECTRON INTEGRALS:     247456.     BUFFER LENGTH:  32768
 NUMBER OF SEGMENTS:   1  SEGMENT LENGTH:     247456      RECORD LENGTH: 524288

 Memory used in sort:       0.80 MW

 SORT1 READ      274857. AND WROTE      242287. INTEGRALS IN      1 RECORDS. CPU TIME:     0.01 SEC, REAL TIME:     0.01 SEC
 SORT2 READ      242287. AND WROTE      247456. INTEGRALS IN      8 RECORDS. CPU TIME:     0.02 SEC, REAL TIME:     0.03 SEC

 FILE SIZES:   FILE 1:    32.4 MBYTE,  FILE 4:     4.2 MBYTE,   TOTAL:     36.6 MBYTE

 OPERATOR DM      FOR CENTER  0  COORDINATES:    0.000000    0.000000    0.000000


 **********************************************************************************************************************************
 DATASETS  * FILE   NREC   LENGTH (MB)   RECORD NAMES
              1      19       31.36       500      610      700      900      950      970     1000      129      960     1100   
                                          VAR    BASINP    GEOM    SYMINP    ZMAT    AOBASIS   BASIS     P2S    ABASIS      S 
                                         1400     1410     1200     1210     1080     1600     1650     1300     1700   
                                           T        V       H0       H01     AOSYM     SMH    MOLCAS    ERIS     OPER   

 PROGRAMS   *        TOTAL       INT
 CPU TIMES  *         0.73      0.58
 REAL TIME  *         1.03 SEC
 DISK USED  *        37.15 MB      
 **********************************************************************************************************************************

 Density functional group S-VWN=DIRAC+VWN5
 Functional: DIRAC(Automatically generated (new) DIRAC)                        Gradient terms: 0
 Functional: VWN5(Automatically generated (new) VWN5)                          Gradient terms: 0
 Use grid at  1800.2

 Functional: DIRAC                     Factor:  1.0000
 Functional: VWN5                      Factor:  1.0000

 Generated new metagrid on record  1800.2 with target accuracy 1.0D-06 and 57016 points in CPU time    1.8
 Computed new grid on record 1800.1 in CPU time    2.0
   19926 words reserved for DFT integration

 PROGRAM * RKS-SCF (Restricted closed shell Kohn-Sham)     Authors: W. Meyer, H.-J. Werner, P.J. Knowles, 1993

 NUMBER OF ELECTRONS:      21+   21-    SPACE SYMMETRY=1    SPIN SYMMETRY: Singlet 
 CONVERGENCE THRESHOLDS:    1.00E-05 (Density)    1.00E-06 (Energy)
 MAX. NUMBER OF ITERATIONS:       60
 INTERPOLATION TYPE:            DIIS
 INTERPOLATION STEPS:              2 (START)      1 (STEP)
 LEVEL SHIFTS:                  0.00 (CLOSED)  0.00 (OPEN) 



 Use fine grid record 1800.2 for energy threshold  1.0D-06
 Orbital guess generated from atomic densities. Full valence occupancy:   21

 Molecular orbital dump at record        2100.2

 Initial occupancy:  21

 ITERATION    DDIFF          GRAD             ENERGY        2-EL.EN.            DIPOLE MOMENTS         DIIS   ORB.
    1      0.000D+00      0.000D+00      -193.03564133    605.162130   -0.00001   -0.00008   -0.00000    0    start
    2      0.000D+00      0.335D-01      -192.97218149    566.966507    0.00004   -0.00006    0.00000    1    diag
    3      0.116D+00      0.352D-01      -193.51545984    586.027872    0.00001   -0.00006   -0.00000    2    diag
    4      0.613D-01      0.504D-03      -193.51555208    585.888936    0.00001   -0.00007    0.00000    3    diag
    5      0.111D-02      0.267D-03      -193.51557781    585.872182    0.00001   -0.00007   -0.00000    4    diag
    6      0.501D-03      0.672D-04      -193.51557958    585.863976    0.00001   -0.00007   -0.00000    5    diag
    7      0.108D-03      0.417D-06      -193.51557958    585.863950    0.00001   -0.00007   -0.00000    6    diag
    8      0.630D-06      0.173D-07      -193.51557958    585.863934    0.00001   -0.00007   -0.00000    0    orth

 Final occupancy:  21

 !RKS STATE 1.1 Energy               -193.515579580193
 Nuclear energy                       197.66618863
 One-electron energy                 -654.37250336
 Two-electron energy                  292.93196676
 Density functional                   -29.74123161     DIRAC=-27.14625830 VWN5= -2.59497331
 Virial quotient                       -1.00843659
 !RKS STATE 1.1 Dipole moment           0.00001201    -0.00006564    -0.00000058
 Dipole moment /Debye                   0.00003053    -0.00016683    -0.00000147

 Orbital energies:

         1.1          2.1          3.1          4.1          5.1          6.1          7.1          8.1          9.1         10.1
     -9.608505    -9.569545    -9.569540    -9.569538    -9.569275    -0.689240    -0.563507    -0.563506    -0.563503    -0.426424

        11.1         12.1         13.1         14.1         15.1         16.1         17.1         18.1         19.1         20.1
     -0.349886    -0.349885    -0.349876    -0.302076    -0.302076    -0.266310    -0.266309    -0.266307    -0.222066    -0.222066

        21.1         22.1         23.1
     -0.222063     0.324875     0.324877

 HOMO     21.1    -0.222063 =      -6.0426eV
 LUMO     22.1     0.324875 =       8.8403eV
 LUMO-HOMO         0.546938 =      14.8829eV


 **********************************************************************************************************************************
 DATASETS  * FILE   NREC   LENGTH (MB)   RECORD NAMES
              1      20       33.19       500      610      700      900      950      970     1000      129      960     1100   
                                          VAR    BASINP    GEOM    SYMINP    ZMAT    AOBASIS   BASIS     P2S    ABASIS      S 
                                         1400     1410     1200     1210     1080     1600     1650     1300     1700     1800   
                                           T        V       H0       H01     AOSYM     SMH    MOLCAS    ERIS     OPER     GRID   

              2       5        3.06       700     1000      520     1800     2100   
                                         GEOM     BASIS   MCVARS    GRID      RKS  

 PROGRAMS   *        TOTAL        KS       INT
 CPU TIMES  *         4.75      4.02      0.58
 REAL TIME  *         5.53 SEC
 DISK USED  *        37.15 MB      
 **********************************************************************************************************************************


 PROGRAM * Intrinsic Basis Bonding Analysis (IBBA)          Author: G. Knizia

 Molecular orbitals read from record     2100.2  Type=RKS/CANONICAL (state 1.1)
 Fock matrix read from record            2100.2  Type=RKS/TOTAL (state 1.1)
 Orbital energies read from record       2100.2  Type=RKS/CANONICAL (state 1.1)
 Density matrix read from record         2100.2  Type=RKS/CHARGE (state 1.1)

 Number of core orbitals:           5 (   5 )
 Number of closed-shell orbitals:  16 (  16 )

 Basis set MINAO-AUTO-PP generated.      Number of basis functions:   37 

 Polarized AO type:                A = (O Ot + (1-O)(1-Ot)) P12
 Orthogonalization method:         Symmetric (Loewdin)
 Localization functional:          L = sum[A,i] <i|n_A|i>^4 -> max

 Localization group 1:  21 orbitals, occupancy  2.000
 Iterative localization: IB/PM,    8 iter; Final gradient 0.14E-09

 Bond order analysis:       [THRPRINT= 0.020]

   CEN ATOM   CEN ATOM     WIBERG.BO      RENORM.BO
     1   C  -   5   C       0.995005       0.994888
     1   C  -   4   C       0.995003       0.994886
     1   C  -   3   C       0.995003       0.994887
     1   C  -   2   C       0.995001       0.994884

     2   C  -   1   C       0.995001       0.994884
     2   C  -  15   H       0.961234       0.985366
     2   C  -  17   H       0.961229       0.985366
     2   C  -  16   H       0.961229       0.985366

     3   C  -   1   C       0.995003       0.994887
     3   C  -  10   H       0.961234       0.985366
     3   C  -   9   H       0.961234       0.985366
     3   C  -   6   H       0.961232       0.985367

     4   C  -   1   C       0.995003       0.994886
     4   C  -  11   H       0.961234       0.985366
     4   C  -   7   H       0.961232       0.985366
     4   C  -  12   H       0.961228       0.985366

     5   C  -   1   C       0.995005       0.994888
     5   C  -  14   H       0.961234       0.985366
     5   C  -   8   H       0.961232       0.985365
     5   C  -  13   H       0.961227       0.985365

     6   H  -   3   C       0.961232       0.985367

     7   H  -   4   C       0.961232       0.985366

     8   H  -   5   C       0.961232       0.985365

     9   H  -   3   C       0.961234       0.985366

    10   H  -   3   C       0.961234       0.985366

    11   H  -   4   C       0.961234       0.985366

    12   H  -   4   C       0.961228       0.985366

    13   H  -   5   C       0.961227       0.985365

    14   H  -   5   C       0.961234       0.985366

    15   H  -   2   C       0.961234       0.985366

    16   H  -   2   C       0.961229       0.985366

    17   H  -   2   C       0.961229       0.985366


 Valency analysis:

   CEN ATOM   TOT.VALENCE
     1   C       3.993383
     2   C       3.923554
     3   C       3.923562
     4   C       3.923557
     5   C       3.923557
     6   H       0.980061
     7   H       0.980063
     8   H       0.980063
     9   H       0.980064
    10   H       0.980064
    11   H       0.980064
    12   H       0.980057
    13   H       0.980057
    14   H       0.980064
    15   H       0.980064
    16   H       0.980059
    17   H       0.980059

 Total charge composition:

   CEN ATOM         s          p       ELECTRONS ->P.CHARGE
     1   C       2.92714    3.06936      5.99649    0.00351
     2   C       2.99598    3.42851      6.42450   -0.42450
     3   C       2.99598    3.42849      6.42447   -0.42447
     4   C       2.99598    3.42851      6.42449   -0.42449
     5   C       2.99598    3.42851      6.42449   -0.42449
     6   H       0.85880                 0.85880    0.14120
     7   H       0.85880                 0.85880    0.14120
     8   H       0.85880                 0.85880    0.14120
     9   H       0.85880                 0.85880    0.14120
    10   H       0.85880                 0.85880    0.14120
    11   H       0.85880                 0.85880    0.14120
    12   H       0.85878                 0.85878    0.14122
    13   H       0.85878                 0.85878    0.14122
    14   H       0.85880                 0.85880    0.14120
    15   H       0.85880                 0.85880    0.14120
    16   H       0.85879                 0.85879    0.14121
    17   H       0.85879                 0.85879    0.14121

 Total charge composition, AO contributions:

   CEN ATOM SHL      SPHERICAL COMPONENTS
     1   C  1s       1.99366
     1   C  2s       0.93347
     1   C  2p       1.02312    1.02312    1.02312

     2   C  1s       1.99290
     2   C  2s       1.00308
     2   C  2p       1.06092    1.18379    1.18380

     3   C  1s       1.99290
     3   C  2s       1.00308
     3   C  2p       1.17014    1.07457    1.18378

     4   C  1s       1.99290
     4   C  2s       1.00308
     4   C  2p       1.17013    1.15649    1.10188

     5   C  1s       1.99290
     5   C  2s       1.00308
     5   C  2p       1.17014    1.15650    1.10187

     6   H  1s       0.85880

     7   H  1s       0.85880

     8   H  1s       0.85880

     9   H  1s       0.85880

    10   H  1s       0.85880

    11   H  1s       0.85880

    12   H  1s       0.85878

    13   H  1s       0.85878

    14   H  1s       0.85880

    15   H  1s       0.85880

    16   H  1s       0.85879

    17   H  1s       0.85879

 Summary of localized orbital composition:   [THRPRINT= 0.020]

   ORB  GRP  ORB.ENERGY      CENTERS/CHARGES
     1   1    -9.514550      C  1   2.000
     2   1    -9.463006      C  3   2.000
     3   1    -9.463000      C  4   2.000
     4   1    -9.462999      C  5   2.000
     5   1    -9.462996      C  2   2.000
     6   1    -0.435495      C  5   0.991   C  1   0.985   (other: 0.024)
     7   1    -0.435492      C  3   0.991   C  1   0.985   (other: 0.024)
     8   1    -0.435491      C  4   0.991   C  1   0.985   (other: 0.024)
     9   1    -0.435489      C  2   0.991   C  1   0.985   (other: 0.024)
    10   1    -0.391923      C  3   1.141   H  9   0.851
    11   1    -0.391923      C  2   1.141   H 15   0.851
    12   1    -0.391921      C  3   1.141   H 10   0.851
    13   1    -0.391919      C  3   1.141   H  6   0.851
    14   1    -0.391916      C  4   1.141   H  7   0.851
    15   1    -0.391915      C  4   1.141   H 11   0.851
    16   1    -0.391915      C  5   1.141   H 14   0.851
    17   1    -0.391915      C  5   1.141   H  8   0.851
    18   1    -0.391913      C  2   1.141   H 17   0.851
    19   1    -0.391912      C  2   1.141   H 16   0.851
    20   1    -0.391909      C  4   1.141   H 12   0.851
    21   1    -0.391906      C  5   1.141   H 13   0.851

 Localized orbitals saved to record      2100.2  (orbital set 2)


 **********************************************************************************************************************************
 DATASETS  * FILE   NREC   LENGTH (MB)   RECORD NAMES
              1      20       33.19       500      610      700      900      950      970     1000      129      960     1100   
                                          VAR    BASINP    GEOM    SYMINP    ZMAT    AOBASIS   BASIS     P2S    ABASIS      S 
                                         1400     1410     1200     1210     1080     1600     1650     1300     1700     1800   
                                           T        V       H0       H01     AOSYM     SMH    MOLCAS    ERIS     OPER     GRID   

              2       5        3.07       700     1000      520     1800     2100   
                                         GEOM     BASIS   MCVARS    GRID      RKS  

 PROGRAMS   *        TOTAL      IBBA        KS       INT
 CPU TIMES  *         4.79      0.03      4.02      0.58
 REAL TIME  *         5.67 SEC
 DISK USED  *        37.15 MB      
 **********************************************************************************************************************************
 Molecular orbitals read from record     2100.2  Type=RKS/LOCAL(IBO)  
 Occupation numbers read from record     2100.2  Type=RKS/LOCAL(IBO)  
 Orbital energies read from record       2100.2  Type=RKS/LOCAL(IBO)  
 Redundancy group numbers read from rec  2100.2  Type=RKS/LOCAL(IBO)  

 IBBA/STO-3G energy=      0.000000000000

        KS-SCF  
   -193.51557958
 **********************************************************************************************************************************
 Molpro calculation terminated
