
 Primary working directories    : /tmp/sb13343
 Secondary working directories  : /tmp/sb13343
 Wavefunction directory         : /panfs/panasas01/chem/sb13343/wfu/
 Main file repository           : /tmp/sb13343/

 SHA1      : b4a5b34a9e711420743f49e6833241d17c61fb3c
 NAME      : 2099.9.b4a5b34
 ARCHNAME  : linux/x86_64_openmp
 FC        : /cm/shared/languages/GCC-6.1/bin/gfortran
 BLASLIB   : -lblas
 id        : simonbennie

 Nodes     nprocs
 node32-018    1

 Using customized tuning parameters: mindgm=1; mindgv=20; mindgc=4; mindgr=1; noblas=0; minvec=7
 default implementation of scratch files=df  

 memory,500,m
 geomtyp=xyz
 nosym
 noorient
 geometry={
 H         -1.13405        1.76167        0.00000
 C         -1.32915        0.67205        0.00000
 C         -0.06360       -0.12883        0.00000
 C          0.67426       -0.31636        1.28970
 C          0.67426       -0.31636       -1.28970
 H         -1.94006        0.46750        0.88859
 H         -1.94006        0.46750       -0.88859
 H          1.28359        0.56876        1.55544
 H         -0.01165       -0.48291        2.13019
 H          1.36783       -1.16569        1.24157
 H          1.28359        0.56876       -1.55544
 H         -0.01165       -0.48291       -2.13019
 H          1.36783       -1.16569       -1.24157
 }
 basis={ default,sto-3g }
 {uks,VS99,direct;wf,33,1,1}
 {ibba,bonds=1}

 Variables initialized (895), CPU time= 0.00 sec
 Commands  initialized (725), CPU time= 0.01 sec, 591 directives.
 Default parameters read. Elapsed time= 0.08 sec

 Checking input...
 Passed
1


                                         ***  PROGRAM SYSTEM MOLPRO  ***
                                       Copyright, TTI GmbH Stuttgart, 2015
                                    Version 2099.9 linked May 26 2017 16:03:21


 **********************************************************************************************************************************
 LABEL *                                                                                 
  64 bit serial version                                                                  DATE: 08-Jun-17          TIME: 20:28:09  
 **********************************************************************************************************************************

 SHA1:             b4a5b34a9e711420743f49e6833241d17c61fb3c
 **********************************************************************************************************************************
 SETTING GEOMTYP        =    XYZ

 Variable memory set to  500000000 words,  buffer space 

 ZSYMEL=NOSYM

 SETTING BASIS          =    STO-3G


 Recomputing integrals since basis changed


 Using spherical harmonics

 Library entry H      S STO-3G               selected for orbital group  1
 Library entry C      S STO-3G               selected for orbital group  2
 Library entry C      P STO-3G               selected for orbital group  2


 PROGRAM * SEWARD (Integral evaluation for generally contracted gaussian basis sets)     Author: Roland Lindh, 1990

 Geometry written to block  1 of record 700


 Point group  C1  



 ATOMIC COORDINATES

 NR  ATOM    CHARGE       X              Y              Z

   1  H       1.00   -2.143043912    3.329073822    0.000000000
   2  C       6.00   -2.511729478    1.269990442    0.000000000
   3  C       6.00   -0.120186582   -0.243453417    0.000000000
   4  C       6.00    1.274166737   -0.597833757    2.437179783
   5  C       6.00    1.274166737   -0.597833757   -2.437179783
   6  H       1.00   -3.666182065    0.883446963    1.679191737
   7  H       1.00   -3.666182065    0.883446963   -1.679191737
   8  H       1.00    2.425633556    1.074800631    2.939355603
   9  H       1.00   -0.022015309   -0.912567643    4.025475693
  10  H       1.00    2.584824085   -2.202834846    2.346227264
  11  H       1.00    2.425633556    1.074800631   -2.939355603
  12  H       1.00   -0.022015309   -0.912567643   -4.025475693
  13  H       1.00    2.584824085   -2.202834846   -2.346227264

 Bond lengths in Bohr (Angstrom)

 1-2  2.091830159  2-3  2.830192527  2-6  2.074092940  2-7  2.074092940  3-4  2.830132841
     ( 1.106948849)     ( 1.497673388)     ( 1.097562717)     ( 1.097562717)     ( 1.497641803)

  3- 5  2.830132841   4- 8  2.091832255   4- 9  2.074085151   4-10  2.074156104   5-11  2.091832255
       ( 1.497641803)       ( 1.106949959)       ( 1.097558596)       ( 1.097596142)       ( 1.106949959)

  5-12  2.074085151   5-13  2.074156104
       ( 1.097558596)       ( 1.097596142)

 Bond angles

  1-2-3  112.17549786   1-2-6  106.35284965   1-2-7  106.35284965   2-3-4  118.89987932

  2-3-5  118.89987932   3-2-6  111.75744418   3-2-7  111.75744418   3-4-8  112.19808176

  3- 4- 9  111.75014522   3- 4-10  111.74379558   3- 5-11  112.19808176   3- 5-12  111.75014522

  3- 5-13  111.74379558   4- 3- 5  118.89276928   6- 2- 7  108.11431090   8- 4- 9  106.34995457

  8- 4-10  106.34572146   9- 4-10  108.12296896  11- 5-12  106.34995457  11- 5-13  106.34572146

 12- 5-13  108.12296896

 NUCLEAR CHARGE:                   33
 NUMBER OF PRIMITIVE AOS:          87
 NUMBER OF SYMMETRY AOS:           87
 NUMBER OF CONTRACTIONS:           29   (  29A   )
 NUMBER OF CORE ORBITALS:           4   (   4A   )
 NUMBER OF VALENCE ORBITALS:       25   (  25A   )


 NUCLEAR REPULSION ENERGY  124.92676597


 Eigenvalues of metric

         1 0.210E+00 0.225E+00 0.225E+00 0.315E+00 0.353E+00 0.353E+00 0.362E+00 0.372E+00


 Contracted 2-electron integrals neglected if value below      1.0D-11
 AO integral compression algorithm  1   Integral accuracy      1.0D-11

     0.786 MB (compressed) written to integral file (100.0%)


 NUMBER OF SORTED TWO-ELECTRON INTEGRALS:      94830.     BUFFER LENGTH:  32768
 NUMBER OF SEGMENTS:   1  SEGMENT LENGTH:      94830      RECORD LENGTH: 524288

 Memory used in sort:       0.65 MW

 SORT1 READ      108770. AND WROTE       91348. INTEGRALS IN      1 RECORDS. CPU TIME:     0.01 SEC, REAL TIME:     0.01 SEC
 SORT2 READ       91348. AND WROTE       94830. INTEGRALS IN      3 RECORDS. CPU TIME:     0.01 SEC, REAL TIME:     0.01 SEC

 FILE SIZES:   FILE 1:    31.0 MBYTE,  FILE 4:     4.2 MBYTE,   TOTAL:     35.2 MBYTE

 OPERATOR DM      FOR CENTER  0  COORDINATES:    0.000000    0.000000    0.000000


 **********************************************************************************************************************************
 DATASETS  * FILE   NREC   LENGTH (MB)   RECORD NAMES
              1      19       30.62       500      610      700      900      950      970     1000      129      960     1100   
                                          VAR    BASINP    GEOM    SYMINP    ZMAT    AOBASIS   BASIS     P2S    ABASIS      S 
                                         1400     1410     1200     1210     1080     1600     1650     1300     1700   
                                           T        V       H0       H01     AOSYM     SMH    MOLCAS    ERIS     OPER   

 PROGRAMS   *        TOTAL       INT
 CPU TIMES  *         0.46      0.32
 REAL TIME  *         1.02 SEC
 DISK USED  *        35.68 MB      
 **********************************************************************************************************************************

 Density functional group VS99=VSXC
 Functional: VSXC(Automatically generated (new) VSXC)                          Gradient terms: 2
 Use grid at  1800.2

 Functional: VSXC                      Factor:  1.0000

 Generated new metagrid on record  1800.2 with target accuracy 1.0D-06 and 45406 points in CPU time    1.3
 Computed new grid on record 1800.1 in CPU time    1.4
   49557 words reserved for DFT integration

 PROGRAM * UKS-SCF (Unrestricted Kohn-Sham)     Authors: W. Meyer, H.-J. Werner, P.J. Knowles, 1993

 NUMBER OF ELECTRONS:      17+   16-    SPACE SYMMETRY=1    SPIN SYMMETRY: Doublet 
 CONVERGENCE THRESHOLDS:    1.00E-05 (Density)    1.00E-06 (Energy)
 MAX. NUMBER OF ITERATIONS:       60
 INTERPOLATION TYPE:            DIIS
 INTERPOLATION STEPS:              2 (START)      1 (STEP)
 LEVEL SHIFTS:                 -0.20 (ALPHA)  -0.20 (BETA) 



 Use fine grid record 1800.2 for energy threshold  1.0D-06
 Orbital guess generated from atomic densities. Full valence occupancy:   17

 Molecular orbital dump at record        2200.2

 Initial alpha occupation  17
 Initial beta  occupation  16

 ITERATION    DDIFF          GRAD             ENERGY        2-EL.EN.            DIPOLE MOMENTS         DIIS
    1      0.000D+00      0.000D+00      -155.03283337    411.963760    0.20169    0.40592   -0.00000    0
    2      0.572D-01      0.198D-01      -155.26557534    399.434066    0.03261    0.06534   -0.00000    1
    3      0.788D-02      0.342D-02      -155.27217489    400.962240    0.04312    0.08662   -0.00000    2
    4      0.142D-02      0.818D-03      -155.27301407    400.953560    0.04073    0.08199   -0.00000    3
    5      0.813D-03      0.422D-03      -155.27322981    400.952927    0.03830    0.07714   -0.00000    4
    6      0.204D-03      0.796D-04      -155.27323960    400.947662    0.03814    0.07679   -0.00000    5
    7      0.292D-04      0.175D-04      -155.27323988    400.947405    0.03806    0.07663   -0.00000    6
    8      0.429D-05      0.300D-05      -155.27323989    400.947487    0.03807    0.07665   -0.00000    6
    9      0.145D-05      0.631D-06      -155.27323989    400.947357    0.03807    0.07664   -0.00000    6

 Final alpha occupancy:  17
 Final beta  occupancy:  16

 !UKS STATE 1.1 Energy               -155.273239893107
 Nuclear energy                       124.92676597
 One-electron energy                 -456.21556979
 Two-electron energy                  200.47367872
 Density functional                   -24.45811479     VSXC=-24.45811479
 Virial quotient                       -1.01175974
 !UKS STATE 1.1 Dipole moment           0.03806742     0.07664193    -0.00000000
 Dipole moment /Debye                   0.09675140     0.19479159    -0.00000000

 Orbital energies for positive spin:

         1.1          2.1          3.1          4.1          5.1          6.1          7.1          8.1          9.1         10.1
     -9.757999    -9.757993    -9.757861    -9.743771    -0.707027    -0.602464    -0.602432    -0.447461    -0.352293    -0.350005

        11.1         12.1         13.1         14.1         15.1         16.1         17.1         18.1         19.1
     -0.349990    -0.297830    -0.297828    -0.279717    -0.249554    -0.249504    -0.047857     0.380946     0.381003

 Orbital energies for negative spin:

         1.1          2.1          3.1          4.1          5.1          6.1          7.1          8.1          9.1         10.1
     -9.759112    -9.759098    -9.758969    -9.731917    -0.689367    -0.600189    -0.600161    -0.426775    -0.344878    -0.344856

        11.1         12.1         13.1         14.1         15.1         16.1         17.1         18.1         19.1
     -0.337277    -0.294277    -0.294277    -0.279547    -0.239919    -0.239875     0.059620     0.386856     0.386923

 HOMO     17.1    -0.047857 =      -1.3023eV
 LUMO    -17.1     0.059620 =       1.6223eV
 LUMO-HOMO         0.107477 =       2.9246eV

 EXPECTATION VALUE OF S**2:             0.75525639

 Occupation number threshold for canonical orbitals:  1.999000 (occupied),  0.001000 (virtual)

 Number of pseudo-canonical orbitals per symmetry:   16
 Number of active natural orbitals per symmetry:      1

 Natural orbitals saved to record    2200.2 (Orbital set 3)

 Orbital spaces for UNO-CAS (Min. occupation: 0.020  Max. occupation: 1.980):

 Closed:       16
 Active:        1


 **********************************************************************************************************************************
 DATASETS  * FILE   NREC   LENGTH (MB)   RECORD NAMES
              1      20       32.07       500      610      700      900      950      970     1000      129      960     1100   
                                          VAR    BASINP    GEOM    SYMINP    ZMAT    AOBASIS   BASIS     P2S    ABASIS      S 
                                         1400     1410     1200     1210     1080     1600     1650     1300     1700     1800   
                                           T        V       H0       H01     AOSYM     SMH    MOLCAS    ERIS     OPER     GRID   

              2       5        3.00       700     1000      520     1800     2200   
                                         GEOM     BASIS   MCVARS    GRID      UKS  

 PROGRAMS   *        TOTAL       UKS       INT
 CPU TIMES  *         9.72      9.26      0.32
 REAL TIME  *        10.75 SEC
 DISK USED  *        35.68 MB      
 **********************************************************************************************************************************


 PROGRAM * Intrinsic Basis Bonding Analysis (IBBA)          Author: G. Knizia

 Molecular orbitals read from record     2200.2  Type=UKS/ALPHA (state 1.1)
 Fock matrix read from record            2200.2  Type=UKS/TOTAL (state 1.1)
 Orbital energies read from record       2200.2  Type=UKS/ALPHA (state 1.1)
 Density matrix read from record         2200.2  Type=UKS/CHARGE (state 1.1)

 Number of core orbitals:           4 (   4 )
 Number of closed-shell orbitals:  12 (  12 )
 Number of active  orbitals:        1 (   1 )

 Basis set MINAO-AUTO-PP generated.      Number of basis functions:   29 

 Polarized AO type:                A = (O Ot + (1-O)(1-Ot)) P12
 Orthogonalization method:         Symmetric (Loewdin)
 Localization functional:          L = sum[A,i] <i|n_A|i>^4 -> max

 Localization group 1:  16 orbitals, occupancy  2.000
 Iterative localization: IB/PM,    7 iter; Final gradient 0.89E-08

 Bond order analysis:       [THRPRINT= 0.020]

   CEN ATOM   CEN ATOM     WIBERG.BO      RENORM.BO
     1   H  -   2   C       0.898646       0.996559
     1   H  -   3   C       0.047882       0.181468

     2   C  -   3   C       1.110974       1.311931
     2   C  -   7   H       0.954732       0.988577
     2   C  -   6   H       0.954732       0.988577
     2   C  -   1   H       0.898646       0.996559

     3   C  -   2   C       1.110974       1.311931
     3   C  -   5   C       1.110970       1.311874
     3   C  -   4   C       1.110970       1.311874
     3   C  -   1   H       0.047882       0.181468
     3   C  -  11   H       0.047862       0.181406
     3   C  -   8   H       0.047862       0.181406

     4   C  -   3   C       1.110970       1.311874
     4   C  -   9   H       0.954792       0.988566
     4   C  -  10   H       0.954672       0.988574
     4   C  -   8   H       0.898653       0.996553

     5   C  -   3   C       1.110970       1.311874
     5   C  -  12   H       0.954792       0.988566
     5   C  -  13   H       0.954672       0.988574
     5   C  -  11   H       0.898653       0.996553

     6   H  -   2   C       0.954732       0.988577

     7   H  -   2   C       0.954732       0.988577

     8   H  -   4   C       0.898653       0.996553
     8   H  -   3   C       0.047862       0.181406

     9   H  -   4   C       0.954792       0.988566

    10   H  -   4   C       0.954672       0.988574

    11   H  -   5   C       0.898653       0.996553
    11   H  -   3   C       0.047862       0.181406

    12   H  -   5   C       0.954792       0.988566

    13   H  -   5   C       0.954672       0.988574


 Valency analysis:

   CEN ATOM   TOT.VALENCE
     1   H       0.969391
     2   C       3.954027
     3   C       3.532524
     4   C       3.954015
     5   C       3.954015
     6   H       0.982151
     7   H       0.982151
     8   H       0.969386
     9   H       0.982166
    10   H       0.982146
    11   H       0.969386
    12   H       0.982166
    13   H       0.982146
 Localization group 2:   1 orbitals, occupancy  1.000
 Iterative localization: IB/PM,    1 iter; Final gradient 0.00E+00

 Bond order analysis:       [THRPRINT= 0.020]

   CEN ATOM   CEN ATOM     WIBERG.BO      RENORM.BO
     1   H  -   3   C       0.078786       0.500000


     3   C  -  11   H       0.078818       0.500000
     3   C  -   8   H       0.078818       0.500000
     3   C  -   1   H       0.078786       0.500000





     8   H  -   3   C       0.078818       0.500000



    11   H  -   3   C       0.078818       0.500000




 Valency analysis:

   CEN ATOM   TOT.VALENCE
     1   H       0.098331
     2   C       0.015623
     3   C       0.365132
     4   C       0.015631
     5   C       0.015631
     6   H       0.020150
     7   H       0.020150
     8   H       0.098369
     9   H       0.020068
    10   H       0.020245
    11   H       0.098369
    12   H       0.020068
    13   H       0.020245

 Total charge composition:

   CEN ATOM         s          p       ELECTRONS ->P.CHARGE
     1   H       0.87690                 0.87690    0.12310
     2   C       2.99754    3.32456      6.32211   -0.32211
     3   C       3.02748    3.11635      6.14383   -0.14383
     4   C       2.99748    3.32441      6.32190   -0.32190
     5   C       2.99748    3.32441      6.32190   -0.32190
     6   H       0.87658                 0.87658    0.12342
     7   H       0.87658                 0.87658    0.12342
     8   H       0.87691                 0.87691    0.12309
     9   H       0.87659                 0.87659    0.12341
    10   H       0.87661                 0.87661    0.12339
    11   H       0.87691                 0.87691    0.12309
    12   H       0.87659                 0.87659    0.12341
    13   H       0.87661                 0.87661    0.12339

 Total charge composition, AO contributions:

   CEN ATOM SHL      SPHERICAL COMPONENTS
     1   H  1s       0.87690

     2   C  1s       1.99165
     2   C  2s       1.00589
     2   C  2p       1.07246    1.10092    1.15118

     3   C  1s       1.99310
     3   C  2s       1.03438
     3   C  2p       1.03289    1.05845    1.02500

     4   C  1s       1.99165
     4   C  2s       1.00583
     4   C  2p       1.11936    1.13448    1.07057

     5   C  1s       1.99165
     5   C  2s       1.00583
     5   C  2p       1.11936    1.13448    1.07057

     6   H  1s       0.87658

     7   H  1s       0.87658

     8   H  1s       0.87691

     9   H  1s       0.87659

    10   H  1s       0.87661

    11   H  1s       0.87691

    12   H  1s       0.87659

    13   H  1s       0.87661

 Active orbital charges:

   CEN ATOM         s          p       ELECTRONS ->SPIN.DEN
     1   H       0.05185                 0.05185    0.05185
     2   C       0.00018    0.00770      0.00787    0.00787
     3   C       0.01148    0.74820      0.75968    0.75968
     4   C       0.00018    0.00770      0.00788    0.00788
     5   C       0.00018    0.00770      0.00788    0.00788
     6   H       0.01018                 0.01018    0.01018
     7   H       0.01018                 0.01018    0.01018
     8   H       0.05188                 0.05188    0.05188
     9   H       0.01014                 0.01014    0.01014
    10   H       0.01023                 0.01023    0.01023
    11   H       0.05188                 0.05188    0.05188
    12   H       0.01014                 0.01014    0.01014
    13   H       0.01023                 0.01023    0.01023

 Active orbital charges, AO contributions:

   CEN ATOM SHL      SPHERICAL COMPONENTS
     1   H  1s       0.05185

     2   C  1s       0.00000
     2   C  2s       0.00018
     2   C  2p       0.00013    0.00757    0.00000

     3   C  1s       0.00002
     3   C  2s       0.01147
     3   C  2p       0.14646    0.60173    0.00000

     4   C  1s       0.00000
     4   C  2s       0.00018
     4   C  2p       0.00245    0.00462    0.00062

     5   C  1s       0.00000
     5   C  2s       0.00018
     5   C  2p       0.00245    0.00462    0.00062

     6   H  1s       0.01018

     7   H  1s       0.01018

     8   H  1s       0.05188

     9   H  1s       0.01014

    10   H  1s       0.01023

    11   H  1s       0.05188

    12   H  1s       0.01014

    13   H  1s       0.01023

 Summary of localized orbital composition:   [THRPRINT= 0.020]

   ORB  GRP  ORB.ENERGY      CENTERS/CHARGES
     1   1    -9.646732      C  4   2.000
     2   1    -9.646732      C  5   2.000
     3   1    -9.646591      C  2   2.000
     4   1    -9.638998      C  3   2.000
     5   1    -0.488475      C  3   1.014   C  5   0.974
     6   1    -0.488475      C  3   1.014   C  4   0.974
     7   1    -0.488306      C  3   1.014   C  2   0.974
     8   1    -0.414579      C  5   1.097   H 11   0.819   C  3   0.078
     9   1    -0.414579      C  4   1.097   H  8   0.819   C  3   0.078
    10   1    -0.414504      C  2   1.097   H  1   0.819   C  3   0.078
    11   1    -0.410004      C  4   1.117   H  9   0.860   (other: 0.023)
    12   1    -0.410004      C  5   1.117   H 12   0.860   (other: 0.023)
    13   1    -0.409955      C  2   1.117   H  6   0.860   (other: 0.023)
    14   1    -0.409955      C  2   1.117   H  7   0.860   (other: 0.023)
    15   1    -0.409945      C  5   1.117   H 13   0.860   (other: 0.023)
    16   1    -0.409945      C  4   1.117   H 10   0.860   (other: 0.023)
    17   2     0.005172      C  3   0.760   H 11   0.052   H  8   0.052   H  1   0.052   (other: 0.085)

 Localized orbitals saved to record      2200.2  (orbital set 4)


 **********************************************************************************************************************************
 DATASETS  * FILE   NREC   LENGTH (MB)   RECORD NAMES
              1      20       32.07       500      610      700      900      950      970     1000      129      960     1100   
                                          VAR    BASINP    GEOM    SYMINP    ZMAT    AOBASIS   BASIS     P2S    ABASIS      S 
                                         1400     1410     1200     1210     1080     1600     1650     1300     1700     1800   
                                           T        V       H0       H01     AOSYM     SMH    MOLCAS    ERIS     OPER     GRID   

              2       5        3.01       700     1000      520     1800     2200   
                                         GEOM     BASIS   MCVARS    GRID      UKS  

 PROGRAMS   *        TOTAL      IBBA       UKS       INT
 CPU TIMES  *         9.75      0.03      9.26      0.32
 REAL TIME  *        10.86 SEC
 DISK USED  *        35.68 MB      
 **********************************************************************************************************************************
 Molecular orbitals read from record     2200.2  Type=UKS/LOCAL(IBO)  
 Occupation numbers read from record     2200.2  Type=UKS/LOCAL(IBO)  
 Orbital energies read from record       2200.2  Type=UKS/LOCAL(IBO)  
 Redundancy group numbers read from rec  2200.2  Type=UKS/BETA (state 1.1)

 IBBA/STO-3G energy=      0.000000000000

        UKS-SCF 
   -155.27323989
 **********************************************************************************************************************************
 Molpro calculation terminated
