
 Primary working directories    : /tmp/sb13343
 Secondary working directories  : /tmp/sb13343
 Wavefunction directory         : /panfs/panasas01/chem/sb13343/wfu/
 Main file repository           : /tmp/sb13343/

 SHA1      : b4a5b34a9e711420743f49e6833241d17c61fb3c
 NAME      : 2099.9.b4a5b34
 ARCHNAME  : linux/x86_64_openmp
 FC        : /cm/shared/languages/GCC-6.1/bin/gfortran
 BLASLIB   : -lblas
 id        : simonbennie

 Nodes     nprocs
 node32-028    1

 Using customized tuning parameters: mindgm=1; mindgv=20; mindgc=4; mindgr=1; noblas=0; minvec=7
 default implementation of scratch files=df  

 memory,500,m
 geomtyp=xyz
 nosym
 noorient
 geometry={
 H         -1.13405        1.76167        0.00000
 C         -1.32915        0.67205        0.00000
 C         -0.06360       -0.12883        0.00000
 C          0.67426       -0.31636        1.28970
 C          0.67426       -0.31636       -1.28970
 H         -1.94006        0.46750        0.88859
 H         -1.94006        0.46750       -0.88859
 H          1.28359        0.56876        1.55544
 H         -0.01165       -0.48291        2.13019
 H          1.36783       -1.16569        1.24157
 H          1.28359        0.56876       -1.55544
 H         -0.01165       -0.48291       -2.13019
 H          1.36783       -1.16569       -1.24157
 }
 basis={ default,svp }
 {uks,M06-L,direct;wf,33,1,1}
 {ibba,bonds=1}

 Variables initialized (895), CPU time= 0.01 sec
 Commands  initialized (725), CPU time= 0.01 sec, 591 directives.
 Default parameters read. Elapsed time= 0.09 sec

 Checking input...
 Passed
1


                                         ***  PROGRAM SYSTEM MOLPRO  ***
                                       Copyright, TTI GmbH Stuttgart, 2015
                                    Version 2099.9 linked May 26 2017 16:03:21


 **********************************************************************************************************************************
 LABEL *                                                                                 
  64 bit serial version                                                                  DATE: 08-Jun-17          TIME: 20:48:25  
 **********************************************************************************************************************************

 SHA1:             b4a5b34a9e711420743f49e6833241d17c61fb3c
 **********************************************************************************************************************************
 SETTING GEOMTYP        =    XYZ

 Variable memory set to  500000000 words,  buffer space 

 ZSYMEL=NOSYM

 SETTING BASIS          =    SVP


 Recomputing integrals since basis changed


 Using spherical harmonics

 Library entry H      S def2-SVP             selected for orbital group  1
 Library entry H      P def2-SVP             selected for orbital group  1
 Library entry C      S def2-SVP             selected for orbital group  2
 Library entry C      P def2-SVP             selected for orbital group  2
 Library entry C      D def2-SVP             selected for orbital group  2


 PROGRAM * SEWARD (Integral evaluation for generally contracted gaussian basis sets)     Author: Roland Lindh, 1990

 Geometry written to block  1 of record 700


 Point group  C1  



 ATOMIC COORDINATES

 NR  ATOM    CHARGE       X              Y              Z

   1  H       1.00   -2.143043912    3.329073822    0.000000000
   2  C       6.00   -2.511729478    1.269990442    0.000000000
   3  C       6.00   -0.120186582   -0.243453417    0.000000000
   4  C       6.00    1.274166737   -0.597833757    2.437179783
   5  C       6.00    1.274166737   -0.597833757   -2.437179783
   6  H       1.00   -3.666182065    0.883446963    1.679191737
   7  H       1.00   -3.666182065    0.883446963   -1.679191737
   8  H       1.00    2.425633556    1.074800631    2.939355603
   9  H       1.00   -0.022015309   -0.912567643    4.025475693
  10  H       1.00    2.584824085   -2.202834846    2.346227264
  11  H       1.00    2.425633556    1.074800631   -2.939355603
  12  H       1.00   -0.022015309   -0.912567643   -4.025475693
  13  H       1.00    2.584824085   -2.202834846   -2.346227264

 Bond lengths in Bohr (Angstrom)

 1-2  2.091830159  2-3  2.830192527  2-6  2.074092940  2-7  2.074092940  3-4  2.830132841
     ( 1.106948849)     ( 1.497673388)     ( 1.097562717)     ( 1.097562717)     ( 1.497641803)

  3- 5  2.830132841   4- 8  2.091832255   4- 9  2.074085151   4-10  2.074156104   5-11  2.091832255
       ( 1.497641803)       ( 1.106949959)       ( 1.097558596)       ( 1.097596142)       ( 1.106949959)

  5-12  2.074085151   5-13  2.074156104
       ( 1.097558596)       ( 1.097596142)

 Bond angles

  1-2-3  112.17549786   1-2-6  106.35284965   1-2-7  106.35284965   2-3-4  118.89987932

  2-3-5  118.89987932   3-2-6  111.75744418   3-2-7  111.75744418   3-4-8  112.19808176

  3- 4- 9  111.75014522   3- 4-10  111.74379558   3- 5-11  112.19808176   3- 5-12  111.75014522

  3- 5-13  111.74379558   4- 3- 5  118.89276928   6- 2- 7  108.11431090   8- 4- 9  106.34995457

  8- 4-10  106.34572146   9- 4-10  108.12296896  11- 5-12  106.34995457  11- 5-13  106.34572146

 12- 5-13  108.12296896

 NUCLEAR CHARGE:                   33
 NUMBER OF PRIMITIVE AOS:         163
 NUMBER OF SYMMETRY AOS:          159
 NUMBER OF CONTRACTIONS:          101   ( 101A   )
 NUMBER OF CORE ORBITALS:           4   (   4A   )
 NUMBER OF VALENCE ORBITALS:       25   (  25A   )


 NUCLEAR REPULSION ENERGY  124.92676597


 Eigenvalues of metric

         1 0.371E-02 0.424E-02 0.424E-02 0.242E-01 0.242E-01 0.268E-01 0.277E-01 0.371E-01


 Contracted 2-electron integrals neglected if value below      1.0D-11
 AO integral compression algorithm  1   Integral accuracy      1.0D-11

     53.477 MB (compressed) written to integral file ( 46.4%)


 NUMBER OF SORTED TWO-ELECTRON INTEGRALS:   13268976.     BUFFER LENGTH:  32768
 NUMBER OF SEGMENTS:   1  SEGMENT LENGTH:   13268976      RECORD LENGTH: 524288

 Memory used in sort:      13.83 MW

 SORT1 READ    14422061. AND WROTE    12225547. INTEGRALS IN     35 RECORDS. CPU TIME:     0.17 SEC, REAL TIME:     0.32 SEC
 SORT2 READ    12225547. AND WROTE    13268976. INTEGRALS IN    204 RECORDS. CPU TIME:     0.32 SEC, REAL TIME:     0.41 SEC

 FILE SIZES:   FILE 1:    84.0 MBYTE,  FILE 4:   146.8 MBYTE,   TOTAL:    230.9 MBYTE

 OPERATOR DM      FOR CENTER  0  COORDINATES:    0.000000    0.000000    0.000000


 **********************************************************************************************************************************
 DATASETS  * FILE   NREC   LENGTH (MB)   RECORD NAMES
              1      19       77.16       500      610      700      900      950      970     1000      129      960     1100   
                                          VAR    BASINP    GEOM    SYMINP    ZMAT    AOBASIS   BASIS     P2S    ABASIS      S 
                                         1400     1410     1200     1210     1080     1600     1650     1300     1700   
                                           T        V       H0       H01     AOSYM     SMH    MOLCAS    ERIS     OPER   

 PROGRAMS   *        TOTAL       INT
 CPU TIMES  *         2.17      2.03
 REAL TIME  *         2.84 SEC
 DISK USED  *       231.35 MB      
 **********************************************************************************************************************************

 Density functional group M06-L=XC-M06-L
 Functional: XC-M06-L(via MFM 1.6)                                             Gradient terms: 1
 Use grid at  1800.2

 Functional: XC-M06-L                  Factor:  1.0000

 Generated new metagrid on record  1800.2 with target accuracy 1.0D-06 and 45406 points in CPU time    1.3
 Computed new grid on record 1800.1 in CPU time    1.4
   84355 words reserved for DFT integration

 PROGRAM * UKS-SCF (Unrestricted Kohn-Sham)     Authors: W. Meyer, H.-J. Werner, P.J. Knowles, 1993

 NUMBER OF ELECTRONS:      17+   16-    SPACE SYMMETRY=1    SPIN SYMMETRY: Doublet 
 CONVERGENCE THRESHOLDS:    1.00E-05 (Density)    1.00E-06 (Energy)
 MAX. NUMBER OF ITERATIONS:       60
 INTERPOLATION TYPE:            DIIS
 INTERPOLATION STEPS:              2 (START)      1 (STEP)
 LEVEL SHIFTS:                 -0.20 (ALPHA)  -0.20 (BETA) 



 Use fine grid record 1800.2 for energy threshold  1.0D-06
 Orbital guess generated from atomic densities. Full valence occupancy:   17

 Molecular orbital dump at record        2200.2

 Initial alpha occupation  17
 Initial beta  occupation  16

 ITERATION    DDIFF          GRAD             ENERGY        2-EL.EN.            DIPOLE MOMENTS         DIIS
    1      0.000D+00      0.000D+00      -157.45745613    412.192493    0.12979    0.26222    0.00000    0
    2      0.124D-01      0.584D-02      -157.63025538    396.307486    0.04879    0.10596    0.00000    1
    3      0.358D-02      0.235D-02      -157.65652530    400.141319    0.05678    0.12106    0.00000    2
    4      0.909D-03      0.308D-03      -157.65738283    399.938898    0.05147    0.11051    0.00000    3
    5      0.349D-03      0.114D-03      -157.65756117    399.932501    0.04851    0.10526    0.00000    4
    6      0.192D-03      0.655D-04      -157.65761622    399.901282    0.04479    0.09815    0.00000    5
    7      0.588D-04      0.210D-04      -157.65762149    399.909358    0.04518    0.09897    0.00000    6
    8      0.182D-04      0.608D-05      -157.65762197    399.908093    0.04445    0.09748    0.00000    7
    9      0.563D-05      0.178D-05      -157.65762199    399.907770    0.04469    0.09796    0.00000    7
   10      0.147D-05      0.461D-06      -157.65762199    399.908120    0.04467    0.09791    0.00000    7

 Final alpha occupancy:  17
 Final beta  occupancy:  16

 !UKS STATE 1.1 Energy               -157.657621994672
 Nuclear energy                       124.92676597
 One-electron energy                 -457.51950155
 Two-electron energy                  199.95406006
 Density functional                   -25.01894648     XC-M06-L=-25.01894648
 Virial quotient                       -1.01219293
 !UKS STATE 1.1 Dipole moment           0.04467241     0.09790564     0.00000000
 Dipole moment /Debye                   0.11353852     0.24883502     0.00000000

 Orbital energies for positive spin:

         1.1          2.1          3.1          4.1          5.1          6.1          7.1          8.1          9.1         10.1
    -10.058325   -10.051285   -10.050650   -10.050643    -0.754910    -0.642734    -0.642435    -0.493779    -0.404095    -0.400040

        11.1         12.1         13.1         14.1         15.1         16.1         17.1         18.1         19.1
     -0.399871    -0.347658    -0.347530    -0.329262    -0.308544    -0.308462    -0.143048     0.074769     0.115385

 Orbital energies for negative spin:

         1.1          2.1          3.1          4.1          5.1          6.1          7.1          8.1          9.1         10.1
    -10.052130   -10.051535   -10.051529   -10.044525    -0.735225    -0.641357    -0.640951    -0.473373    -0.395783    -0.395660

        11.1         12.1         13.1         14.1         15.1         16.1         17.1         18.1         19.1
     -0.383519    -0.342887    -0.342663    -0.328352    -0.305285    -0.305121    -0.039912     0.069991     0.112842

 HOMO     17.1    -0.143048 =      -3.8925eV
 LUMO    -17.1    -0.039912 =      -1.0861eV
 LUMO-HOMO         0.103137 =       2.8065eV

 EXPECTATION VALUE OF S**2:             0.75588500

 Occupation number threshold for canonical orbitals:  1.999000 (occupied),  0.001000 (virtual)

 Number of pseudo-canonical orbitals per symmetry:   15
 Number of active natural orbitals per symmetry:      3

 Natural orbitals saved to record    2200.2 (Orbital set 3)

 Orbital spaces for UNO-CAS (Min. occupation: 0.020  Max. occupation: 1.980):

 Closed:       16
 Active:        1


 **********************************************************************************************************************************
 DATASETS  * FILE   NREC   LENGTH (MB)   RECORD NAMES
              1      20       78.61       500      610      700      900      950      970     1000      129      960     1100   
                                          VAR    BASINP    GEOM    SYMINP    ZMAT    AOBASIS   BASIS     P2S    ABASIS      S 
                                         1400     1410     1200     1210     1080     1600     1650     1300     1700     1800   
                                           T        V       H0       H01     AOSYM     SMH    MOLCAS    ERIS     OPER     GRID   

              2       5        3.39       700     1000      520     1800     2200   
                                         GEOM     BASIS   MCVARS    GRID      UKS  

 PROGRAMS   *        TOTAL       UKS       INT
 CPU TIMES  *        37.98     35.80      2.03
 REAL TIME  *        38.84 SEC
 DISK USED  *       231.35 MB      
 **********************************************************************************************************************************


 PROGRAM * Intrinsic Basis Bonding Analysis (IBBA)          Author: G. Knizia

 Molecular orbitals read from record     2200.2  Type=UKS/ALPHA (state 1.1)
 Fock matrix read from record            2200.2  Type=UKS/TOTAL (state 1.1)
 Orbital energies read from record       2200.2  Type=UKS/ALPHA (state 1.1)
 Density matrix read from record         2200.2  Type=UKS/CHARGE (state 1.1)

 Number of core orbitals:           4 (   4 )
 Number of closed-shell orbitals:  12 (  12 )
 Number of active  orbitals:        1 (   1 )

 Basis set MINAO-AUTO-PP generated.      Number of basis functions:   29 

 Polarized AO type:                A = (O Ot + (1-O)(1-Ot)) P12
 Orthogonalization method:         Symmetric (Loewdin)
 Localization functional:          L = sum[A,i] <i|n_A|i>^4 -> max

 Localization group 1:  16 orbitals, occupancy  2.000
 Iterative localization: IB/PM,    8 iter; Final gradient 0.25E-08

 Bond order analysis:       [THRPRINT= 0.020]

   CEN ATOM   CEN ATOM     WIBERG.BO      RENORM.BO
     1   H  -   2   C       0.878280       0.995420
     1   H  -   3   C       0.053092       0.169636

     2   C  -   3   C       1.134752       1.305494
     2   C  -   7   H       0.947565       0.986490
     2   C  -   6   H       0.947565       0.986490
     2   C  -   1   H       0.878280       0.995420

     3   C  -   5   C       1.134808       1.305575
     3   C  -   4   C       1.134808       1.305575
     3   C  -   2   C       1.134752       1.305494
     3   C  -  11   H       0.053116       0.169745
     3   C  -   8   H       0.053116       0.169745
     3   C  -   1   H       0.053092       0.169636

     4   C  -   3   C       1.134808       1.305575
     4   C  -  10   H       0.947562       0.986516
     4   C  -   9   H       0.947560       0.986456
     4   C  -   8   H       0.878217       0.995435

     5   C  -   3   C       1.134808       1.305575
     5   C  -  13   H       0.947562       0.986516
     5   C  -  12   H       0.947560       0.986456
     5   C  -  11   H       0.878217       0.995435

     6   H  -   2   C       0.947565       0.986490

     7   H  -   2   C       0.947565       0.986490

     8   H  -   4   C       0.878217       0.995435
     8   H  -   3   C       0.053116       0.169745

     9   H  -   4   C       0.947560       0.986456

    10   H  -   4   C       0.947562       0.986516

    11   H  -   5   C       0.878217       0.995435
    11   H  -   3   C       0.053116       0.169745

    12   H  -   5   C       0.947560       0.986456

    13   H  -   5   C       0.947562       0.986516


 Valency analysis:

   CEN ATOM   TOT.VALENCE
     1   H       0.960235
     2   C       3.951880
     3   C       3.626270
     4   C       3.951887
     5   C       3.951887
     6   H       0.978813
     7   H       0.978813
     8   H       0.960180
     9   H       0.978876
    10   H       0.978789
    11   H       0.960180
    12   H       0.978876
    13   H       0.978789
 Localization group 2:   1 orbitals, occupancy  1.000
 Iterative localization: IB/PM,    1 iter; Final gradient 0.00E+00

 Bond order analysis:       [THRPRINT= 0.020]

   CEN ATOM   CEN ATOM     WIBERG.BO      RENORM.BO
     1   H  -   3   C       0.092167       0.500000


     3   C  -   1   H       0.092167       0.500000
     3   C  -  11   H       0.092094       0.500000
     3   C  -   8   H       0.092094       0.500000





     8   H  -   3   C       0.092094       0.500000



    11   H  -   3   C       0.092094       0.500000




 Valency analysis:

   CEN ATOM   TOT.VALENCE
     1   H       0.120847
     2   C       0.015063
     3   C       0.408913
     4   C       0.015092
     5   C       0.015092
     6   H       0.023097
     7   H       0.023097
     8   H       0.120758
     9   H       0.023142
    10   H       0.023049
    11   H       0.120758
    12   H       0.023142
    13   H       0.023049

 Total charge composition:

   CEN ATOM         s          p       ELECTRONS ->P.CHARGE
     1   H       0.86518                 0.86518    0.13482
     2   C       3.02134    3.32876      6.35010   -0.35010
     3   C       3.02504    3.13214      6.15718   -0.15718
     4   C       3.02122    3.32904      6.35026   -0.35026
     5   C       3.02122    3.32904      6.35026   -0.35026
     6   H       0.86613                 0.86613    0.13387
     7   H       0.86613                 0.86613    0.13387
     8   H       0.86499                 0.86499    0.13501
     9   H       0.86637                 0.86637    0.13363
    10   H       0.86602                 0.86602    0.13398
    11   H       0.86499                 0.86499    0.13501
    12   H       0.86637                 0.86637    0.13363
    13   H       0.86602                 0.86602    0.13398

 Total charge composition, AO contributions:

   CEN ATOM SHL      SPHERICAL COMPONENTS
     1   H  1s       0.86518

     2   C  1s       1.99063
     2   C  2s       1.03071
     2   C  2p       1.07398    1.10077    1.15401

     3   C  1s       1.99227
     3   C  2s       1.03277
     3   C  2p       1.03401    1.07865    1.01949

     4   C  1s       1.99063
     4   C  2s       1.03059
     4   C  2p       1.12176    1.13304    1.07424

     5   C  1s       1.99063
     5   C  2s       1.03059
     5   C  2p       1.12176    1.13304    1.07424

     6   H  1s       0.86613

     7   H  1s       0.86613

     8   H  1s       0.86499

     9   H  1s       0.86637

    10   H  1s       0.86602

    11   H  1s       0.86499

    12   H  1s       0.86637

    13   H  1s       0.86602

 Active orbital charges:

   CEN ATOM         s          p       ELECTRONS ->SPIN.DEN
     1   H       0.06460                 0.06460    0.06460
     2   C       0.00024    0.00735      0.00759    0.00759
     3   C       0.01012    0.70329      0.71341    0.71341
     4   C       0.00024    0.00737      0.00760    0.00760
     5   C       0.00024    0.00737      0.00760    0.00760
     6   H       0.01168                 0.01168    0.01168
     7   H       0.01168                 0.01168    0.01168
     8   H       0.06455                 0.06455    0.06455
     9   H       0.01171                 0.01171    0.01171
    10   H       0.01166                 0.01166    0.01166
    11   H       0.06455                 0.06455    0.06455
    12   H       0.01171                 0.01171    0.01171
    13   H       0.01166                 0.01166    0.01166

 Active orbital charges, AO contributions:

   CEN ATOM SHL      SPHERICAL COMPONENTS
     1   H  1s       0.06460

     2   C  1s       0.00000
     2   C  2s       0.00024
     2   C  2p       0.00015    0.00720    0.00000

     3   C  1s       0.00002
     3   C  2s       0.01010
     3   C  2p       0.13809    0.56521    0.00000

     4   C  1s       0.00000
     4   C  2s       0.00024
     4   C  2p       0.00231    0.00454    0.00052

     5   C  1s       0.00000
     5   C  2s       0.00024
     5   C  2p       0.00231    0.00454    0.00052

     6   H  1s       0.01168

     7   H  1s       0.01168

     8   H  1s       0.06455

     9   H  1s       0.01171

    10   H  1s       0.01166

    11   H  1s       0.06455

    12   H  1s       0.01171

    13   H  1s       0.01166

 Summary of localized orbital composition:   [THRPRINT= 0.020]

   ORB  GRP  ORB.ENERGY      CENTERS/CHARGES
     1   1    -9.953054      C  3   2.000
     2   1    -9.936425      C  2   2.000
     3   1    -9.935830      C  4   2.000
     4   1    -9.935830      C  5   2.000
     5   1    -0.554430      C  3   1.009   C  2   0.978
     6   1    -0.554101      C  3   1.008   C  4   0.979
     7   1    -0.554101      C  3   1.008   C  5   0.979
     8   1    -0.460625      C  2   1.105   H  1   0.793   C  3   0.096
     9   1    -0.460423      C  4   1.105   H  8   0.793   C  3   0.096
    10   1    -0.460423      C  5   1.105   H 11   0.793   C  3   0.096
    11   1    -0.455036      C  2   1.125   H  6   0.848   C  3   0.022
    12   1    -0.455036      C  2   1.125   H  7   0.848   C  3   0.022
    13   1    -0.454432      C  5   1.125   H 13   0.848   C  3   0.022
    14   1    -0.454432      C  4   1.125   H 10   0.848   C  3   0.022
    15   1    -0.454404      C  5   1.125   H 12   0.848   C  3   0.022
    16   1    -0.454404      C  4   1.125   H  9   0.848   C  3   0.022
    17   2    -0.089487      C  3   0.713   H  1   0.065   H 11   0.065   H  8   0.065   (other: 0.093)

 Localized orbitals saved to record      2200.2  (orbital set 4)


 **********************************************************************************************************************************
 DATASETS  * FILE   NREC   LENGTH (MB)   RECORD NAMES
              1      20       78.61       500      610      700      900      950      970     1000      129      960     1100   
                                          VAR    BASINP    GEOM    SYMINP    ZMAT    AOBASIS   BASIS     P2S    ABASIS      S 
                                         1400     1410     1200     1210     1080     1600     1650     1300     1700     1800   
                                           T        V       H0       H01     AOSYM     SMH    MOLCAS    ERIS     OPER     GRID   

              2       5        3.47       700     1000      520     1800     2200   
                                         GEOM     BASIS   MCVARS    GRID      UKS  

 PROGRAMS   *        TOTAL      IBBA       UKS       INT
 CPU TIMES  *        38.02      0.04     35.80      2.03
 REAL TIME  *        38.98 SEC
 DISK USED  *       231.35 MB      
 **********************************************************************************************************************************
 Molecular orbitals read from record     2200.2  Type=UKS/LOCAL(IBO)  
 Occupation numbers read from record     2200.2  Type=UKS/LOCAL(IBO)  
 Orbital energies read from record       2200.2  Type=UKS/LOCAL(IBO)  
 Redundancy group numbers read from rec  2200.2  Type=UKS/BETA (state 1.1)

 IBBA/SVP energy=      0.000000000000

        UKS-SCF 
   -157.65762199
 **********************************************************************************************************************************
 Molpro calculation terminated
