
 Primary working directories    : /tmp/sb13343
 Secondary working directories  : /tmp/sb13343
 Wavefunction directory         : /panfs/panasas01/chem/sb13343/wfu/
 Main file repository           : /tmp/sb13343/

 SHA1      : b4a5b34a9e711420743f49e6833241d17c61fb3c
 NAME      : 2099.9.b4a5b34
 ARCHNAME  : linux/x86_64_openmp
 FC        : /cm/shared/languages/GCC-6.1/bin/gfortran
 BLASLIB   : -lblas
 id        : simonbennie

 Nodes     nprocs
 node32-028    1

 Using customized tuning parameters: mindgm=1; mindgv=20; mindgc=4; mindgr=1; noblas=0; minvec=7
 default implementation of scratch files=df  

 memory,500,m
 geomtyp=xyz
 nosym
 noorient
 geometry={
 C         -1.53233        0.02247        0.00000
 C         -0.00192        0.01421        0.00000
 O          0.37239        1.40356        0.00000
 H          1.34248        1.44036        0.00000
 H         -1.92991       -0.99819        0.00000
 H         -1.90797        0.54382       -0.88653
 H         -1.90797        0.54382        0.88653
 C          0.54303       -0.66466       -1.26580
 C          0.54303       -0.66466        1.26580
 H          0.17836       -0.14752       -2.15943
 H          0.17836       -0.14752        2.15943
 H          0.23752       -1.71600       -1.32280
 H          0.23752       -1.71600        1.32280
 H          1.64084       -0.63767       -1.28032
 H          1.64084       -0.63767        1.28032
 }
 basis={ default,svp }
 {uks,PBE,direct;wf,42,1,0}
 {ibba,bonds=1}

 Variables initialized (895), CPU time= 0.01 sec
 Commands  initialized (725), CPU time= 0.01 sec, 591 directives.
 Default parameters read. Elapsed time= 0.08 sec

 Checking input...
 Passed
1


                                         ***  PROGRAM SYSTEM MOLPRO  ***
                                       Copyright, TTI GmbH Stuttgart, 2015
                                    Version 2099.9 linked May 26 2017 16:03:21


 **********************************************************************************************************************************
 LABEL *                                                                                 
  64 bit serial version                                                                  DATE: 09-Jun-17          TIME: 03:39:16  
 **********************************************************************************************************************************

 SHA1:             b4a5b34a9e711420743f49e6833241d17c61fb3c
 **********************************************************************************************************************************
 SETTING GEOMTYP        =    XYZ

 Variable memory set to  500000000 words,  buffer space 

 ZSYMEL=NOSYM

 SETTING BASIS          =    SVP


 Recomputing integrals since basis changed


 Using spherical harmonics

 Library entry C      S def2-SVP             selected for orbital group  1
 Library entry C      P def2-SVP             selected for orbital group  1
 Library entry C      D def2-SVP             selected for orbital group  1
 Library entry O      S def2-SVP             selected for orbital group  2
 Library entry O      P def2-SVP             selected for orbital group  2
 Library entry O      D def2-SVP             selected for orbital group  2
 Library entry H      S def2-SVP             selected for orbital group  3
 Library entry H      P def2-SVP             selected for orbital group  3


 PROGRAM * SEWARD (Integral evaluation for generally contracted gaussian basis sets)     Author: Roland Lindh, 1990

 Geometry written to block  1 of record 700


 Point group  C1  



 ATOMIC COORDINATES

 NR  ATOM    CHARGE       X              Y              Z

   1  C       6.00   -2.895684032    0.042462146    0.000000000
   2  C       6.00   -0.003628274    0.026853008    0.000000000
   3  O       8.00    0.703715112    2.652343999    0.000000000
   4  H       1.00    2.536919528    2.721885921    0.000000000
   5  H       1.00   -3.647001345   -1.886305720    0.000000000
   6  H       1.00   -3.605540754    1.027670861   -1.675298901
   7  H       1.00   -3.605540754    1.027670861    1.675298901
   8  C       6.00    1.026177977   -1.256025366   -2.392015328
   9  C       6.00    1.026177977   -1.256025366    2.392015328
  10  H       1.00    0.337051552   -0.278772398   -4.080731285
  11  H       1.00    0.337051552   -0.278772398    4.080731285
  12  H       1.00    0.448847749   -3.242770030   -2.499729718
  13  H       1.00    0.448847749   -3.242770030    2.499729718
  14  H       1.00    3.100738214   -1.205021658   -2.419454152
  15  H       1.00    3.100738214   -1.205021658    2.419454152

 Bond lengths in Bohr (Angstrom)

 1-2  2.892097881  1-5  2.069933136  1-6  2.069096224  1-7  2.069096224  2-3  2.719106031
     ( 1.530432290)     ( 1.095361444)     ( 1.094918569)     ( 1.094918569)     ( 1.438888946)

  2- 8  2.903104402   2- 9  2.903104402   3- 4  1.834522965   8-10  2.069222119   8-12  2.071730422
       ( 1.536256691)       ( 1.536256691)       ( 0.970787746)       ( 1.094985190)       ( 1.096312526)

  8-14  2.075368508   9-11  2.069222119   9-13  2.071730422   9-15  2.075368508
       ( 1.098237719)       ( 1.094985190)       ( 1.096312526)       ( 1.098237719)

 Bond angles

  1-2-3  104.76902697   1-2-8  110.92255387   1-2-9  110.92255387   2-1-5  110.97328220

  2- 1- 6  110.22090701   2- 1- 7  110.22090701   2- 3- 4  107.25071562   2- 8-10  110.21836376

  2- 8-12  111.57747468   2- 8-14  110.77023896   2- 9-11  110.21836376   2- 9-13  111.57747468

  2- 9-15  110.77023896   3- 2- 8  109.53648747   3- 2- 9  109.53648747   5- 1- 6  108.61190457

  5- 1- 7  108.61190457   6- 1- 7  108.12870271   8- 2- 9  110.96453384  10- 8-12  108.52192632

 10- 8-14  108.08997829  11- 9-13  108.52192632  11- 9-15  108.08997829  12- 8-14  107.54424578

 13- 9-15  107.54424578

 NUCLEAR CHARGE:                   42
 NUMBER OF PRIMITIVE AOS:         195
 NUMBER OF SYMMETRY AOS:          190
 NUMBER OF CONTRACTIONS:          120   ( 120A   )
 NUMBER OF CORE ORBITALS:           5   (   5A   )
 NUMBER OF VALENCE ORBITALS:       30   (  30A   )


 NUCLEAR REPULSION ENERGY  198.77359127


 Eigenvalues of metric

         1 0.176E-02 0.546E-02 0.548E-02 0.123E-01 0.248E-01 0.256E-01 0.256E-01 0.275E-01


 Contracted 2-electron integrals neglected if value below      1.0D-11
 AO integral compression algorithm  1   Integral accuracy      1.0D-11

     101.974 MB (compressed) written to integral file ( 44.9%)


 NUMBER OF SORTED TWO-ELECTRON INTEGRALS:   26357430.     BUFFER LENGTH:  32768
 NUMBER OF SEGMENTS:   2  SEGMENT LENGTH:   15997996      RECORD LENGTH: 524288

 Memory used in sort:      16.56 MW

 SORT1 READ    28411733. AND WROTE    24096425. INTEGRALS IN     70 RECORDS. CPU TIME:     0.34 SEC, REAL TIME:     0.68 SEC
 SORT2 READ    24096425. AND WROTE    26357430. INTEGRALS IN    389 RECORDS. CPU TIME:     0.62 SEC, REAL TIME:     2.99 SEC

 FILE SIZES:   FILE 1:   132.7 MBYTE,  FILE 4:   293.6 MBYTE,   TOTAL:    426.4 MBYTE

 OPERATOR DM      FOR CENTER  0  COORDINATES:    0.000000    0.000000    0.000000


 **********************************************************************************************************************************
 DATASETS  * FILE   NREC   LENGTH (MB)   RECORD NAMES
              1      19      120.44       500      610      700      900      950      970     1000      129      960     1100   
                                          VAR    BASINP    GEOM    SYMINP    ZMAT    AOBASIS   BASIS     P2S    ABASIS      S 
                                         1400     1410     1200     1210     1080     1600     1650     1300     1700   
                                           T        V       H0       H01     AOSYM     SMH    MOLCAS    ERIS     OPER   

 PROGRAMS   *        TOTAL       INT
 CPU TIMES  *         4.05      3.91
 REAL TIME  *         9.02 SEC
 DISK USED  *       426.89 MB      
 **********************************************************************************************************************************

 Density functional group PBE=PBEX+PBEC
 Functional: PBEX(Automatically generated (new) PBEX)                          Gradient terms: 1
 Functional: PBEC(Automatically generated (new) PBEC)                          Gradient terms: 1
 Use grid at  1800.2

 Functional: PBEX                      Factor:  1.0000
 Functional: PBEC                      Factor:  1.0000

 Generated new metagrid on record  1800.2 with target accuracy 1.0D-06 and 53396 points in CPU time    1.5
 Computed new grid on record 1800.1 in CPU time    1.7
   99539 words reserved for DFT integration

 PROGRAM * UKS-SCF (Unrestricted Kohn-Sham)     Authors: W. Meyer, H.-J. Werner, P.J. Knowles, 1993

 NUMBER OF ELECTRONS:      21+   21-    SPACE SYMMETRY=1    SPIN SYMMETRY: Singlet 
 CONVERGENCE THRESHOLDS:    1.00E-05 (Density)    1.00E-06 (Energy)
 MAX. NUMBER OF ITERATIONS:       60
 INTERPOLATION TYPE:            DIIS
 INTERPOLATION STEPS:              2 (START)      1 (STEP)
 LEVEL SHIFTS:                 -0.20 (ALPHA)  -0.20 (BETA) 



 Use fine grid record 1800.2 for energy threshold  1.0D-06
 Orbital guess generated from atomic densities. Full valence occupancy:   21

 Molecular orbital dump at record        2200.2

 Initial alpha occupation  21
 Initial beta  occupation  21

 ITERATION    DDIFF          GRAD             ENERGY        2-EL.EN.            DIPOLE MOMENTS         DIIS
    1      0.000D+00      0.000D+00      -232.89789186    639.363013    0.70647   -0.79250    0.00000    0
    2      0.141D-01      0.613D-02      -233.12460959    614.922018    0.23768   -0.36656    0.00000    1
    3      0.478D-02      0.329D-02      -233.18720576    622.132197    0.38522   -0.49579    0.00000    2
    4      0.104D-02      0.424D-03      -233.18847109    621.860373    0.36777   -0.42740    0.00000    3
    5      0.711D-03      0.194D-03      -233.18886498    621.785882    0.36462   -0.42946    0.00000    4
    6      0.444D-03      0.481D-04      -233.18892101    621.765932    0.36291   -0.42074    0.00000    5
    7      0.844D-04      0.179D-04      -233.18892433    621.740813    0.36134   -0.42072    0.00000    6
    8      0.353D-04      0.900D-05      -233.18892513    621.750424    0.36132   -0.42143    0.00000    7
    9      0.110D-04      0.122D-05      -233.18892517    621.749580    0.36135   -0.42105    0.00000    6
   10      0.246D-05      0.322D-06      -233.18892517    621.749397    0.36127   -0.42118    0.00000    7
   11      0.540D-06      0.117D-06      -233.18892517    621.749644    0.36128   -0.42116    0.00000    6

 Final alpha occupancy:  21
 Final beta  occupancy:  21

 !UKS STATE 1.1 Energy               -233.188925168446
 Nuclear energy                       198.77359127
 One-electron energy                 -709.15578308
 Two-electron energy                  310.87482203
 Density functional                   -33.68155540     PBEX=-32.30417189 PBEC= -1.37738351
 Virial quotient                       -1.01049936
 !UKS STATE 1.1 Dipole moment           0.36128439    -0.42116373     0.00000000
 Dipole moment /Debye                   0.91823317    -1.07042131     0.00000000

 Orbital energies for positive spin:

         1.1          2.1          3.1          4.1          5.1          6.1          7.1          8.1          9.1         10.1
    -18.741112    -9.946538    -9.885386    -9.885366    -9.880282    -0.908778    -0.703221    -0.614903    -0.614082    -0.503702

        11.1         12.1         13.1         14.1         15.1         16.1         17.1         18.1         19.1         20.1
     -0.432819    -0.397978    -0.396352    -0.358956    -0.347396    -0.331087    -0.318560    -0.304831    -0.300357    -0.268696

        21.1         22.1         23.1
     -0.211728     0.019884     0.067233

 Orbital energies for negative spin:

         1.1          2.1          3.1          4.1          5.1          6.1          7.1          8.1          9.1         10.1
    -18.741112    -9.946538    -9.885386    -9.885366    -9.880282    -0.908778    -0.703221    -0.614903    -0.614082    -0.503702

        11.1         12.1         13.1         14.1         15.1         16.1         17.1         18.1         19.1         20.1
     -0.432819    -0.397978    -0.396352    -0.358956    -0.347396    -0.331087    -0.318560    -0.304831    -0.300357    -0.268696

        21.1         22.1         23.1
     -0.211728     0.019884     0.067233

 HOMO     21.1    -0.211728 =      -5.7614eV
 LUMO     22.1     0.019884 =       0.5411eV
 LUMO-HOMO         0.231612 =       6.3025eV

 EXPECTATION VALUE OF S**2:            -0.00000000

 Natural orbitals saved to record    2200.2 (Orbital set 3)

 Orbital spaces for UNO-CAS (Min. occupation: 0.020  Max. occupation: 1.980):

 Closed:       21
 Active:        0


 **********************************************************************************************************************************
 DATASETS  * FILE   NREC   LENGTH (MB)   RECORD NAMES
              1      20      122.15       500      610      700      900      950      970     1000      129      960     1100   
                                          VAR    BASINP    GEOM    SYMINP    ZMAT    AOBASIS   BASIS     P2S    ABASIS      S 
                                         1400     1410     1200     1210     1080     1600     1650     1300     1700     1800   
                                           T        V       H0       H01     AOSYM     SMH    MOLCAS    ERIS     OPER     GRID   

              2       5        3.59       700     1000      520     1800     2200   
                                         GEOM     BASIS   MCVARS    GRID      UKS  

 PROGRAMS   *        TOTAL       UKS       INT
 CPU TIMES  *        26.41     22.36      3.91
 REAL TIME  *        31.72 SEC
 DISK USED  *       426.89 MB      
 **********************************************************************************************************************************


 PROGRAM * Intrinsic Basis Bonding Analysis (IBBA)          Author: G. Knizia

 Molecular orbitals read from record     2200.2  Type=UKS/ALPHA (state 1.1)
 Fock matrix read from record            2200.2  Type=UKS/TOTAL (state 1.1)
 Orbital energies read from record       2200.2  Type=UKS/ALPHA (state 1.1)
 Density matrix read from record         2200.2  Type=UKS/CHARGE (state 1.1)

 Number of core orbitals:           5 (   5 )
 Number of closed-shell orbitals:  16 (  16 )

 Basis set MINAO-AUTO-PP generated.      Number of basis functions:   35 

 Polarized AO type:                A = (O Ot + (1-O)(1-Ot)) P12
 Orthogonalization method:         Symmetric (Loewdin)
 Localization functional:          L = sum[A,i] <i|n_A|i>^4 -> max

 Localization group 1:  21 orbitals, occupancy  2.000
 Iterative localization: IB/PM,    7 iter; Final gradient 0.33E-08

 Bond order analysis:       [THRPRINT= 0.020]

   CEN ATOM   CEN ATOM     WIBERG.BO      RENORM.BO
     1   C  -   2   C       0.994433       0.991517
     1   C  -   5   H       0.962240       0.986072
     1   C  -   6   H       0.957522       0.980172
     1   C  -   7   H       0.957522       0.980172

     2   C  -   1   C       0.994433       0.991517
     2   C  -   9   C       0.993111       0.971982
     2   C  -   8   C       0.993111       0.971982
     2   C  -   3   O       0.946601       0.949130

     3   O  -   2   C       0.946601       0.949130
     3   O  -   4   H       0.872755       0.974600
     3   O  -   8   C       0.030854       0.015829
     3   O  -   9   C       0.030854       0.015829

     4   H  -   3   O       0.872755       0.974600

     5   H  -   1   C       0.962240       0.986072

     6   H  -   1   C       0.957522       0.980172

     7   H  -   1   C       0.957522       0.980172

     8   C  -   2   C       0.993111       0.971982
     8   C  -  14   H       0.961569       0.980961
     8   C  -  10   H       0.958137       0.979969
     8   C  -  12   H       0.957503       0.979363
     8   C  -   3   O       0.030854       0.015829

     9   C  -   2   C       0.993111       0.971982
     9   C  -  15   H       0.961569       0.980961
     9   C  -  11   H       0.958137       0.979969
     9   C  -  13   H       0.957503       0.979363
     9   C  -   3   O       0.030854       0.015829

    10   H  -   8   C       0.958137       0.979969

    11   H  -   9   C       0.958137       0.979969

    12   H  -   8   C       0.957503       0.979363

    13   H  -   9   C       0.957503       0.979363

    14   H  -   8   C       0.961569       0.980961

    15   H  -   9   C       0.961569       0.980961


 Valency analysis:

   CEN ATOM   TOT.VALENCE
     1   C       3.937002
     2   C       3.939253
     3   O       1.955381
     4   H       0.893600
     5   H       0.982613
     6   H       0.980254
     7   H       0.980254
     8   C       3.939517
     9   C       3.939517
    10   H       0.980358
    11   H       0.980358
    12   H       0.981895
    13   H       0.981895
    14   H       0.984241
    15   H       0.984241

 Total charge composition:

   CEN ATOM         s          p       ELECTRONS ->P.CHARGE
     1   C       3.02646    3.38151      6.40797   -0.40797
     2   C       2.92323    2.83522      5.75845    0.24155
     3   O       3.63612    4.89305      8.52917   -0.52917
     4   H       0.67381                 0.67381    0.32619
     5   H       0.86814                 0.86814    0.13186
     6   H       0.85948                 0.85948    0.14052
     7   H       0.85948                 0.85948    0.14052
     8   C       3.03325    3.38874      6.42199   -0.42199
     9   C       3.03325    3.38874      6.42199   -0.42199
    10   H       0.85985                 0.85985    0.14015
    11   H       0.85985                 0.85985    0.14015
    12   H       0.86544                 0.86544    0.13456
    13   H       0.86544                 0.86544    0.13456
    14   H       0.87447                 0.87447    0.12553
    15   H       0.87447                 0.87447    0.12553

 Total charge composition, AO contributions:

   CEN ATOM SHL      SPHERICAL COMPONENTS
     1   C  1s       1.99123
     1   C  2s       1.03523
     1   C  2p       1.04662    1.16140    1.17349

     2   C  1s       1.99288
     2   C  2s       0.93035
     2   C  2p       1.01374    0.80641    1.01506

     3   O  1s       1.99717
     3   O  2s       1.63895
     3   O  2p       1.46269    1.47998    1.95038

     4   H  1s       0.67381

     5   H  1s       0.86814

     6   H  1s       0.85948

     7   H  1s       0.85948

     8   C  1s       1.99134
     8   C  2s       1.04191
     8   C  2p       1.14412    1.14523    1.09940

     9   C  1s       1.99134
     9   C  2s       1.04191
     9   C  2p       1.14412    1.14523    1.09940

    10   H  1s       0.85985

    11   H  1s       0.85985

    12   H  1s       0.86544

    13   H  1s       0.86544

    14   H  1s       0.87447

    15   H  1s       0.87447

 Summary of localized orbital composition:   [THRPRINT= 0.020]

   ORB  GRP  ORB.ENERGY      CENTERS/CHARGES
     1   1   -18.594240      O  3   2.000
     2   1    -9.857743      C  2   2.000
     3   1    -9.774307      C  8   2.000
     4   1    -9.774307      C  9   2.000
     5   1    -9.768436      C  1   2.000
     6   1    -0.684293      O  3   1.329   H  4   0.662
     7   1    -0.649442      O  3   1.266   C  2   0.715
     8   1    -0.514386      C  9   1.009   C  2   0.974
     9   1    -0.514386      C  8   1.009   C  2   0.974
    10   1    -0.513924      C  1   0.991   C  2   0.983   (other: 0.026)
    11   1    -0.476307      O  3   1.980   (other: 0.020)
    12   1    -0.447934      C  8   1.130   H 12   0.855
    13   1    -0.447934      C  9   1.130   H 13   0.855
    14   1    -0.447197      C  9   1.121   H 15   0.867
    15   1    -0.447197      C  8   1.121   H 14   0.867
    16   1    -0.443815      C  1   1.125   H  5   0.860
    17   1    -0.442255      C  9   1.138   H 11   0.851
    18   1    -0.442255      C  8   1.138   H 10   0.851
    19   1    -0.437481      C  1   1.137   H  7   0.851
    20   1    -0.437481      C  1   1.137   H  6   0.851
    21   1    -0.236776      O  3   1.950   (other: 0.050)

 Localized orbitals saved to record      2200.2  (orbital set 4)


 **********************************************************************************************************************************
 DATASETS  * FILE   NREC   LENGTH (MB)   RECORD NAMES
              1      20      122.15       500      610      700      900      950      970     1000      129      960     1100   
                                          VAR    BASINP    GEOM    SYMINP    ZMAT    AOBASIS   BASIS     P2S    ABASIS      S 
                                         1400     1410     1200     1210     1080     1600     1650     1300     1700     1800   
                                           T        V       H0       H01     AOSYM     SMH    MOLCAS    ERIS     OPER     GRID   

              2       5        3.71       700     1000      520     1800     2200   
                                         GEOM     BASIS   MCVARS    GRID      UKS  

 PROGRAMS   *        TOTAL      IBBA       UKS       INT
 CPU TIMES  *        26.46      0.04     22.36      3.91
 REAL TIME  *        31.85 SEC
 DISK USED  *       426.89 MB      
 **********************************************************************************************************************************
 Molecular orbitals read from record     2200.2  Type=UKS/LOCAL(IBO)  
 Occupation numbers read from record     2200.2  Type=UKS/LOCAL(IBO)  
 Orbital energies read from record       2200.2  Type=UKS/LOCAL(IBO)  
 Redundancy group numbers read from rec  2200.2  Type=UKS/BETA (state 1.1)

 IBBA/SVP energy=      0.000000000000

        UKS-SCF 
   -233.18892517
 **********************************************************************************************************************************
 Molpro calculation terminated
