
 Primary working directories    : /tmp/sb13343
 Secondary working directories  : /tmp/sb13343
 Wavefunction directory         : /panfs/panasas01/chem/sb13343/wfu/
 Main file repository           : /tmp/sb13343/

 SHA1      : b4a5b34a9e711420743f49e6833241d17c61fb3c
 NAME      : 2099.9.b4a5b34
 ARCHNAME  : linux/x86_64_openmp
 FC        : /cm/shared/languages/GCC-6.1/bin/gfortran
 BLASLIB   : -lblas
 id        : simonbennie

 Nodes     nprocs
 node32-029    1

 Using customized tuning parameters: mindgm=1; mindgv=20; mindgc=4; mindgr=1; noblas=0; minvec=7
 default implementation of scratch files=df  

 memory,500,m
 geomtyp=xyz
 nosym
 noorient
 geometry={
 C          0.00000        0.00000        0.00000
 C          0.00000        0.00000        1.53307
 O          1.40344        0.00000        1.86307
 C          1.76314        0.00000        3.22887
 H         -1.02289        0.00000       -0.39176
 H          0.51995       -0.88625       -0.37815
 H          0.51995        0.88625       -0.37815
 H          2.85677        0.00000        3.25413
 H          1.40708       -0.89217        3.76475
 H          1.40708        0.89217        3.76475
 C         -0.69252       -1.26694        2.06222
 C         -0.69252        1.26694        2.06222
 H         -0.15366       -2.16088        1.72982
 H         -0.15366        2.16088        1.72982
 H         -1.72011       -1.32515        1.68649
 H         -1.72011        1.32515        1.68649
 H         -0.74365       -1.28188        3.15638
 H         -0.74365        1.28188        3.15638
 }
 basis={ default,sto-3g }
 {uks,PBE0,direct;wf,50,1,0}
 {ibba,bonds=1}

 Variables initialized (895), CPU time= 0.00 sec
 Commands  initialized (725), CPU time= 0.02 sec, 591 directives.
 Default parameters read. Elapsed time= 0.08 sec

 Checking input...
 Passed
1


                                         ***  PROGRAM SYSTEM MOLPRO  ***
                                       Copyright, TTI GmbH Stuttgart, 2015
                                    Version 2099.9 linked May 26 2017 16:03:21


 **********************************************************************************************************************************
 LABEL *                                                                                 
  64 bit serial version                                                                  DATE: 09-Jun-17          TIME: 01:39:09  
 **********************************************************************************************************************************

 SHA1:             b4a5b34a9e711420743f49e6833241d17c61fb3c
 **********************************************************************************************************************************
 SETTING GEOMTYP        =    XYZ

 Variable memory set to  500000000 words,  buffer space 

 ZSYMEL=NOSYM

 SETTING BASIS          =    STO-3G


 Recomputing integrals since basis changed


 Using spherical harmonics

 Library entry C      S STO-3G               selected for orbital group  1
 Library entry C      P STO-3G               selected for orbital group  1
 Library entry O      S STO-3G               selected for orbital group  2
 Library entry O      P STO-3G               selected for orbital group  2
 Library entry H      S STO-3G               selected for orbital group  4


 PROGRAM * SEWARD (Integral evaluation for generally contracted gaussian basis sets)     Author: Roland Lindh, 1990

 Geometry written to block  1 of record 700


 Point group  C1  



 ATOMIC COORDINATES

 NR  ATOM    CHARGE       X              Y              Z

   1  C       6.00    0.000000000    0.000000000    0.000000000
   2  C       6.00    0.000000000    0.000000000    2.897082430
   3  O       8.00    2.652117232    0.000000000    3.520692051
   4  C       6.00    3.331851719    0.000000000    6.101679992
   5  H       1.00   -1.932981956    0.000000000   -0.740319107
   6  H       1.00    0.982563098   -1.674769778   -0.714599934
   7  H       1.00    0.982563098    1.674769778   -0.714599934
   8  H       1.00    5.398512901    0.000000000    6.149414474
   9  H       1.00    2.658995835   -1.685956957    7.114346427
  10  H       1.00    2.658995835    1.685956957    7.114346427
  11  C       6.00   -1.308673136   -2.394169616    3.897031009
  12  C       6.00   -1.308673136    2.394169616    3.897031009
  13  H       1.00   -0.290375316   -4.083471388    3.268886045
  14  H       1.00   -0.290375316    4.083471388    3.268886045
  15  H       1.00   -3.250536804   -2.504170574    3.187004212
  16  H       1.00   -3.250536804    2.504170574    3.187004212
  17  H       1.00   -1.405294833   -2.422402125    5.964693745
  18  H       1.00   -1.405294833    2.422402125    5.964693745

 Bond lengths in Bohr (Angstrom)

 1-2  2.897082430  1-5  2.069901355  1-6  2.069042560  1-7  2.069042560  2-3  2.724447609
     ( 1.533070000)     ( 1.095344626)     ( 1.094890171)     ( 1.094890171)     ( 1.441715587)

  2-11  2.905954351   2-12  2.905954351   3- 4  2.668995640   4- 8  2.067212379   4- 9  2.078624355
       ( 1.537764818)       ( 1.537764818)       ( 1.412371669)       ( 1.093921681)       ( 1.099960639)

  4-10  2.078624355  11-13  2.070081404  11-15  2.070524757  11-17  2.070111596  12-14  2.070081404
       ( 1.099960639)       ( 1.095439904)       ( 1.095674516)       ( 1.095455880)       ( 1.095439904)

 12-16  2.070524757  12-18  2.070111596
       ( 1.095674516)       ( 1.095455880)

 Bond angles

  1- 2- 3  103.23196371   1- 2-11  110.12706952   1- 2-12  110.12706952   2- 1- 5  110.95650426

  2- 1- 6  110.20481748   2- 1- 7  110.20481748   2- 3- 4  117.98647004   2-11-13  110.26679927

  2-11-15  110.37287188   2-11-17  112.08316935   2-12-14  110.26679927   2-12-16  110.37287188

  2-12-18  112.08316935   3- 2-11  111.07703285   3- 2-12  111.07703285   3- 4- 8  106.07765410

  3- 4- 9  112.87219182   3- 4-10  112.87219182   5- 1- 6  108.65976572   5- 1- 7  108.65976572

  6- 1- 7  108.08288210   8- 4- 9  108.20190897   8- 4-10  108.20190897   9- 4-10  108.40564999

 11- 2-12  110.95103964  13-11-15  108.29648994  13-11-17  108.35544687  14-12-16  108.29648994

 14-12-18  108.35544687  15-11-17  107.33851825  16-12-18  107.33851825

 NUCLEAR CHARGE:                   50
 NUMBER OF PRIMITIVE AOS:         126
 NUMBER OF SYMMETRY AOS:          126
 NUMBER OF CONTRACTIONS:           42   (  42A   )
 NUMBER OF CORE ORBITALS:           6   (   6A   )
 NUMBER OF VALENCE ORBITALS:       36   (  36A   )


 NUCLEAR REPULSION ENERGY  270.15500869


 Eigenvalues of metric

         1 0.207E+00 0.226E+00 0.228E+00 0.234E+00 0.307E+00 0.355E+00 0.359E+00 0.362E+00


 Contracted 2-electron integrals neglected if value below      1.0D-11
 AO integral compression algorithm  1   Integral accuracy      1.0D-11

     2.884 MB (compressed) written to integral file ( 84.3%)


 NUMBER OF SORTED TWO-ELECTRON INTEGRALS:     408156.     BUFFER LENGTH:  32768
 NUMBER OF SEGMENTS:   1  SEGMENT LENGTH:     408156      RECORD LENGTH: 524288

 Memory used in sort:       0.97 MW

 SORT1 READ      453477. AND WROTE      382834. INTEGRALS IN      2 RECORDS. CPU TIME:     0.01 SEC, REAL TIME:     0.02 SEC
 SORT2 READ      382834. AND WROTE      408156. INTEGRALS IN     11 RECORDS. CPU TIME:     0.03 SEC, REAL TIME:     0.04 SEC

 FILE SIZES:   FILE 1:    33.2 MBYTE,  FILE 4:     8.4 MBYTE,   TOTAL:     41.6 MBYTE

 OPERATOR DM      FOR CENTER  0  COORDINATES:    0.000000    0.000000    0.000000


 **********************************************************************************************************************************
 DATASETS  * FILE   NREC   LENGTH (MB)   RECORD NAMES
              1      19       31.98       500      610      700      900      950      970     1000      129      960     1100   
                                          VAR    BASINP    GEOM    SYMINP    ZMAT    AOBASIS   BASIS     P2S    ABASIS      S 
                                         1400     1410     1200     1210     1080     1600     1650     1300     1700   
                                           T        V       H0       H01     AOSYM     SMH    MOLCAS    ERIS     OPER   

 PROGRAMS   *        TOTAL       INT
 CPU TIMES  *         0.93      0.78
 REAL TIME  *         1.36 SEC
 DISK USED  *        42.19 MB      
 **********************************************************************************************************************************

 Density functional group PBE0=PBEX+PBEC
 Functional: PBEX(Automatically generated (new) PBEX)                          Gradient terms: 1
 Functional: PBEC(Automatically generated (new) PBEC)                          Gradient terms: 1
 Use grid at  1800.2


 Exact exchange will be calculated, factor:  0.2500

 Functional: PBEX                      Factor:  0.7500
 Functional: PBEC                      Factor:  1.0000

 Generated new metagrid on record  1800.2 with target accuracy 1.0D-06 and 66012 points in CPU time    2.1
 Computed new grid on record 1800.1 in CPU time    2.4
   38106 words reserved for DFT integration

 PROGRAM * UKS-SCF (Unrestricted Kohn-Sham)     Authors: W. Meyer, H.-J. Werner, P.J. Knowles, 1993

 NUMBER OF ELECTRONS:      25+   25-    SPACE SYMMETRY=1    SPIN SYMMETRY: Singlet 
 CONVERGENCE THRESHOLDS:    1.00E-05 (Density)    1.00E-06 (Energy)
 MAX. NUMBER OF ITERATIONS:       60
 INTERPOLATION TYPE:            DIIS
 INTERPOLATION STEPS:              2 (START)      1 (STEP)
 LEVEL SHIFTS:                 -0.20 (ALPHA)  -0.20 (BETA) 



 Use fine grid record 1800.2 for energy threshold  1.0D-06
 Orbital guess generated from atomic densities. Full valence occupancy:   25

 Molecular orbital dump at record        2200.2

 Initial alpha occupation  25
 Initial beta  occupation  25

 ITERATION    DDIFF          GRAD             ENERGY        2-EL.EN.            DIPOLE MOMENTS         DIIS
    1      0.000D+00      0.000D+00      -268.92834355    803.337021   -0.93897    0.00000    0.82244    0
    2      0.474D-01      0.169D-01      -269.28899194    783.255734   -0.29659    0.00000    0.14715    1
    3      0.449D-02      0.196D-02      -269.29308801    784.545011   -0.34178    0.00000    0.22396    2
    4      0.114D-02      0.387D-03      -269.29336997    784.498157   -0.35130    0.00000    0.23246    3
    5      0.450D-03      0.120D-03      -269.29340304    784.491728   -0.35134    0.00000    0.23494    4
    6      0.165D-03      0.306D-04      -269.29340602    784.491589   -0.34991    0.00000    0.23482    5
    7      0.358D-04      0.887D-05      -269.29340616    784.491554   -0.35027    0.00000    0.23517    5
    8      0.106D-04      0.334D-05      -269.29340618    784.491148   -0.35002    0.00000    0.23503    6
    9      0.275D-05      0.580D-06      -269.29340618    784.491382   -0.35005    0.00000    0.23505    6
   10      0.499D-06      0.138D-06      -269.29340618    784.491269   -0.35004    0.00000    0.23504    6

 Final alpha occupancy:  25
 Final beta  occupancy:  25

 !UKS STATE 1.1 Energy               -269.293406179076
 Nuclear energy                       270.15500869
 One-electron energy                 -901.33325939
 Two-electron energy                  392.24563440
 Density functional                   -30.36078989     PBEX=-38.24753770 PBEC= -1.67513662
 Virial quotient                       -1.01513581
 !UKS STATE 1.1 Dipole moment          -0.35004109     0.00000000     0.23504168
 Dipole moment /Debye                  -0.88965743     0.00000000     0.59737724

 Orbital energies for positive spin:

         1.1          2.1          3.1          4.1          5.1          6.1          7.1          8.1          9.1         10.1
    -18.928903   -10.106424   -10.081767   -10.038815   -10.038699   -10.038602    -0.982938    -0.775587    -0.676088    -0.673464

        11.1         12.1         13.1         14.1         15.1         16.1         17.1         18.1         19.1         20.1
     -0.647004    -0.517435    -0.450952    -0.428114    -0.425096    -0.404375    -0.383274    -0.367085    -0.357085    -0.341516

        21.1         22.1         23.1         24.1         25.1         26.1         27.1
     -0.339407    -0.308195    -0.301890    -0.199278    -0.136250     0.294791     0.378143

 Orbital energies for negative spin:

         1.1          2.1          3.1          4.1          5.1          6.1          7.1          8.1          9.1         10.1
    -18.928903   -10.106424   -10.081767   -10.038815   -10.038699   -10.038602    -0.982938    -0.775587    -0.676088    -0.673464

        11.1         12.1         13.1         14.1         15.1         16.1         17.1         18.1         19.1         20.1
     -0.647004    -0.517435    -0.450952    -0.428114    -0.425096    -0.404375    -0.383274    -0.367085    -0.357085    -0.341516

        21.1         22.1         23.1         24.1         25.1         26.1         27.1
     -0.339407    -0.308195    -0.301890    -0.199278    -0.136250     0.294791     0.378143

 HOMO     25.1    -0.136250 =      -3.7076eV
 LUMO     26.1     0.294791 =       8.0217eV
 LUMO-HOMO         0.431042 =      11.7292eV

 EXPECTATION VALUE OF S**2:             0.00000000

 Natural orbitals saved to record    2200.2 (Orbital set 3)

 Orbital spaces for UNO-CAS (Min. occupation: 0.020  Max. occupation: 1.980):

 Closed:       25
 Active:        0


 **********************************************************************************************************************************
 DATASETS  * FILE   NREC   LENGTH (MB)   RECORD NAMES
              1      20       34.09       500      610      700      900      950      970     1000      129      960     1100   
                                          VAR    BASINP    GEOM    SYMINP    ZMAT    AOBASIS   BASIS     P2S    ABASIS      S 
                                         1400     1410     1200     1210     1080     1600     1650     1300     1700     1800   
                                           T        V       H0       H01     AOSYM     SMH    MOLCAS    ERIS     OPER     GRID   

              2       5        3.13       700     1000      520     1800     2200   
                                         GEOM     BASIS   MCVARS    GRID      UKS  

 PROGRAMS   *        TOTAL       UKS       INT
 CPU TIMES  *        10.09      9.15      0.78
 REAL TIME  *        10.73 SEC
 DISK USED  *        42.19 MB      
 **********************************************************************************************************************************


 PROGRAM * Intrinsic Basis Bonding Analysis (IBBA)          Author: G. Knizia

 Molecular orbitals read from record     2200.2  Type=UKS/ALPHA (state 1.1)
 Fock matrix read from record            2200.2  Type=UKS/TOTAL (state 1.1)
 Orbital energies read from record       2200.2  Type=UKS/ALPHA (state 1.1)
 Density matrix read from record         2200.2  Type=UKS/CHARGE (state 1.1)

 Number of core orbitals:           6 (   6 )
 Number of closed-shell orbitals:  19 (  19 )

 Basis set MINAO-AUTO-PP generated.      Number of basis functions:   42 

 Polarized AO type:                A = (O Ot + (1-O)(1-Ot)) P12
 Orthogonalization method:         Symmetric (Loewdin)
 Localization functional:          L = sum[A,i] <i|n_A|i>^4 -> max

 Localization group 1:  25 orbitals, occupancy  2.000
 Iterative localization: IB/PM,    7 iter; Final gradient 0.27E-08

 Bond order analysis:       [THRPRINT= 0.020]

   CEN ATOM   CEN ATOM     WIBERG.BO      RENORM.BO
     1   C  -   2   C       0.991121       0.989229
     1   C  -   5   H       0.966399       0.990141
     1   C  -   6   H       0.963125       0.987491
     1   C  -   7   H       0.963125       0.987491

     2   C  -   1   C       0.991121       0.989229
     2   C  -  12   C       0.988131       0.965781
     2   C  -  11   C       0.988131       0.965781
     2   C  -   3   O       0.975358       0.959973

     3   O  -   4   C       1.018964       1.013160
     3   O  -   2   C       0.975358       0.959973
     3   O  -   9   H       0.028507       0.016882
     3   O  -  10   H       0.028507       0.016882
     3   O  -  11   C       0.024021       0.012714
     3   O  -  12   C       0.024021       0.012714

     4   C  -   3   O       1.018964       1.013160
     4   C  -   8   H       0.954815       0.975772
     4   C  -   9   H       0.954533       0.948407
     4   C  -  10   H       0.954533       0.948407

     5   H  -   1   C       0.966399       0.990141

     6   H  -   1   C       0.963125       0.987491

     7   H  -   1   C       0.963125       0.987491

     8   H  -   4   C       0.954815       0.975772

     9   H  -   4   C       0.954533       0.948407
     9   H  -   3   O       0.028507       0.016882

    10   H  -   4   C       0.954533       0.948407
    10   H  -   3   O       0.028507       0.016882

    11   C  -   2   C       0.988131       0.965781
    11   C  -  17   H       0.965319       0.986414
    11   C  -  15   H       0.964054       0.990008
    11   C  -  13   H       0.963737       0.987384
    11   C  -   3   O       0.024021       0.012714

    12   C  -   2   C       0.988131       0.965781
    12   C  -  18   H       0.965319       0.986414
    12   C  -  16   H       0.964054       0.990008
    12   C  -  14   H       0.963737       0.987384
    12   C  -   3   O       0.024021       0.012714

    13   H  -  11   C       0.963737       0.987384

    14   H  -  12   C       0.963737       0.987384

    15   H  -  11   C       0.964054       0.990008

    16   H  -  12   C       0.964054       0.990008

    17   H  -  11   C       0.965319       0.986414

    18   H  -  12   C       0.965319       0.986414


 Valency analysis:

   CEN ATOM   TOT.VALENCE
     1   C       3.932191
     2   C       3.971498
     3   O       2.152551
     4   C       3.904412
     5   H       0.982516
     6   H       0.980695
     7   H       0.980695
     8   H       0.979598
     9   H       0.987074
    10   H       0.987074
    11   C       3.933700
    12   C       3.933700
    13   H       0.981338
    14   H       0.981338
    15   H       0.981508
    16   H       0.981508
    17   H       0.983266
    18   H       0.983266

 Total charge composition:

   CEN ATOM         s          p       ELECTRONS ->P.CHARGE
     1   C       3.00069    3.39526      6.39595   -0.39595
     2   C       2.94772    2.92976      5.87748    0.12252
     3   O       3.65549    4.56975      8.22524   -0.22524
     4   C       3.00646    3.26146      6.26792   -0.26792
     5   H       0.86777                 0.86777    0.13223
     6   H       0.86106                 0.86106    0.13894
     7   H       0.86106                 0.86106    0.13894
     8   H       0.85717                 0.85717    0.14283
     9   H       0.88631                 0.88631    0.11369
    10   H       0.88631                 0.88631    0.11369
    11   C       3.00136    3.40747      6.40882   -0.40882
    12   C       3.00136    3.40747      6.40882   -0.40882
    13   H       0.86339                 0.86339    0.13661
    14   H       0.86339                 0.86339    0.13661
    15   H       0.86401                 0.86401    0.13599
    16   H       0.86401                 0.86401    0.13599
    17   H       0.87064                 0.87064    0.12936
    18   H       0.87064                 0.87064    0.12936

 Total charge composition, AO contributions:

   CEN ATOM SHL      SPHERICAL COMPONENTS
     1   C  1s       1.99175
     1   C  2s       1.00894
     1   C  2p       1.16930    1.17784    1.04813

     2   C  1s       1.99322
     2   C  2s       0.95450
     2   C  2p       0.86950    1.02989    1.03037

     3   O  1s       1.99743
     3   O  2s       1.65807
     3   O  2p       1.31610    1.91948    1.33417

     4   C  1s       1.99231
     4   C  2s       1.01415
     4   C  2p       1.16747    1.17502    0.91898

     5   H  1s       0.86777

     6   H  1s       0.86106

     7   H  1s       0.86106

     8   H  1s       0.85717

     9   H  1s       0.88631

    10   H  1s       0.88631

    11   C  1s       1.99181
    11   C  2s       1.00955
    11   C  2p       1.15160    1.09938    1.15649

    12   C  1s       1.99181
    12   C  2s       1.00955
    12   C  2p       1.15160    1.09938    1.15649

    13   H  1s       0.86339

    14   H  1s       0.86339

    15   H  1s       0.86401

    16   H  1s       0.86401

    17   H  1s       0.87064

    18   H  1s       0.87064

 Summary of localized orbital composition:   [THRPRINT= 0.020]

   ORB  GRP  ORB.ENERGY      CENTERS/CHARGES
     1   1   -18.761536      O  3   2.000
     2   1   -10.013089      C  2   2.000
     3   1    -9.973180      C  4   2.000
     4   1    -9.925905      C 11   2.000
     5   1    -9.925905      C 12   2.000
     6   1    -9.925378      C  1   2.000
     7   1    -0.674910      O  3   1.158   C  4   0.834
     8   1    -0.640017      O  3   1.167   C  2   0.809   (other: 0.024)
     9   1    -0.540309      C 11   0.995   C  2   0.991
    10   1    -0.540309      C 12   0.995   C  2   0.991
    11   1    -0.539868      C  2   0.996   C  1   0.981   (other: 0.023)
    12   1    -0.520813      O  3   1.971   (other: 0.029)
    13   1    -0.495692      C  4   1.129   H 10   0.869
    14   1    -0.495692      C  4   1.129   H  9   0.869
    15   1    -0.495425      C  4   1.142   H  8   0.848
    16   1    -0.481182      C 12   1.127   H 18   0.864
    17   1    -0.481182      C 11   1.127   H 17   0.864
    18   1    -0.480732      C 11   1.132   H 15   0.857
    19   1    -0.480732      C 12   1.132   H 16   0.857
    20   1    -0.480421      C  1   1.129   H  5   0.861
    21   1    -0.477061      C 12   1.134   H 14   0.857
    22   1    -0.477061      C 11   1.134   H 13   0.857
    23   1    -0.473577      C  1   1.137   H  6   0.854
    24   1    -0.473577      C  1   1.137   H  7   0.854
    25   1    -0.174713      O  3   1.919   (other: 0.081)

 Localized orbitals saved to record      2200.2  (orbital set 4)


 **********************************************************************************************************************************
 DATASETS  * FILE   NREC   LENGTH (MB)   RECORD NAMES
              1      20       34.09       500      610      700      900      950      970     1000      129      960     1100   
                                          VAR    BASINP    GEOM    SYMINP    ZMAT    AOBASIS   BASIS     P2S    ABASIS      S 
                                         1400     1410     1200     1210     1080     1600     1650     1300     1700     1800   
                                           T        V       H0       H01     AOSYM     SMH    MOLCAS    ERIS     OPER     GRID   

              2       5        3.15       700     1000      520     1800     2200   
                                         GEOM     BASIS   MCVARS    GRID      UKS  

 PROGRAMS   *        TOTAL      IBBA       UKS       INT
 CPU TIMES  *        10.14      0.05      9.15      0.78
 REAL TIME  *        10.90 SEC
 DISK USED  *        42.19 MB      
 **********************************************************************************************************************************
 Molecular orbitals read from record     2200.2  Type=UKS/LOCAL(IBO)  
 Occupation numbers read from record     2200.2  Type=UKS/LOCAL(IBO)  
 Orbital energies read from record       2200.2  Type=UKS/LOCAL(IBO)  
 Redundancy group numbers read from rec  2200.2  Type=UKS/BETA (state 1.1)

 IBBA/STO-3G energy=      0.000000000000

        UKS-SCF 
   -269.29340618
 **********************************************************************************************************************************
 Molpro calculation terminated
