
 Primary working directories    : /local
 Secondary working directories  : /local
 Wavefunction directory         : /local/
 Main file repository           : /local/

 SHA1      : b4a5b34a9e711420743f49e6833241d17c61fb3c
 NAME      : 2099.9.b4a5b34
 ARCHNAME  : linux/x86_64_openmp
 FC        : /cm/shared/languages/GCC-6.1/bin/gfortran
 BLASLIB   : -lblas
 id        : simonbennie

 Nodes     nprocs
 node33-011    1

 Using customized tuning parameters: mindgm=1; mindgv=20; mindgc=4; mindgr=1; noblas=0; minvec=7
 default implementation of scratch files=df  

 memory,500,m
 geomtyp=xyz
 nosym
 noorient
 geometry={
 C         -1.53233        0.02247        0.00000
 C         -0.00192        0.01421        0.00000
 O          0.37239        1.40356        0.00000
 H          1.34248        1.44036        0.00000
 H         -1.92991       -0.99819        0.00000
 H         -1.90797        0.54382       -0.88653
 H         -1.90797        0.54382        0.88653
 C          0.54303       -0.66466       -1.26580
 C          0.54303       -0.66466        1.26580
 H          0.17836       -0.14752       -2.15943
 H          0.17836       -0.14752        2.15943
 H          0.23752       -1.71600       -1.32280
 H          0.23752       -1.71600        1.32280
 H          1.64084       -0.63767       -1.28032
 H          1.64084       -0.63767        1.28032
 }
 basis={ default,tzvp }
 {ks,CS,direct;wf,42,1,0}
 {ibba,bonds=1}

 Variables initialized (895), CPU time= 0.00 sec
 Commands  initialized (725), CPU time= 0.02 sec, 591 directives.
 Default parameters read. Elapsed time= 0.08 sec

 Checking input...
 Passed
1


                                         ***  PROGRAM SYSTEM MOLPRO  ***
                                       Copyright, TTI GmbH Stuttgart, 2015
                                    Version 2099.9 linked May 26 2017 16:03:21


 **********************************************************************************************************************************
 LABEL *                                                                                 
  64 bit serial version                                                                  DATE: 12-Jun-17          TIME: 19:32:43  
 **********************************************************************************************************************************

 SHA1:             b4a5b34a9e711420743f49e6833241d17c61fb3c
 **********************************************************************************************************************************
 SETTING GEOMTYP        =    XYZ

 Variable memory set to  500000000 words,  buffer space 

 ZSYMEL=NOSYM

 SETTING BASIS          =    TZVP


 Recomputing integrals since basis changed


 Using spherical harmonics

 Library entry C      S def2-TZVP            selected for orbital group  1
 Library entry C      P def2-TZVP            selected for orbital group  1
 Library entry C      D def2-TZVP            selected for orbital group  1
 Library entry C      F def2-TZVP            selected for orbital group  1
 Library entry O      S def2-TZVP            selected for orbital group  2
 Library entry O      P def2-TZVP            selected for orbital group  2
 Library entry O      D def2-TZVP            selected for orbital group  2
 Library entry O      F def2-TZVP            selected for orbital group  2
 Library entry H      S def2-TZVP            selected for orbital group  3
 Library entry H      P def2-TZVP            selected for orbital group  3


 PROGRAM * SEWARD (Integral evaluation for generally contracted gaussian basis sets)     Author: Roland Lindh, 1990

 Geometry written to block  1 of record 700


 Point group  C1  



 ATOMIC COORDINATES

 NR  ATOM    CHARGE       X              Y              Z

   1  C       6.00   -2.895684032    0.042462146    0.000000000
   2  C       6.00   -0.003628274    0.026853008    0.000000000
   3  O       8.00    0.703715112    2.652343999    0.000000000
   4  H       1.00    2.536919528    2.721885921    0.000000000
   5  H       1.00   -3.647001345   -1.886305720    0.000000000
   6  H       1.00   -3.605540754    1.027670861   -1.675298901
   7  H       1.00   -3.605540754    1.027670861    1.675298901
   8  C       6.00    1.026177977   -1.256025366   -2.392015328
   9  C       6.00    1.026177977   -1.256025366    2.392015328
  10  H       1.00    0.337051552   -0.278772398   -4.080731285
  11  H       1.00    0.337051552   -0.278772398    4.080731285
  12  H       1.00    0.448847749   -3.242770030   -2.499729718
  13  H       1.00    0.448847749   -3.242770030    2.499729718
  14  H       1.00    3.100738214   -1.205021658   -2.419454152
  15  H       1.00    3.100738214   -1.205021658    2.419454152

 Bond lengths in Bohr (Angstrom)

 1-2  2.892097881  1-5  2.069933136  1-6  2.069096224  1-7  2.069096224  2-3  2.719106031
     ( 1.530432290)     ( 1.095361444)     ( 1.094918569)     ( 1.094918569)     ( 1.438888946)

  2- 8  2.903104402   2- 9  2.903104402   3- 4  1.834522965   8-10  2.069222119   8-12  2.071730422
       ( 1.536256691)       ( 1.536256691)       ( 0.970787746)       ( 1.094985190)       ( 1.096312526)

  8-14  2.075368508   9-11  2.069222119   9-13  2.071730422   9-15  2.075368508
       ( 1.098237719)       ( 1.094985190)       ( 1.096312526)       ( 1.098237719)

 Bond angles

  1-2-3  104.76902697   1-2-8  110.92255387   1-2-9  110.92255387   2-1-5  110.97328220

  2- 1- 6  110.22090701   2- 1- 7  110.22090701   2- 3- 4  107.25071562   2- 8-10  110.21836376

  2- 8-12  111.57747468   2- 8-14  110.77023896   2- 9-11  110.21836376   2- 9-13  111.57747468

  2- 9-15  110.77023896   3- 2- 8  109.53648747   3- 2- 9  109.53648747   5- 1- 6  108.61190457

  5- 1- 7  108.61190457   6- 1- 7  108.12870271   8- 2- 9  110.96453384  10- 8-12  108.52192632

 10- 8-14  108.08997829  11- 9-13  108.52192632  11- 9-15  108.08997829  12- 8-14  107.54424578

 13- 9-15  107.54424578

 NUCLEAR CHARGE:                   42
 NUMBER OF PRIMITIVE AOS:         335
 NUMBER OF SYMMETRY AOS:          310
 NUMBER OF CONTRACTIONS:          215   ( 215A   )
 NUMBER OF CORE ORBITALS:           5   (   5A   )
 NUMBER OF VALENCE ORBITALS:       30   (  30A   )


 NUCLEAR REPULSION ENERGY  198.77359127


 Eigenvalues of metric

         1 0.262E-03 0.510E-03 0.539E-03 0.594E-03 0.697E-03 0.755E-03 0.210E-02 0.239E-02


 Contracted 2-electron integrals neglected if value below      1.0D-11
 AO integral compression algorithm  1   Integral accuracy      1.0D-11

     977.797 MB (compressed) written to integral file ( 41.7%)


 NUMBER OF SORTED TWO-ELECTRON INTEGRALS:  269595810.     BUFFER LENGTH:  32768
 NUMBER OF SEGMENTS:  17  SEGMENT LENGTH:   15999762      RECORD LENGTH: 524288

 Memory used in sort:      16.56 MW

 SORT1 READ   292827432. AND WROTE   238500613. INTEGRALS IN    690 RECORDS. CPU TIME:     3.54 SEC, REAL TIME:     7.02 SEC
 SORT2 READ   238500613. AND WROTE   269595810. INTEGRALS IN   3730 RECORDS. CPU TIME:     5.56 SEC, REAL TIME:     7.14 SEC

 FILE SIZES:   FILE 1:  1009.7 MBYTE,  FILE 4:  2894.1 MBYTE,   TOTAL:   3903.8 MBYTE

 OPERATOR DM      FOR CENTER  0  COORDINATES:    0.000000    0.000000    0.000000


 **********************************************************************************************************************************
 DATASETS  * FILE   NREC   LENGTH (MB)   RECORD NAMES
              1      19      926.27       500      610      700      900      950      970     1000      129      960     1100   
                                          VAR    BASINP    GEOM    SYMINP    ZMAT    AOBASIS   BASIS     P2S    ABASIS      S 
                                         1400     1410     1200     1210     1080     1600     1650     1300     1700   
                                           T        V       H0       H01     AOSYM     SMH    MOLCAS    ERIS     OPER   

 PROGRAMS   *        TOTAL       INT
 CPU TIMES  *        25.58     25.44
 REAL TIME  *        52.27 SEC
 DISK USED  *         3.90 GB      
 **********************************************************************************************************************************

 Density functional group CS=CS1
 Functional: CS1(Colle-Salvetti (Gradient form))                               Gradient terms: 1
 Use grid at  1800.2

 Functional: CS1                       Factor:  1.0000

 Generated new metagrid on record  1800.2 with target accuracy 1.0D-06 and 54596 points in CPU time    1.6
 Computed new grid on record 1800.1 in CPU time    1.8
  175219 words reserved for DFT integration

 PROGRAM * RKS-SCF (Restricted closed shell Kohn-Sham)     Authors: W. Meyer, H.-J. Werner, P.J. Knowles, 1993

 NUMBER OF ELECTRONS:      21+   21-    SPACE SYMMETRY=1    SPIN SYMMETRY: Singlet 
 CONVERGENCE THRESHOLDS:    1.00E-05 (Density)    1.00E-06 (Energy)
 MAX. NUMBER OF ITERATIONS:       60
 INTERPOLATION TYPE:            DIIS
 INTERPOLATION STEPS:              2 (START)      1 (STEP)
 LEVEL SHIFTS:                  0.00 (CLOSED)  0.00 (OPEN) 



 Use fine grid record 1800.2 for energy threshold  1.0D-06
 Orbital guess generated from atomic densities. Full valence occupancy:   21

 Molecular orbital dump at record        2100.2

 Initial occupancy:  21

 ITERATION    DDIFF          GRAD             ENERGY        2-EL.EN.            DIPOLE MOMENTS         DIIS   ORB.
    1      0.000D+00      0.000D+00      -199.48996239    543.280812    2.10884    7.53323    0.00000    0    start
    2      0.000D+00      0.239D-01      -186.19513542    698.551303   -7.05509  -21.19653   -0.00000    1    diag
    3      0.787D+00      0.685D-01      -199.62481094    641.848325    0.42624   -3.62577    0.00000    2    diag
    4      0.520D-01      0.286D-01      -201.39340240    604.999299   -1.46929   -5.01005   -0.00000    3    diag
    5      0.201D-01      0.147D-01      -201.94308464    609.557768    0.41822   -0.88157    0.00000    4    diag
    6      0.193D-01      0.838D-02      -202.14907370    587.367326    0.42857   -0.36466   -0.00000    5    diag
    7      0.260D-01      0.447D-02      -202.20341065    593.363304    0.26493   -0.05155   -0.00000    6    diag
    8      0.855D-02      0.180D-02      -202.21466569    591.311521    0.18943   -0.15647   -0.00000    7    diag
    9      0.328D-02      0.394D-03      -202.21520971    591.325397    0.36677   -0.02364    0.00000    8    diag
   10      0.187D-02      0.131D-03      -202.21528409    591.283758    0.29576   -0.05762    0.00000    9    orth
   11      0.388D-03      0.270D-04      -202.21528715    591.271033    0.30360   -0.05122   -0.00000    9    diag
   12      0.626D-04      0.727D-05      -202.21528729    591.271709    0.30265   -0.05300    0.00000    9    diag
   13      0.132D-04      0.416D-05      -202.21528736    591.271787    0.30305   -0.05284    0.00000    9    diag
   14      0.967D-05      0.110D-05      -202.21528734    591.273788    0.30265   -0.05272   -0.00000    0    orth

 Final occupancy:  21

 !RKS STATE 1.1 Energy               -202.215287336582
 Nuclear energy                       198.77359127
 One-electron energy                 -695.29706459
 Two-electron energy                  295.63689414
 Density functional                    -1.32870815     CS1=-1.32870815
 Virial quotient                       -0.97011008
 !RKS STATE 1.1 Dipole moment           0.30264851    -0.05272028    -0.00000000
 Dipole moment /Debye                   0.76920539    -0.13399281    -0.00000000

 Orbital energies:

         1.1          2.1          3.1          4.1          5.1          6.1          7.1          8.1          9.1         10.1
    -16.730076    -8.349401    -8.305055    -8.305023    -8.303232    -0.610685    -0.420830    -0.334006    -0.331288    -0.227926

        11.1         12.1         13.1         14.1         15.1         16.1         17.1         18.1         19.1         20.1
     -0.172851    -0.146963    -0.146647    -0.103361    -0.091571    -0.070810    -0.046260    -0.043627    -0.039541    -0.010372

        21.1         22.1         23.1
      0.041628     0.121669     0.170929

 HOMO     21.1     0.041628 =       1.1328eV
 LUMO     22.1     0.121669 =       3.3108eV
 LUMO-HOMO         0.080040 =       2.1780eV


 **********************************************************************************************************************************
 DATASETS  * FILE   NREC   LENGTH (MB)   RECORD NAMES
              1      20      928.02       500      610      700      900      950      970     1000      129      960     1100   
                                          VAR    BASINP    GEOM    SYMINP    ZMAT    AOBASIS   BASIS     P2S    ABASIS      S 
                                         1400     1410     1200     1210     1080     1600     1650     1300     1700     1800   
                                           T        V       H0       H01     AOSYM     SMH    MOLCAS    ERIS     OPER     GRID   

              2       5        3.96       700     1000      520     1800     2100   
                                         GEOM     BASIS   MCVARS    GRID      RKS  

 PROGRAMS   *        TOTAL        KS       INT
 CPU TIMES  *       125.10     99.52     25.44
 REAL TIME  *       170.12 SEC
 DISK USED  *         3.90 GB      
 **********************************************************************************************************************************


 PROGRAM * Intrinsic Basis Bonding Analysis (IBBA)          Author: G. Knizia

 Molecular orbitals read from record     2100.2  Type=RKS/CANONICAL (state 1.1)
 Fock matrix read from record            2100.2  Type=RKS/TOTAL (state 1.1)
 Orbital energies read from record       2100.2  Type=RKS/CANONICAL (state 1.1)
 Density matrix read from record         2100.2  Type=RKS/CHARGE (state 1.1)

 Number of core orbitals:           5 (   5 )
 Number of closed-shell orbitals:  16 (  16 )

 Basis set MINAO-AUTO-PP generated.      Number of basis functions:   35 

 Polarized AO type:                A = (O Ot + (1-O)(1-Ot)) P12
 Orthogonalization method:         Symmetric (Loewdin)
 Localization functional:          L = sum[A,i] <i|n_A|i>^4 -> max

 Localization group 1:  21 orbitals, occupancy  2.000
 Iterative localization: IB/PM,    8 iter; Final gradient 0.82E-09

 Bond order analysis:       [THRPRINT= 0.020]

   CEN ATOM   CEN ATOM     WIBERG.BO      RENORM.BO
     1   C  -   2   C       0.982617       0.996104
     1   C  -   5   H       0.954884       0.968137
     1   C  -   7   H       0.947867       0.952729
     1   C  -   6   H       0.947867       0.952729
     1   C  -   3   O       0.032648       0.018194
     1   C  -   4   H       0.026135       0.032213
     1   C  -  14   H       0.021185       0.022254
     1   C  -  15   H       0.021185       0.022254

     2   C  -   8   C       0.987892       0.972312
     2   C  -   9   C       0.987892       0.972312
     2   C  -   1   C       0.982617       0.996104
     2   C  -   3   O       0.974543       0.943961

     3   O  -   2   C       0.974543       0.943961
     3   O  -   4   H       0.908930       0.930701
     3   O  -   9   C       0.053938       0.029119
     3   O  -   8   C       0.053938       0.029119
     3   O  -  13   H       0.037239       0.026278
     3   O  -  12   H       0.037239       0.026278
     3   O  -   1   C       0.032648       0.018194
     3   O  -   5   H       0.022148       0.016913

     4   H  -   3   O       0.908930       0.930701
     4   H  -   1   C       0.026135       0.032213

     5   H  -   1   C       0.954884       0.968137
     5   H  -   3   O       0.022148       0.016913

     6   H  -   1   C       0.947867       0.952729
     6   H  -   9   C       0.024086       0.024860

     7   H  -   1   C       0.947867       0.952729
     7   H  -   8   C       0.024086       0.024860

     8   C  -   2   C       0.987892       0.972312
     8   C  -  10   H       0.948868       0.952260
     8   C  -  14   H       0.947806       0.957656
     8   C  -  12   H       0.945702       0.949360
     8   C  -   3   O       0.053938       0.029119
     8   C  -   7   H       0.024086       0.024860
     8   C  -  11   H       0.023818       0.024569

     9   C  -   2   C       0.987892       0.972312
     9   C  -  11   H       0.948868       0.952260
     9   C  -  15   H       0.947806       0.957656
     9   C  -  13   H       0.945702       0.949360
     9   C  -   3   O       0.053938       0.029119
     9   C  -   6   H       0.024086       0.024860
     9   C  -  10   H       0.023818       0.024569

    10   H  -   8   C       0.948868       0.952260
    10   H  -   9   C       0.023818       0.024569

    11   H  -   9   C       0.948868       0.952260
    11   H  -   8   C       0.023818       0.024569

    12   H  -   8   C       0.945702       0.949360
    12   H  -   3   O       0.037239       0.026278

    13   H  -   9   C       0.945702       0.949360
    13   H  -   3   O       0.037239       0.026278

    14   H  -   8   C       0.947806       0.957656
    14   H  -   1   C       0.021185       0.022254

    15   H  -   9   C       0.947806       0.957656
    15   H  -   1   C       0.021185       0.022254


 Valency analysis:

   CEN ATOM   TOT.VALENCE
     1   C       3.966506
     2   C       3.951440
     3   O       2.146651
     4   H       0.960915
     5   H       0.995763
     6   H       0.995666
     7   H       0.995666
     8   C       3.967487
     9   C       3.967487
    10   H       0.995619
    11   H       0.995619
    12   H       0.996111
    13   H       0.996111
    14   H       0.996940
    15   H       0.996940

 Total charge composition:

   CEN ATOM         s          p       ELECTRONS ->P.CHARGE
     1   C       2.94770    3.27365      6.22135   -0.22135
     2   C       2.87032    2.86459      5.73490    0.26510
     3   O       3.57767    4.74210      8.31976   -0.31976
     4   H       0.80230                 0.80230    0.19770
     5   H       0.93491                 0.93491    0.06509
     6   H       0.93417                 0.93417    0.06583
     7   H       0.93417                 0.93417    0.06583
     8   C       2.96547    3.27762      6.24309   -0.24309
     9   C       2.96547    3.27762      6.24309   -0.24309
    10   H       0.93381                 0.93381    0.06619
    11   H       0.93381                 0.93381    0.06619
    12   H       0.93764                 0.93764    0.06236
    13   H       0.93764                 0.93764    0.06236
    14   H       0.94468                 0.94468    0.05532
    15   H       0.94468                 0.94468    0.05532

 Total charge composition, AO contributions:

   CEN ATOM SHL      SPHERICAL COMPONENTS
     1   C  1s       1.99704
     1   C  2s       0.95066
     1   C  2p       1.02976    1.11661    1.12728

     2   C  1s       1.99776
     2   C  2s       0.87255
     2   C  2p       1.00815    0.84499    1.01145

     3   O  1s       1.99873
     3   O  2s       1.57893
     3   O  2p       1.36838    1.46663    1.90709

     4   H  1s       0.80230

     5   H  1s       0.93491

     6   H  1s       0.93417

     7   H  1s       0.93417

     8   C  1s       1.99709
     8   C  2s       0.96838
     8   C  2p       1.09967    1.10687    1.07108

     9   C  1s       1.99709
     9   C  2s       0.96838
     9   C  2p       1.09967    1.10687    1.07108

    10   H  1s       0.93381

    11   H  1s       0.93381

    12   H  1s       0.93764

    13   H  1s       0.93764

    14   H  1s       0.94468

    15   H  1s       0.94468

 Summary of localized orbital composition:   [THRPRINT= 0.020]

   ORB  GRP  ORB.ENERGY      CENTERS/CHARGES
     1   1   -16.630820      O  3   2.000
     2   1    -8.278582      C  2   2.000
     3   1    -8.220961      C  9   2.000
     4   1    -8.220961      C  8   2.000
     5   1    -8.218865      C  1   2.000
     6   1    -0.393061      O  3   1.225   C  2   0.749   (other: 0.026)
     7   1    -0.365224      O  3   1.213   H  4   0.770
     8   1    -0.249743      C  1   1.001   C  2   0.950   (other: 0.049)
     9   1    -0.247271      C  9   1.025   C  2   0.944   (other: 0.030)
    10   1    -0.247271      C  8   1.025   C  2   0.944   (other: 0.030)
    11   1    -0.171885      C  8   1.044   H 14   0.930   (other: 0.025)
    12   1    -0.171885      C  9   1.044   H 15   0.930   (other: 0.025)
    13   1    -0.170348      C  9   1.060   H 13   0.917   (other: 0.023)
    14   1    -0.170348      C  8   1.060   H 12   0.917   (other: 0.023)
    15   1    -0.169915      O  3   1.963   (other: 0.037)
    16   1    -0.168952      C  1   1.056   H  5   0.921   (other: 0.023)
    17   1    -0.166148      C  9   1.065   H 11   0.916
    18   1    -0.166148      C  8   1.065   H 10   0.916
    19   1    -0.164824      C  1   1.063   H  6   0.917
    20   1    -0.164824      C  1   1.063   H  7   0.917
    21   1     0.010141      O  3   1.907   C  2   0.028   (other: 0.065)

 Localized orbitals saved to record      2100.2  (orbital set 2)


 **********************************************************************************************************************************
 DATASETS  * FILE   NREC   LENGTH (MB)   RECORD NAMES
              1      20      928.02       500      610      700      900      950      970     1000      129      960     1100   
                                          VAR    BASINP    GEOM    SYMINP    ZMAT    AOBASIS   BASIS     P2S    ABASIS      S 
                                         1400     1410     1200     1210     1080     1600     1650     1300     1700     1800   
                                           T        V       H0       H01     AOSYM     SMH    MOLCAS    ERIS     OPER     GRID   

              2       5        4.33       700     1000      520     1800     2100   
                                         GEOM     BASIS   MCVARS    GRID      RKS  

 PROGRAMS   *        TOTAL      IBBA        KS       INT
 CPU TIMES  *       125.17      0.07     99.52     25.44
 REAL TIME  *       185.61 SEC
 DISK USED  *         3.90 GB      
 **********************************************************************************************************************************
 Molecular orbitals read from record     2100.2  Type=RKS/LOCAL(IBO)  
 Occupation numbers read from record     2100.2  Type=RKS/LOCAL(IBO)  
 Orbital energies read from record       2100.2  Type=RKS/LOCAL(IBO)  
 Redundancy group numbers read from rec  2100.2  Type=RKS/LOCAL(IBO)  

 IBBA/TZVP energy=      0.000000000000

        KS-SCF  
   -202.21528734
 **********************************************************************************************************************************
 Molpro calculation terminated
