
 Primary working directories    : /local
 Secondary working directories  : /local
 Wavefunction directory         : /local/
 Main file repository           : /local/

 SHA1      : b4a5b34a9e711420743f49e6833241d17c61fb3c
 NAME      : 2099.9.b4a5b34
 ARCHNAME  : linux/x86_64_openmp
 FC        : /cm/shared/languages/GCC-6.1/bin/gfortran
 BLASLIB   : -lblas
 id        : simonbennie

 Nodes     nprocs
 node33-011    1

 Using customized tuning parameters: mindgm=1; mindgv=20; mindgc=4; mindgr=1; noblas=0; minvec=7
 default implementation of scratch files=df  

 memory,500,m
 geomtyp=xyz
 nosym
 noorient
 geometry={
 C         -1.53233        0.02247        0.00000
 C         -0.00192        0.01421        0.00000
 O          0.37239        1.40356        0.00000
 H          1.34248        1.44036        0.00000
 H         -1.92991       -0.99819        0.00000
 H         -1.90797        0.54382       -0.88653
 H         -1.90797        0.54382        0.88653
 C          0.54303       -0.66466       -1.26580
 C          0.54303       -0.66466        1.26580
 H          0.17836       -0.14752       -2.15943
 H          0.17836       -0.14752        2.15943
 H          0.23752       -1.71600       -1.32280
 H          0.23752       -1.71600        1.32280
 H          1.64084       -0.63767       -1.28032
 H          1.64084       -0.63767        1.28032
 }
 basis={ default,tzvp }
 {ks,MM06-2X,direct;wf,42,1,0}
 {ibba,bonds=1}

 Variables initialized (895), CPU time= 0.00 sec
 Commands  initialized (725), CPU time= 0.02 sec, 591 directives.
 Default parameters read. Elapsed time= 0.08 sec

 Checking input...
 Passed
1


                                         ***  PROGRAM SYSTEM MOLPRO  ***
                                       Copyright, TTI GmbH Stuttgart, 2015
                                    Version 2099.9 linked May 26 2017 16:03:21


 **********************************************************************************************************************************
 LABEL *                                                                                 
  64 bit serial version                                                                  DATE: 12-Jun-17          TIME: 19:34:50  
 **********************************************************************************************************************************

 SHA1:             b4a5b34a9e711420743f49e6833241d17c61fb3c
 **********************************************************************************************************************************
 SETTING GEOMTYP        =    XYZ

 Variable memory set to  500000000 words,  buffer space 

 ZSYMEL=NOSYM

 SETTING BASIS          =    TZVP


 Recomputing integrals since basis changed


 Using spherical harmonics

 Library entry C      S def2-TZVP            selected for orbital group  1
 Library entry C      P def2-TZVP            selected for orbital group  1
 Library entry C      D def2-TZVP            selected for orbital group  1
 Library entry C      F def2-TZVP            selected for orbital group  1
 Library entry O      S def2-TZVP            selected for orbital group  2
 Library entry O      P def2-TZVP            selected for orbital group  2
 Library entry O      D def2-TZVP            selected for orbital group  2
 Library entry O      F def2-TZVP            selected for orbital group  2
 Library entry H      S def2-TZVP            selected for orbital group  3
 Library entry H      P def2-TZVP            selected for orbital group  3


 PROGRAM * SEWARD (Integral evaluation for generally contracted gaussian basis sets)     Author: Roland Lindh, 1990

 Geometry written to block  1 of record 700


 Point group  C1  



 ATOMIC COORDINATES

 NR  ATOM    CHARGE       X              Y              Z

   1  C       6.00   -2.895684032    0.042462146    0.000000000
   2  C       6.00   -0.003628274    0.026853008    0.000000000
   3  O       8.00    0.703715112    2.652343999    0.000000000
   4  H       1.00    2.536919528    2.721885921    0.000000000
   5  H       1.00   -3.647001345   -1.886305720    0.000000000
   6  H       1.00   -3.605540754    1.027670861   -1.675298901
   7  H       1.00   -3.605540754    1.027670861    1.675298901
   8  C       6.00    1.026177977   -1.256025366   -2.392015328
   9  C       6.00    1.026177977   -1.256025366    2.392015328
  10  H       1.00    0.337051552   -0.278772398   -4.080731285
  11  H       1.00    0.337051552   -0.278772398    4.080731285
  12  H       1.00    0.448847749   -3.242770030   -2.499729718
  13  H       1.00    0.448847749   -3.242770030    2.499729718
  14  H       1.00    3.100738214   -1.205021658   -2.419454152
  15  H       1.00    3.100738214   -1.205021658    2.419454152

 Bond lengths in Bohr (Angstrom)

 1-2  2.892097881  1-5  2.069933136  1-6  2.069096224  1-7  2.069096224  2-3  2.719106031
     ( 1.530432290)     ( 1.095361444)     ( 1.094918569)     ( 1.094918569)     ( 1.438888946)

  2- 8  2.903104402   2- 9  2.903104402   3- 4  1.834522965   8-10  2.069222119   8-12  2.071730422
       ( 1.536256691)       ( 1.536256691)       ( 0.970787746)       ( 1.094985190)       ( 1.096312526)

  8-14  2.075368508   9-11  2.069222119   9-13  2.071730422   9-15  2.075368508
       ( 1.098237719)       ( 1.094985190)       ( 1.096312526)       ( 1.098237719)

 Bond angles

  1-2-3  104.76902697   1-2-8  110.92255387   1-2-9  110.92255387   2-1-5  110.97328220

  2- 1- 6  110.22090701   2- 1- 7  110.22090701   2- 3- 4  107.25071562   2- 8-10  110.21836376

  2- 8-12  111.57747468   2- 8-14  110.77023896   2- 9-11  110.21836376   2- 9-13  111.57747468

  2- 9-15  110.77023896   3- 2- 8  109.53648747   3- 2- 9  109.53648747   5- 1- 6  108.61190457

  5- 1- 7  108.61190457   6- 1- 7  108.12870271   8- 2- 9  110.96453384  10- 8-12  108.52192632

 10- 8-14  108.08997829  11- 9-13  108.52192632  11- 9-15  108.08997829  12- 8-14  107.54424578

 13- 9-15  107.54424578

 NUCLEAR CHARGE:                   42
 NUMBER OF PRIMITIVE AOS:         335
 NUMBER OF SYMMETRY AOS:          310
 NUMBER OF CONTRACTIONS:          215   ( 215A   )
 NUMBER OF CORE ORBITALS:           5   (   5A   )
 NUMBER OF VALENCE ORBITALS:       30   (  30A   )


 NUCLEAR REPULSION ENERGY  198.77359127


 Eigenvalues of metric

         1 0.262E-03 0.510E-03 0.539E-03 0.594E-03 0.697E-03 0.755E-03 0.210E-02 0.239E-02


 Contracted 2-electron integrals neglected if value below      1.0D-11
 AO integral compression algorithm  1   Integral accuracy      1.0D-11

     977.797 MB (compressed) written to integral file ( 41.7%)


 NUMBER OF SORTED TWO-ELECTRON INTEGRALS:  269595810.     BUFFER LENGTH:  32768
 NUMBER OF SEGMENTS:  17  SEGMENT LENGTH:   15999762      RECORD LENGTH: 524288

 Memory used in sort:      16.56 MW

 SORT1 READ   292827432. AND WROTE   238500613. INTEGRALS IN    690 RECORDS. CPU TIME:     3.32 SEC, REAL TIME:     6.64 SEC
 SORT2 READ   238500613. AND WROTE   269595810. INTEGRALS IN   3730 RECORDS. CPU TIME:     5.93 SEC, REAL TIME:     7.44 SEC

 FILE SIZES:   FILE 1:  1009.7 MBYTE,  FILE 4:  2894.1 MBYTE,   TOTAL:   3903.8 MBYTE

 OPERATOR DM      FOR CENTER  0  COORDINATES:    0.000000    0.000000    0.000000


 **********************************************************************************************************************************
 DATASETS  * FILE   NREC   LENGTH (MB)   RECORD NAMES
              1      19      926.27       500      610      700      900      950      970     1000      129      960     1100   
                                          VAR    BASINP    GEOM    SYMINP    ZMAT    AOBASIS   BASIS     P2S    ABASIS      S 
                                         1400     1410     1200     1210     1080     1600     1650     1300     1700   
                                           T        V       H0       H01     AOSYM     SMH    MOLCAS    ERIS     OPER   

 PROGRAMS   *        TOTAL       INT
 CPU TIMES  *        25.25     25.11
 REAL TIME  *        45.92 SEC
 DISK USED  *         3.90 GB      
 **********************************************************************************************************************************

 Density functional group MM06-2X=M062XX+M062XC
 Functional: M062XX(Automatically generated (new) M062XX)                      Gradient terms: 2
 Functional: M062XC(Automatically generated (new) M062XC)                      Gradient terms: 2
 Use grid at  1800.2


 Exact exchange will be calculated, factor:  0.5400

 Functional: M062XX                    Factor:  0.4600
 Functional: M062XC                    Factor:  1.0000

 Generated new metagrid on record  1800.2 with target accuracy 1.0D-06 and 54596 points in CPU time    1.6
 Computed new grid on record 1800.1 in CPU time    1.8
  339049 words reserved for DFT integration

 PROGRAM * RKS-SCF (Restricted closed shell Kohn-Sham)     Authors: W. Meyer, H.-J. Werner, P.J. Knowles, 1993

 NUMBER OF ELECTRONS:      21+   21-    SPACE SYMMETRY=1    SPIN SYMMETRY: Singlet 
 CONVERGENCE THRESHOLDS:    1.00E-05 (Density)    1.00E-06 (Energy)
 MAX. NUMBER OF ITERATIONS:       60
 INTERPOLATION TYPE:            DIIS
 INTERPOLATION STEPS:              2 (START)      1 (STEP)
 LEVEL SHIFTS:                  0.00 (CLOSED)  0.00 (OPEN) 



 Use fine grid record 1800.2 for energy threshold  1.0D-06
 Orbital guess generated from atomic densities. Full valence occupancy:   21

 Molecular orbital dump at record        2100.2

 Initial occupancy:  21

 ITERATION    DDIFF          GRAD             ENERGY        2-EL.EN.            DIPOLE MOMENTS         DIIS   ORB.
    1      0.000D+00      0.000D+00      -225.62361826    585.094132    0.68220   -0.61012    0.00000    0    start
    2      0.000D+00      0.354D-02      -225.64526021    575.335503    0.14305   -0.46498    0.00000    1    diag
    3      0.421D-02      0.301D-02      -225.68078534    580.556913    0.35786   -0.45061    0.00000    2    diag
    4      0.173D-02      0.257D-03      -225.68102041    579.950889    0.35672   -0.48045    0.00000    3    diag
    5      0.220D-03      0.129D-03      -225.68108218    580.183610    0.35713   -0.47840    0.00000    4    diag
    6      0.965D-04      0.410D-04      -225.68108849    580.144047    0.35553   -0.47483    0.00000    5    diag
    7      0.244D-04      0.550D-05      -225.68108859    580.143450    0.35597   -0.47579    0.00000    6    diag
    8      0.546D-05      0.170D-05      -225.68108859    580.145371    0.35598   -0.47593    0.00000    0    orth

 Final occupancy:  21

 !RKS STATE 1.1 Energy               -225.681088593554
 Nuclear energy                       198.77359127
 One-electron energy                 -706.30786586
 Two-electron energy                  290.07268539
 SCF exchange energy                  -31.95642089     Factor= 0.5400
 Density functional                    -8.21949940     M062XX=-14.63322417 M062XC= -1.48821628
 Virial quotient                       -0.99846370
 !RKS STATE 1.1 Dipole moment           0.35597968    -0.47593494     0.00000000
 Dipole moment /Debye                   0.90475083    -1.20962672     0.00000000

 Orbital energies:

         1.1          2.1          3.1          4.1          5.1          6.1          7.1          8.1          9.1         10.1
    -19.163100   -10.219550   -10.158993   -10.158979   -10.153760    -1.064669    -0.819802    -0.714011    -0.713329    -0.577649

        11.1         12.1         13.1         14.1         15.1         16.1         17.1         18.1         19.1         20.1
     -0.495426    -0.458417    -0.455795    -0.412686    -0.396199    -0.372604    -0.356430    -0.349737    -0.341407    -0.311844

        21.1         22.1         23.1
     -0.270638     0.086211     0.138037

 HOMO     21.1    -0.270638 =      -7.3644eV
 LUMO     22.1     0.086211 =       2.3459eV
 LUMO-HOMO         0.356848 =       9.7103eV


 **********************************************************************************************************************************
 DATASETS  * FILE   NREC   LENGTH (MB)   RECORD NAMES
              1      20      928.02       500      610      700      900      950      970     1000      129      960     1100   
                                          VAR    BASINP    GEOM    SYMINP    ZMAT    AOBASIS   BASIS     P2S    ABASIS      S 
                                         1400     1410     1200     1210     1080     1600     1650     1300     1700     1800   
                                           T        V       H0       H01     AOSYM     SMH    MOLCAS    ERIS     OPER     GRID   

              2       5        3.96       700     1000      520     1800     2100   
                                         GEOM     BASIS   MCVARS    GRID      RKS  

 PROGRAMS   *        TOTAL        KS       INT
 CPU TIMES  *       164.81    139.55     25.11
 REAL TIME  *       222.51 SEC
 DISK USED  *         3.90 GB      
 **********************************************************************************************************************************


 PROGRAM * Intrinsic Basis Bonding Analysis (IBBA)          Author: G. Knizia

 Molecular orbitals read from record     2100.2  Type=RKS/CANONICAL (state 1.1)
 Fock matrix read from record            2100.2  Type=RKS/TOTAL (state 1.1)
 Orbital energies read from record       2100.2  Type=RKS/CANONICAL (state 1.1)
 Density matrix read from record         2100.2  Type=RKS/CHARGE (state 1.1)

 Number of core orbitals:           5 (   5 )
 Number of closed-shell orbitals:  16 (  16 )

 Basis set MINAO-AUTO-PP generated.      Number of basis functions:   35 

 Polarized AO type:                A = (O Ot + (1-O)(1-Ot)) P12
 Orthogonalization method:         Symmetric (Loewdin)
 Localization functional:          L = sum[A,i] <i|n_A|i>^4 -> max

 Localization group 1:  21 orbitals, occupancy  2.000
 Iterative localization: IB/PM,    7 iter; Final gradient 0.24E-08

 Bond order analysis:       [THRPRINT= 0.020]

   CEN ATOM   CEN ATOM     WIBERG.BO      RENORM.BO
     1   C  -   2   C       0.994522       0.993617
     1   C  -   5   H       0.965880       0.985488
     1   C  -   6   H       0.961282       0.979698
     1   C  -   7   H       0.961282       0.979698

     2   C  -   1   C       0.994522       0.993617
     2   C  -   9   C       0.993956       0.976234
     2   C  -   8   C       0.993956       0.976234
     2   C  -   3   O       0.940355       0.951807

     3   O  -   2   C       0.940355       0.951807
     3   O  -   4   H       0.880665       0.972987
     3   O  -   9   C       0.028526       0.014688
     3   O  -   8   C       0.028526       0.014688

     4   H  -   3   O       0.880665       0.972987

     5   H  -   1   C       0.965880       0.985488

     6   H  -   1   C       0.961282       0.979698

     7   H  -   1   C       0.961282       0.979698

     8   C  -   2   C       0.993956       0.976234
     8   C  -  14   H       0.964707       0.980588
     8   C  -  12   H       0.962090       0.980370
     8   C  -  10   H       0.961818       0.979633
     8   C  -   3   O       0.028526       0.014688

     9   C  -   2   C       0.993956       0.976234
     9   C  -  15   H       0.964707       0.980588
     9   C  -  13   H       0.962090       0.980370
     9   C  -  11   H       0.961818       0.979633
     9   C  -   3   O       0.028526       0.014688

    10   H  -   8   C       0.961818       0.979633

    11   H  -   9   C       0.961818       0.979633

    12   H  -   8   C       0.962090       0.980370

    13   H  -   9   C       0.962090       0.980370

    14   H  -   8   C       0.964707       0.980588

    15   H  -   9   C       0.964707       0.980588


 Valency analysis:

   CEN ATOM   TOT.VALENCE
     1   C       3.948100
     2   C       3.934345
     3   O       1.949033
     4   H       0.902799
     5   H       0.986846
     6   H       0.984676
     7   H       0.984676
     8   C       3.950204
     9   C       3.950204
    10   H       0.984622
    11   H       0.984622
    12   H       0.986142
    13   H       0.986142
    14   H       0.988269
    15   H       0.988269

 Total charge composition:

   CEN ATOM         s          p       ELECTRONS ->P.CHARGE
     1   C       3.01108    3.35091      6.36199   -0.36199
     2   C       2.91904    2.81183      5.73087    0.26913
     3   O       3.62484    4.90407      8.52891   -0.52891
     4   H       0.68823                 0.68823    0.31177
     5   H       0.88531                 0.88531    0.11469
     6   H       0.87621                 0.87621    0.12379
     7   H       0.87621                 0.87621    0.12379
     8   C       3.01812    3.35805      6.37617   -0.37617
     9   C       3.01812    3.35805      6.37617   -0.37617
    10   H       0.87599                 0.87599    0.12401
    11   H       0.87599                 0.87599    0.12401
    12   H       0.88228                 0.88228    0.11772
    13   H       0.88228                 0.88228    0.11772
    14   H       0.89169                 0.89169    0.10831
    15   H       0.89169                 0.89169    0.10831

 Total charge composition, AO contributions:

   CEN ATOM SHL      SPHERICAL COMPONENTS
     1   C  1s       1.99226
     1   C  2s       1.01882
     1   C  2p       1.04067    1.14920    1.16104

     2   C  1s       1.99374
     2   C  2s       0.92531
     2   C  2p       1.00735    0.79619    1.00828

     3   O  1s       1.99740
     3   O  2s       1.62743
     3   O  2p       1.45438    1.49482    1.95488

     4   H  1s       0.68823

     5   H  1s       0.88531

     6   H  1s       0.87621

     7   H  1s       0.87621

     8   C  1s       1.99235
     8   C  2s       1.02577
     8   C  2p       1.13206    1.13410    1.09189

     9   C  1s       1.99235
     9   C  2s       1.02577
     9   C  2p       1.13206    1.13410    1.09189

    10   H  1s       0.87599

    11   H  1s       0.87599

    12   H  1s       0.88228

    13   H  1s       0.88228

    14   H  1s       0.89169

    15   H  1s       0.89169

 Summary of localized orbital composition:   [THRPRINT= 0.020]

   ORB  GRP  ORB.ENERGY      CENTERS/CHARGES
     1   1   -19.011689      O  3   2.000
     2   1   -10.129106      C  2   2.000
     3   1   -10.047702      C  8   2.000
     4   1   -10.047702      C  9   2.000
     5   1   -10.041729      C  1   2.000
     6   1    -0.772165      O  3   1.315   H  4   0.675
     7   1    -0.747370      O  3   1.274   C  2   0.708
     8   1    -0.584094      O  3   1.981
     9   1    -0.583786      C  9   1.014   C  2   0.969
    10   1    -0.583786      C  8   1.014   C  2   0.969
    11   1    -0.583462      C  1   0.995   C  2   0.980   (other: 0.025)
    12   1    -0.506241      C  8   1.113   H 12   0.872
    13   1    -0.506241      C  9   1.113   H 13   0.872
    14   1    -0.504903      C  8   1.103   H 14   0.884
    15   1    -0.504903      C  9   1.103   H 15   0.884
    16   1    -0.502121      C  1   1.108   H  5   0.878
    17   1    -0.500499      C  9   1.122   H 11   0.867
    18   1    -0.500499      C  8   1.122   H 10   0.867
    19   1    -0.495893      C  1   1.121   H  6   0.867
    20   1    -0.495893      C  1   1.121   H  7   0.867
    21   1    -0.315242      O  3   1.955   (other: 0.045)

 Localized orbitals saved to record      2100.2  (orbital set 2)


 **********************************************************************************************************************************
 DATASETS  * FILE   NREC   LENGTH (MB)   RECORD NAMES
              1      20      928.02       500      610      700      900      950      970     1000      129      960     1100   
                                          VAR    BASINP    GEOM    SYMINP    ZMAT    AOBASIS   BASIS     P2S    ABASIS      S 
                                         1400     1410     1200     1210     1080     1600     1650     1300     1700     1800   
                                           T        V       H0       H01     AOSYM     SMH    MOLCAS    ERIS     OPER     GRID   

              2       5        4.33       700     1000      520     1800     2100   
                                         GEOM     BASIS   MCVARS    GRID      RKS  

 PROGRAMS   *        TOTAL      IBBA        KS       INT
 CPU TIMES  *       164.88      0.07    139.55     25.11
 REAL TIME  *       222.68 SEC
 DISK USED  *         3.90 GB      
 **********************************************************************************************************************************
 Molecular orbitals read from record     2100.2  Type=RKS/LOCAL(IBO)  
 Occupation numbers read from record     2100.2  Type=RKS/LOCAL(IBO)  
 Orbital energies read from record       2100.2  Type=RKS/LOCAL(IBO)  
 Redundancy group numbers read from rec  2100.2  Type=RKS/LOCAL(IBO)  

 IBBA/TZVP energy=      0.000000000000

        KS-SCF  
   -225.68108859
 **********************************************************************************************************************************
 Molpro calculation terminated
