
 Primary working directories    : /tmp/sb13343
 Secondary working directories  : /tmp/sb13343
 Wavefunction directory         : /panfs/panasas01/chem/sb13343/wfu/
 Main file repository           : /tmp/sb13343/

 SHA1      : b4a5b34a9e711420743f49e6833241d17c61fb3c
 NAME      : 2099.9.b4a5b34
 ARCHNAME  : linux/x86_64_openmp
 FC        : /cm/shared/languages/GCC-6.1/bin/gfortran
 BLASLIB   : -lblas
 id        : simonbennie

 Nodes     nprocs
 node34-005    1

 Using customized tuning parameters: mindgm=1; mindgv=20; mindgc=4; mindgr=1; noblas=0; minvec=7
 default implementation of scratch files=df  

 memory,500,m
 geomtyp=xyz
 nosym
 noorient
 geometry={
 H         -1.13405        1.76167        0.00000
 C         -1.32915        0.67205        0.00000
 C         -0.06360       -0.12883        0.00000
 C          0.67426       -0.31636        1.28970
 C          0.67426       -0.31636       -1.28970
 H         -1.94006        0.46750        0.88859
 H         -1.94006        0.46750       -0.88859
 H          1.28359        0.56876        1.55544
 H         -0.01165       -0.48291        2.13019
 H          1.36783       -1.16569        1.24157
 H          1.28359        0.56876       -1.55544
 H         -0.01165       -0.48291       -2.13019
 H          1.36783       -1.16569       -1.24157
 }
 basis={ default,svp }
 {ks,MM06-HF,direct;wf,33,1,1}
 {ibba,bonds=1}

 Variables initialized (895), CPU time= 0.01 sec
 Commands  initialized (725), CPU time= 0.01 sec, 591 directives.
 Default parameters read. Elapsed time= 0.08 sec

 Checking input...
 Passed
1


                                         ***  PROGRAM SYSTEM MOLPRO  ***
                                       Copyright, TTI GmbH Stuttgart, 2015
                                    Version 2099.9 linked May 26 2017 16:03:21


 **********************************************************************************************************************************
 LABEL *                                                                                 
  64 bit serial version                                                                  DATE: 08-Jun-17          TIME: 20:41:29  
 **********************************************************************************************************************************

 SHA1:             b4a5b34a9e711420743f49e6833241d17c61fb3c
 **********************************************************************************************************************************
 SETTING GEOMTYP        =    XYZ

 Variable memory set to  500000000 words,  buffer space 

 ZSYMEL=NOSYM

 SETTING BASIS          =    SVP


 Recomputing integrals since basis changed


 Using spherical harmonics

 Library entry H      S def2-SVP             selected for orbital group  1
 Library entry H      P def2-SVP             selected for orbital group  1
 Library entry C      S def2-SVP             selected for orbital group  2
 Library entry C      P def2-SVP             selected for orbital group  2
 Library entry C      D def2-SVP             selected for orbital group  2


 PROGRAM * SEWARD (Integral evaluation for generally contracted gaussian basis sets)     Author: Roland Lindh, 1990

 Geometry written to block  1 of record 700


 Point group  C1  



 ATOMIC COORDINATES

 NR  ATOM    CHARGE       X              Y              Z

   1  H       1.00   -2.143043912    3.329073822    0.000000000
   2  C       6.00   -2.511729478    1.269990442    0.000000000
   3  C       6.00   -0.120186582   -0.243453417    0.000000000
   4  C       6.00    1.274166737   -0.597833757    2.437179783
   5  C       6.00    1.274166737   -0.597833757   -2.437179783
   6  H       1.00   -3.666182065    0.883446963    1.679191737
   7  H       1.00   -3.666182065    0.883446963   -1.679191737
   8  H       1.00    2.425633556    1.074800631    2.939355603
   9  H       1.00   -0.022015309   -0.912567643    4.025475693
  10  H       1.00    2.584824085   -2.202834846    2.346227264
  11  H       1.00    2.425633556    1.074800631   -2.939355603
  12  H       1.00   -0.022015309   -0.912567643   -4.025475693
  13  H       1.00    2.584824085   -2.202834846   -2.346227264

 Bond lengths in Bohr (Angstrom)

 1-2  2.091830159  2-3  2.830192527  2-6  2.074092940  2-7  2.074092940  3-4  2.830132841
     ( 1.106948849)     ( 1.497673388)     ( 1.097562717)     ( 1.097562717)     ( 1.497641803)

  3- 5  2.830132841   4- 8  2.091832255   4- 9  2.074085151   4-10  2.074156104   5-11  2.091832255
       ( 1.497641803)       ( 1.106949959)       ( 1.097558596)       ( 1.097596142)       ( 1.106949959)

  5-12  2.074085151   5-13  2.074156104
       ( 1.097558596)       ( 1.097596142)

 Bond angles

  1-2-3  112.17549786   1-2-6  106.35284965   1-2-7  106.35284965   2-3-4  118.89987932

  2-3-5  118.89987932   3-2-6  111.75744418   3-2-7  111.75744418   3-4-8  112.19808176

  3- 4- 9  111.75014522   3- 4-10  111.74379558   3- 5-11  112.19808176   3- 5-12  111.75014522

  3- 5-13  111.74379558   4- 3- 5  118.89276928   6- 2- 7  108.11431090   8- 4- 9  106.34995457

  8- 4-10  106.34572146   9- 4-10  108.12296896  11- 5-12  106.34995457  11- 5-13  106.34572146

 12- 5-13  108.12296896

 NUCLEAR CHARGE:                   33
 NUMBER OF PRIMITIVE AOS:         163
 NUMBER OF SYMMETRY AOS:          159
 NUMBER OF CONTRACTIONS:          101   ( 101A   )
 NUMBER OF CORE ORBITALS:           4   (   4A   )
 NUMBER OF VALENCE ORBITALS:       25   (  25A   )


 NUCLEAR REPULSION ENERGY  124.92676597


 Eigenvalues of metric

         1 0.371E-02 0.424E-02 0.424E-02 0.242E-01 0.242E-01 0.268E-01 0.277E-01 0.371E-01


 Contracted 2-electron integrals neglected if value below      1.0D-11
 AO integral compression algorithm  1   Integral accuracy      1.0D-11

     53.477 MB (compressed) written to integral file ( 46.4%)


 NUMBER OF SORTED TWO-ELECTRON INTEGRALS:   13268976.     BUFFER LENGTH:  32768
 NUMBER OF SEGMENTS:   1  SEGMENT LENGTH:   13268976      RECORD LENGTH: 524288

 Memory used in sort:      13.83 MW

 SORT1 READ    14422061. AND WROTE    12225547. INTEGRALS IN     35 RECORDS. CPU TIME:     0.17 SEC, REAL TIME:     0.34 SEC
 SORT2 READ    12225547. AND WROTE    13268976. INTEGRALS IN    204 RECORDS. CPU TIME:     0.33 SEC, REAL TIME:     0.40 SEC

 FILE SIZES:   FILE 1:    84.0 MBYTE,  FILE 4:   146.8 MBYTE,   TOTAL:    230.9 MBYTE

 OPERATOR DM      FOR CENTER  0  COORDINATES:    0.000000    0.000000    0.000000


 **********************************************************************************************************************************
 DATASETS  * FILE   NREC   LENGTH (MB)   RECORD NAMES
              1      19       77.16       500      610      700      900      950      970     1000      129      960     1100   
                                          VAR    BASINP    GEOM    SYMINP    ZMAT    AOBASIS   BASIS     P2S    ABASIS      S 
                                         1400     1410     1200     1210     1080     1600     1650     1300     1700   
                                           T        V       H0       H01     AOSYM     SMH    MOLCAS    ERIS     OPER   

 PROGRAMS   *        TOTAL       INT
 CPU TIMES  *         2.20      2.06
 REAL TIME  *         2.88 SEC
 DISK USED  *       231.35 MB      
 **********************************************************************************************************************************

 Density functional group MM06-HF=M06HFX+M06HFC
 Functional: M06HFX(Automatically generated (new) M06HFX)                      Gradient terms: 2
 Functional: M06HFC(Automatically generated (new) M06HFC)                      Gradient terms: 2
 Use grid at  1800.2


 Exact exchange will be calculated, factor:  1.0000

 Functional: M06HFX                    Factor:  1.0000
 Functional: M06HFC                    Factor:  1.0000

 Generated new metagrid on record  1800.2 with target accuracy 1.0D-06 and 45406 points in CPU time    1.4
 Computed new grid on record 1800.1 in CPU time    1.5
  161317 words reserved for DFT integration

 PROGRAM * RKS-SCF (Restricted open shell Kohn-Sham)     Authors: W. Meyer, H.-J. Werner, P.J. Knowles, 1993

 NUMBER OF ELECTRONS:      17+   16-    SPACE SYMMETRY=1    SPIN SYMMETRY: Doublet 
 CONVERGENCE THRESHOLDS:    1.00E-05 (Density)    1.00E-06 (Energy)
 MAX. NUMBER OF ITERATIONS:       60
 INTERPOLATION TYPE:            DIIS
 INTERPOLATION STEPS:              2 (START)      1 (STEP)
 LEVEL SHIFTS:                 -0.60 (CLOSED) -0.30 (OPEN) 



 Use fine grid record 1800.2 for energy threshold  1.0D-06
 Orbital guess generated from atomic densities. Full valence occupancy:   17

 Molecular orbital dump at record        2100.2

 Initial alpha occupancy:  17
 Initial beta  occupancy:  16
 Wave function symmetry:    1

 ITERATION    DDIFF          GRAD             ENERGY        2-EL.EN.            DIPOLE MOMENTS         DIIS   ORB.
    1      0.000D+00      0.000D+00      -157.52594919    355.799410    0.13628    0.27579    0.00000    0    start
    2      0.000D+00      0.522D-02      -157.58021455    351.701078    0.07593    0.14348   -0.00000    1    diag,B
    3      0.440D-02      0.175D-02      -157.58931368    351.894521    0.06611    0.11684   -0.00000    2    diag,B
    4      0.148D-02      0.882D-03      -157.59331280    351.811908    0.05777    0.09035   -0.00000    3    diag,B
    5      0.171D-02      0.191D-03      -157.59357343    351.797412    0.05708    0.08608   -0.00000    4    diag,B
    6      0.624D-03      0.714D-04      -157.59362353    351.785991    0.05642    0.08356   -0.00000    5    diag,B
    7      0.319D-03      0.217D-04      -157.59362905    351.785457    0.05614    0.08286   -0.00000    6    fixocc
    8      0.771D-04      0.830D-05      -157.59362991    351.785297    0.05608    0.08276   -0.00000    7    diag,B
    9      0.370D-04      0.253D-05      -157.59362998    351.785754    0.05611    0.08289   -0.00000    8    diag,B
   10      0.155D-04      0.827D-06      -157.59362999    351.785771    0.05612    0.08294   -0.00000    9    orth
   11      0.552D-05      0.247D-06      -157.59362999    351.785775    0.05611    0.08295   -0.00000    0    orth

 Final alpha occupancy:  17
 Final beta  occupancy:  16

 !RKS STATE 1.1 Energy               -157.593629988237
 Nuclear energy                       124.92676597
 One-electron energy                 -457.36733501
 Two-electron energy                  175.89288761
 Density functional                    -1.04594856     M06HFX= 0.08757916 M06HFC=-1.13352772
 Virial quotient                       -1.01340867
 !RKS STATE 1.1 Dipole moment           0.05611236     0.08294505    -0.00000000
 Dipole moment /Debye                   0.14261406     0.21081149    -0.00000000

 Orbital energies:

         1.1          2.1          3.1          4.1          5.1          6.1          7.1          8.1          9.1         10.1
    -10.977540   -10.970942   -10.970902   -10.969586    -0.990606    -0.877380    -0.876493    -0.686093    -0.593138    -0.592218

        11.1         12.1         13.1         14.1         15.1         16.1         17.1         18.1         19.1
     -0.583268    -0.528731    -0.528616    -0.512558    -0.476276    -0.475913    -0.295037     0.120296     0.175056

 HOMO     17.1    -0.295037 =      -8.0284eV
 LUMO     18.1     0.120296 =       3.2734eV
 LUMO-HOMO         0.415333 =      11.3018eV


 **********************************************************************************************************************************
 DATASETS  * FILE   NREC   LENGTH (MB)   RECORD NAMES
              1      20       78.61       500      610      700      900      950      970     1000      129      960     1100   
                                          VAR    BASINP    GEOM    SYMINP    ZMAT    AOBASIS   BASIS     P2S    ABASIS      S 
                                         1400     1410     1200     1210     1080     1600     1650     1300     1700     1800   
                                           T        V       H0       H01     AOSYM     SMH    MOLCAS    ERIS     OPER     GRID   

              2       5        3.26       700     1000      520     1800     2100   
                                         GEOM     BASIS   MCVARS    GRID      RKS  

 PROGRAMS   *        TOTAL        KS       INT
 CPU TIMES  *        62.30     60.10      2.06
 REAL TIME  *        63.98 SEC
 DISK USED  *       231.35 MB      
 **********************************************************************************************************************************


 PROGRAM * Intrinsic Basis Bonding Analysis (IBBA)          Author: G. Knizia

 Molecular orbitals read from record     2100.2  Type=RKS/CANONICAL (state 1.1)
 Fock matrix read from record            2100.2  Type=RKS/TOTAL (state 1.1)
 Orbital energies read from record       2100.2  Type=RKS/CANONICAL (state 1.1)
 Density matrix read from record         2100.2  Type=RKS/CHARGE (state 1.1)

 Number of core orbitals:           4 (   4 )
 Number of closed-shell orbitals:  12 (  12 )
 Number of active  orbitals:        1 (   1 )

 Basis set MINAO-AUTO-PP generated.      Number of basis functions:   29 

 Polarized AO type:                A = (O Ot + (1-O)(1-Ot)) P12
 Orthogonalization method:         Symmetric (Loewdin)
 Localization functional:          L = sum[A,i] <i|n_A|i>^4 -> max

 Localization group 1:  16 orbitals, occupancy  2.000
 Iterative localization: IB/PM,    7 iter; Final gradient 0.21E-08

 Bond order analysis:       [THRPRINT= 0.020]

   CEN ATOM   CEN ATOM     WIBERG.BO      RENORM.BO
     1   H  -   2   C       0.936449       0.999019
     1   H  -   3   C       0.029059       0.209077

     2   C  -   3   C       1.054913       1.317004
     2   C  -   6   H       0.959163       0.989678
     2   C  -   7   H       0.959163       0.989678
     2   C  -   1   H       0.936449       0.999019

     3   C  -   4   C       1.055368       1.318739
     3   C  -   5   C       1.055368       1.318739
     3   C  -   2   C       1.054913       1.317004
     3   C  -   8   H       0.029171       0.209855
     3   C  -  11   H       0.029171       0.209855
     3   C  -   1   H       0.029059       0.209077

     4   C  -   3   C       1.055368       1.318739
     4   C  -   9   H       0.959186       0.989694
     4   C  -  10   H       0.958853       0.989703
     4   C  -   8   H       0.936325       0.999022

     5   C  -   3   C       1.055368       1.318739
     5   C  -  12   H       0.959186       0.989694
     5   C  -  13   H       0.958853       0.989703
     5   C  -  11   H       0.936325       0.999022

     6   H  -   2   C       0.959163       0.989678

     7   H  -   2   C       0.959163       0.989678

     8   H  -   4   C       0.936325       0.999022
     8   H  -   3   C       0.029171       0.209855

     9   H  -   4   C       0.959186       0.989694

    10   H  -   4   C       0.958853       0.989703

    11   H  -   5   C       0.936325       0.999022
    11   H  -   3   C       0.029171       0.209855

    12   H  -   5   C       0.959186       0.989694

    13   H  -   5   C       0.958853       0.989703


 Valency analysis:

   CEN ATOM   TOT.VALENCE
     1   H       0.975276
     2   C       3.937523
     3   C       3.290522
     4   C       3.937491
     5   C       3.937491
     6   H       0.981379
     7   H       0.981379
     8   H       0.975252
     9   H       0.981357
    10   H       0.981239
    11   H       0.975252
    12   H       0.981357
    13   H       0.981239
 Localization group 2:   1 orbitals, occupancy  1.000
 Iterative localization: IB/PM,    1 iter; Final gradient 0.00E+00

 Bond order analysis:       [THRPRINT= 0.020]

   CEN ATOM   CEN ATOM     WIBERG.BO      RENORM.BO
     1   H  -   3   C       0.062633       0.500000


     3   C  -   8   H       0.062942       0.500000
     3   C  -  11   H       0.062942       0.500000
     3   C  -   1   H       0.062633       0.500000





     8   H  -   3   C       0.062942       0.500000



    11   H  -   3   C       0.062942       0.500000




 Valency analysis:

   CEN ATOM   TOT.VALENCE
     1   H       0.071185
     2   C       0.002372
     3   C       0.258708
     4   C       0.002520
     5   C       0.002520
     6   H       0.012444
     7   H       0.012444
     8   H       0.071523
     9   H       0.012303
    10   H       0.012722
    11   H       0.071523
    12   H       0.012303
    13   H       0.012722

 Total charge composition:

   CEN ATOM         s          p       ELECTRONS ->P.CHARGE
     1   H       0.87972                 0.87972    0.12028
     2   C       2.98477    3.39892      6.38369   -0.38369
     3   C       2.95352    3.04345      5.99697    0.00303
     4   C       2.98430    3.39680      6.38110   -0.38110
     5   C       2.98430    3.39680      6.38110   -0.38110
     6   H       0.86980                 0.86980    0.13020
     7   H       0.86980                 0.86980    0.13020
     8   H       0.87983                 0.87983    0.12017
     9   H       0.86965                 0.86965    0.13035
    10   H       0.86943                 0.86943    0.13057
    11   H       0.87983                 0.87983    0.12017
    12   H       0.86965                 0.86965    0.13035
    13   H       0.86943                 0.86943    0.13057

 Total charge composition, AO contributions:

   CEN ATOM SHL      SPHERICAL COMPONENTS
     1   H  1s       0.87972

     2   C  1s       1.99023
     2   C  2s       0.99454
     2   C  2p       1.09876    1.13066    1.16949

     3   C  1s       1.99205
     3   C  2s       0.96147
     3   C  2p       1.01660    1.00186    1.02499

     4   C  1s       1.99023
     4   C  2s       0.99407
     4   C  2p       1.14286    1.15906    1.09488

     5   C  1s       1.99023
     5   C  2s       0.99407
     5   C  2p       1.14286    1.15906    1.09488

     6   H  1s       0.86980

     7   H  1s       0.86980

     8   H  1s       0.87983

     9   H  1s       0.86965

    10   H  1s       0.86943

    11   H  1s       0.87983

    12   H  1s       0.86965

    13   H  1s       0.86943

 Active orbital charges:

   CEN ATOM         s          p       ELECTRONS ->SPIN.DEN
     1   H       0.03696                 0.03696    0.03696
     2   C       0.00023    0.00096      0.00119    0.00119
     3   C       0.01743    0.82991      0.84734    0.84734
     4   C       0.00026    0.00100      0.00126    0.00126
     5   C       0.00026    0.00100      0.00126    0.00126
     6   H       0.00626                 0.00626    0.00626
     7   H       0.00626                 0.00626    0.00626
     8   H       0.03714                 0.03714    0.03714
     9   H       0.00619                 0.00619    0.00619
    10   H       0.00640                 0.00640    0.00640
    11   H       0.03714                 0.03714    0.03714
    12   H       0.00619                 0.00619    0.00619
    13   H       0.00640                 0.00640    0.00640

 Active orbital charges, AO contributions:

   CEN ATOM SHL      SPHERICAL COMPONENTS
     1   H  1s       0.03696

     2   C  1s       0.00000
     2   C  2s       0.00023
     2   C  2p       0.00007    0.00088    0.00000

     3   C  1s       0.00002
     3   C  2s       0.01741
     3   C  2p       0.16204    0.66788    0.00000

     4   C  1s       0.00000
     4   C  2s       0.00026
     4   C  2p       0.00040    0.00024    0.00036

     5   C  1s       0.00000
     5   C  2s       0.00026
     5   C  2p       0.00040    0.00024    0.00036

     6   H  1s       0.00626

     7   H  1s       0.00626

     8   H  1s       0.03714

     9   H  1s       0.00619

    10   H  1s       0.00640

    11   H  1s       0.03714

    12   H  1s       0.00619

    13   H  1s       0.00640

 Summary of localized orbital composition:   [THRPRINT= 0.020]

   ORB  GRP  ORB.ENERGY      CENTERS/CHARGES
     1   1   -10.877290      C  3   2.000
     2   1   -10.850263      C  5   2.000
     3   1   -10.850263      C  4   2.000
     4   1   -10.848903      C  2   2.000
     5   1    -0.755324      C  4   0.998   C  3   0.989
     6   1    -0.755324      C  5   0.998   C  3   0.989
     7   1    -0.754483      C  2   1.001   C  3   0.986
     8   1    -0.658585      C  4   1.128   H 10   0.857
     9   1    -0.658585      C  5   1.128   H 13   0.857
    10   1    -0.658335      C  5   1.128   H 12   0.857
    11   1    -0.658335      C  4   1.128   H  9   0.857
    12   1    -0.657256      C  4   1.119   H  8   0.839   C  3   0.039
    13   1    -0.657256      C  5   1.119   H 11   0.839   C  3   0.039
    14   1    -0.656780      C  2   1.119   H  1   0.839   C  3   0.039
    15   1    -0.656640      C  2   1.128   H  6   0.857
    16   1    -0.656640      C  2   1.128   H  7   0.857
    17   2    -0.103959      C  3   0.847   H  8   0.037   H 11   0.037   H  1   0.037   (other: 0.041)

 Localized orbitals saved to record      2100.2  (orbital set 2)


 **********************************************************************************************************************************
 DATASETS  * FILE   NREC   LENGTH (MB)   RECORD NAMES
              1      20       78.61       500      610      700      900      950      970     1000      129      960     1100   
                                          VAR    BASINP    GEOM    SYMINP    ZMAT    AOBASIS   BASIS     P2S    ABASIS      S 
                                         1400     1410     1200     1210     1080     1600     1650     1300     1700     1800   
                                           T        V       H0       H01     AOSYM     SMH    MOLCAS    ERIS     OPER     GRID   

              2       5        3.34       700     1000      520     1800     2100   
                                         GEOM     BASIS   MCVARS    GRID      RKS  

 PROGRAMS   *        TOTAL      IBBA        KS       INT
 CPU TIMES  *        62.33      0.03     60.10      2.06
 REAL TIME  *        64.09 SEC
 DISK USED  *       231.35 MB      
 **********************************************************************************************************************************
 Molecular orbitals read from record     2100.2  Type=RKS/LOCAL(IBO)  
 Occupation numbers read from record     2100.2  Type=RKS/LOCAL(IBO)  
 Orbital energies read from record       2100.2  Type=RKS/LOCAL(IBO)  
 Redundancy group numbers read from rec  2100.2  Type=RKS/LOCAL(IBO)  

 IBBA/SVP energy=      0.000000000000

        KS-SCF  
   -157.59362999
 **********************************************************************************************************************************
 Molpro calculation terminated
