
 Primary working directories    : /tmp/sb13343
 Secondary working directories  : /tmp/sb13343
 Wavefunction directory         : /panfs/panasas01/chem/sb13343/wfu/
 Main file repository           : /tmp/sb13343/

 SHA1      : b4a5b34a9e711420743f49e6833241d17c61fb3c
 NAME      : 2099.9.b4a5b34
 ARCHNAME  : linux/x86_64_openmp
 FC        : /cm/shared/languages/GCC-6.1/bin/gfortran
 BLASLIB   : -lblas
 id        : simonbennie

 Nodes     nprocs
 node32-029    1

 Using customized tuning parameters: mindgm=1; mindgv=20; mindgc=4; mindgr=1; noblas=0; minvec=7
 default implementation of scratch files=df  

 memory,500,m
 geomtyp=xyz
 nosym
 noorient
 geometry={
 C          0.00000        0.00000        0.00000
 H          0.00000        0.00000        1.10056
 C          1.46209        0.00000       -0.46855
 C         -0.73105       -1.26621       -0.46855
 C         -0.73105        1.26621       -0.46855
 H          1.52118        0.00000       -1.56505
 H         -0.76059       -1.31738       -1.56505
 H         -0.76059        1.31738       -1.56505
 H          1.99755        0.88622       -0.10723
 H          1.99755       -0.88622       -0.10723
 H         -0.23129       -2.17304       -0.10723
 H         -1.76626       -1.28682       -0.10723
 H         -1.76626        1.28682       -0.10723
 H         -0.23129        2.17304       -0.10723
 }
 basis={ default,sto-3g }
 {ks,LSDAC,direct;wf,34,1,0}
 {ibba,bonds=1}

 Variables initialized (895), CPU time= 0.01 sec
 Commands  initialized (725), CPU time= 0.01 sec, 591 directives.
 Default parameters read. Elapsed time= 0.08 sec

 Checking input...
 Passed
1


                                         ***  PROGRAM SYSTEM MOLPRO  ***
                                       Copyright, TTI GmbH Stuttgart, 2015
                                    Version 2099.9 linked May 26 2017 16:03:21


 **********************************************************************************************************************************
 LABEL *                                                                                 
  64 bit serial version                                                                  DATE: 08-Jun-17          TIME: 23:50:53  
 **********************************************************************************************************************************

 SHA1:             b4a5b34a9e711420743f49e6833241d17c61fb3c
 **********************************************************************************************************************************
 SETTING GEOMTYP        =    XYZ

 Variable memory set to  500000000 words,  buffer space 

 ZSYMEL=NOSYM

 SETTING BASIS          =    STO-3G


 Recomputing integrals since basis changed


 Using spherical harmonics

 Library entry C      S STO-3G               selected for orbital group  1
 Library entry C      P STO-3G               selected for orbital group  1
 Library entry H      S STO-3G               selected for orbital group  2


 PROGRAM * SEWARD (Integral evaluation for generally contracted gaussian basis sets)     Author: Roland Lindh, 1990

 Geometry written to block  1 of record 700


 Point group  C1  



 ATOMIC COORDINATES

 NR  ATOM    CHARGE       X              Y              Z

   1  C       6.00    0.000000000    0.000000000    0.000000000
   2  H       1.00    0.000000000    0.000000000    2.079756984
   3  C       6.00    2.762949669    0.000000000   -0.885431176
   4  C       6.00   -1.381484283   -2.392790116   -0.885431176
   5  C       6.00   -1.381484283    2.392790116   -0.885431176
   6  H       1.00    2.874613586    0.000000000   -2.957515871
   7  H       1.00   -1.437306793   -2.489487402   -2.957515871
   8  H       1.00   -1.437306793    2.489487402   -2.957515871
   9  H       1.00    3.774822420    1.674713086   -0.202635332
  10  H       1.00    3.774822420   -1.674713086   -0.202635332
  11  H       1.00   -0.437074755   -4.106450458   -0.202635332
  12  H       1.00   -3.337747665   -2.431737372   -0.202635332
  13  H       1.00   -3.337747665    2.431737372   -0.202635332
  14  H       1.00   -0.437074755    4.106450458   -0.202635332

 Bond lengths in Bohr (Angstrom)

 1-2  2.079756984  1-3  2.901358172  1-4  2.901367218  1-5  2.901367218  3-6  2.075091279
     ( 1.100560000)     ( 1.535332625)     ( 1.535337412)     ( 1.535337412)     ( 1.098091015)

  3- 9  2.072380406   3-10  2.072380406   4- 7  2.075090722   4-11  2.072378172   4-12  2.072364222
       ( 1.096656483)       ( 1.096656483)       ( 1.098090721)       ( 1.096655301)       ( 1.096647919)

  5- 8  2.075090722   5-13  2.072364222   5-14  2.072378172
       ( 1.098090721)       ( 1.096647919)       ( 1.096655301)

 Bond angles

  1- 3- 6  110.85354902   1- 3- 9  111.37220114   1- 3-10  111.37220114   1- 4- 7  110.85320625

  1- 4-11  111.37204414   1- 4-12  111.37216555   1- 5- 8  110.85320625   1- 5-13  111.37216555

  1- 5-14  111.37204414   2- 1- 3  107.76888332   2- 1- 4  107.76882608   2- 1- 5  107.76882608

  3-1-4  111.11870751   3-1-5  111.11870751   4-1-5  111.11845005   6-3-9  107.62119374

  6- 3-10  107.62119374   7- 4-11  107.62125572   7- 4-12  107.62162102   8- 5-13  107.62162102

  8- 5-14  107.62125572   9- 3-10  107.82352924  11- 4-12  107.82360822  13- 5-14  107.82360822

 NUCLEAR CHARGE:                   34
 NUMBER OF PRIMITIVE AOS:          90
 NUMBER OF SYMMETRY AOS:           90
 NUMBER OF CONTRACTIONS:           30   (  30A   )
 NUMBER OF CORE ORBITALS:           4   (   4A   )
 NUMBER OF VALENCE ORBITALS:       26   (  26A   )


 NUCLEAR REPULSION ENERGY  134.07051350


 Eigenvalues of metric

         1 0.203E+00 0.229E+00 0.229E+00 0.287E+00 0.356E+00 0.362E+00 0.364E+00 0.364E+00


 Contracted 2-electron integrals neglected if value below      1.0D-11
 AO integral compression algorithm  1   Integral accuracy      1.0D-11

     1.049 MB (compressed) written to integral file ( 95.2%)


 NUMBER OF SORTED TWO-ELECTRON INTEGRALS:     108345.     BUFFER LENGTH:  32768
 NUMBER OF SEGMENTS:   1  SEGMENT LENGTH:     108345      RECORD LENGTH: 524288

 Memory used in sort:       0.67 MW

 SORT1 READ      123158. AND WROTE      102148. INTEGRALS IN      1 RECORDS. CPU TIME:     0.00 SEC, REAL TIME:     0.01 SEC
 SORT2 READ      102148. AND WROTE      108345. INTEGRALS IN      4 RECORDS. CPU TIME:     0.01 SEC, REAL TIME:     0.02 SEC

 FILE SIZES:   FILE 1:    31.3 MBYTE,  FILE 4:     4.2 MBYTE,   TOTAL:     35.5 MBYTE

 OPERATOR DM      FOR CENTER  0  COORDINATES:    0.000000    0.000000    0.000000


 **********************************************************************************************************************************
 DATASETS  * FILE   NREC   LENGTH (MB)   RECORD NAMES
              1      19       30.69       500      610      700      900      950      970     1000      129      960     1100   
                                          VAR    BASINP    GEOM    SYMINP    ZMAT    AOBASIS   BASIS     P2S    ABASIS      S 
                                         1400     1410     1200     1210     1080     1600     1650     1300     1700   
                                           T        V       H0       H01     AOSYM     SMH    MOLCAS    ERIS     OPER   

 PROGRAMS   *        TOTAL       INT
 CPU TIMES  *         0.59      0.45
 REAL TIME  *         1.00 SEC
 DISK USED  *        35.98 MB      
 **********************************************************************************************************************************

 Density functional group LSDAC=PW92C
 Functional: PW92C(Automatically generated (new) PW92C)                        Gradient terms: 0
 Use grid at  1800.2

 Functional: PW92C                     Factor:  1.0000

 Generated new metagrid on record  1800.2 with target accuracy 1.0D-06 and 45620 points in CPU time    1.1
 Computed new grid on record 1800.1 in CPU time    1.3
   16856 words reserved for DFT integration

 PROGRAM * RKS-SCF (Restricted closed shell Kohn-Sham)     Authors: W. Meyer, H.-J. Werner, P.J. Knowles, 1993

 NUMBER OF ELECTRONS:      17+   17-    SPACE SYMMETRY=1    SPIN SYMMETRY: Singlet 
 CONVERGENCE THRESHOLDS:    1.00E-05 (Density)    1.00E-06 (Energy)
 MAX. NUMBER OF ITERATIONS:       60
 INTERPOLATION TYPE:            DIIS
 INTERPOLATION STEPS:              2 (START)      1 (STEP)
 LEVEL SHIFTS:                  0.00 (CLOSED)  0.00 (OPEN) 



 Use fine grid record 1800.2 for energy threshold  1.0D-06
 Orbital guess generated from atomic densities. Full valence occupancy:   17

 Molecular orbital dump at record        2100.2

 Initial occupancy:  17

 ITERATION    DDIFF          GRAD             ENERGY        2-EL.EN.            DIPOLE MOMENTS         DIIS   ORB.
    1      0.000D+00      0.000D+00      -133.25736374    420.170861   -0.00001   -0.00000    0.02208    0    start
    2      0.000D+00      0.175D-01      -133.21110165    407.680560   -0.00002   -0.00000   -0.01062    1    diag
    3      0.571D-01      0.221D-01      -133.33100831    414.678386   -0.00001   -0.00000    0.03960    2    diag
    4      0.327D-01      0.682D-03      -133.33107324    414.591207   -0.00001   -0.00000    0.02626    3    diag
    5      0.165D-02      0.526D-03      -133.33113132    414.611621   -0.00001   -0.00000    0.02727    4    diag
    6      0.772D-03      0.830D-04      -133.33113318    414.606865   -0.00001   -0.00000    0.02920    5    diag
    7      0.153D-03      0.679D-05      -133.33113320    414.606413   -0.00001   -0.00000    0.02880    6    diag
    8      0.142D-04      0.651D-06      -133.33113320    414.606360   -0.00001   -0.00000    0.02888    7    diag
    9      0.151D-05      0.121D-06      -133.33113320    414.606315   -0.00001   -0.00000    0.02886    0    orth

 Final occupancy:  17

 !RKS STATE 1.1 Energy               -133.331133198346
 Nuclear energy                       134.07051350
 One-electron energy                 -472.62714843
 Two-electron energy                  207.30315747
 Density functional                    -2.07765574     PW92C=-2.07765574
 Virial quotient                       -0.88562752
 !RKS STATE 1.1 Dipole moment          -0.00001088    -0.00000000     0.02885757
 Dipole moment /Debye                  -0.00002766    -0.00000000     0.07334382

 Orbital energies:

         1.1          2.1          3.1          4.1          5.1          6.1          7.1          8.1          9.1         10.1
     -7.750273    -7.743214    -7.743214    -7.738202    -0.229859    -0.116668    -0.116668    -0.014987     0.047373     0.082704

        11.1         12.1         13.1         14.1         15.1         16.1         17.1         18.1         19.1
      0.082705     0.137942     0.137942     0.163641     0.206796     0.206797     0.208475     0.771136     0.799764

 HOMO     17.1     0.208475 =       5.6729eV
 LUMO     18.1     0.771136 =      20.9837eV
 LUMO-HOMO         0.562661 =      15.3108eV


 **********************************************************************************************************************************
 DATASETS  * FILE   NREC   LENGTH (MB)   RECORD NAMES
              1      20       32.15       500      610      700      900      950      970     1000      129      960     1100   
                                          VAR    BASINP    GEOM    SYMINP    ZMAT    AOBASIS   BASIS     P2S    ABASIS      S 
                                         1400     1410     1200     1210     1080     1600     1650     1300     1700     1800   
                                           T        V       H0       H01     AOSYM     SMH    MOLCAS    ERIS     OPER     GRID   

              2       5        3.00       700     1000      520     1800     2100   
                                         GEOM     BASIS   MCVARS    GRID      RKS  

 PROGRAMS   *        TOTAL        KS       INT
 CPU TIMES  *         3.35      2.75      0.45
 REAL TIME  *         3.91 SEC
 DISK USED  *        35.98 MB      
 **********************************************************************************************************************************


 PROGRAM * Intrinsic Basis Bonding Analysis (IBBA)          Author: G. Knizia

 Molecular orbitals read from record     2100.2  Type=RKS/CANONICAL (state 1.1)
 Fock matrix read from record            2100.2  Type=RKS/TOTAL (state 1.1)
 Orbital energies read from record       2100.2  Type=RKS/CANONICAL (state 1.1)
 Density matrix read from record         2100.2  Type=RKS/CHARGE (state 1.1)

 Number of core orbitals:           4 (   4 )
 Number of closed-shell orbitals:  13 (  13 )

 Basis set MINAO-AUTO-PP generated.      Number of basis functions:   30 

 Polarized AO type:                A = (O Ot + (1-O)(1-Ot)) P12
 Orthogonalization method:         Symmetric (Loewdin)
 Localization functional:          L = sum[A,i] <i|n_A|i>^4 -> max

 Localization group 1:  17 orbitals, occupancy  2.000
 Iterative localization: IB/PM,    7 iter; Final gradient 0.50E-08

 Bond order analysis:       [THRPRINT= 0.020]

   CEN ATOM   CEN ATOM     WIBERG.BO      RENORM.BO
     1   C  -   3   C       1.001849       1.013568
     1   C  -   4   C       1.001847       1.013567
     1   C  -   5   C       1.001847       1.013567
     1   C  -   2   H       0.938438       0.957770

     2   H  -   1   C       0.938438       0.957770

     3   C  -   1   C       1.001849       1.013568
     3   C  -  10   H       0.970240       0.982496
     3   C  -   9   H       0.970240       0.982496
     3   C  -   6   H       0.969493       0.980616

     4   C  -   1   C       1.001847       1.013567
     4   C  -  11   H       0.970240       0.982496
     4   C  -  12   H       0.970240       0.982496
     4   C  -   7   H       0.969493       0.980616

     5   C  -   1   C       1.001847       1.013567
     5   C  -  14   H       0.970240       0.982496
     5   C  -  13   H       0.970240       0.982496
     5   C  -   8   H       0.969493       0.980616

     6   H  -   3   C       0.969493       0.980616

     7   H  -   4   C       0.969493       0.980616

     8   H  -   5   C       0.969493       0.980616

     9   H  -   3   C       0.970240       0.982496

    10   H  -   3   C       0.970240       0.982496

    11   H  -   4   C       0.970240       0.982496

    12   H  -   4   C       0.970240       0.982496

    13   H  -   5   C       0.970240       0.982496

    14   H  -   5   C       0.970240       0.982496


 Valency analysis:

   CEN ATOM   TOT.VALENCE
     1   C       3.967791
     2   H       0.996334
     3   C       3.952353
     4   C       3.952352
     5   C       3.952352
     6   H       0.996475
     7   H       0.996475
     8   H       0.996475
     9   H       0.996076
    10   H       0.996076
    11   H       0.996076
    12   H       0.996076
    13   H       0.996076
    14   H       0.996076

 Total charge composition:

   CEN ATOM         s          p       ELECTRONS ->P.CHARGE
     1   C       2.86009    3.17828      6.03837   -0.03837
     2   H       0.93945                 0.93945    0.06055
     3   C       2.88455    3.30749      6.19204   -0.19204
     4   C       2.88455    3.30750      6.19204   -0.19204
     5   C       2.88455    3.30750      6.19204   -0.19204
     6   H       0.94063                 0.94063    0.05937
     7   H       0.94063                 0.94063    0.05937
     8   H       0.94063                 0.94063    0.05937
     9   H       0.93736                 0.93736    0.06264
    10   H       0.93736                 0.93736    0.06264
    11   H       0.93736                 0.93736    0.06264
    12   H       0.93736                 0.93736    0.06264
    13   H       0.93736                 0.93736    0.06264
    14   H       0.93736                 0.93736    0.06264

 Total charge composition, AO contributions:

   CEN ATOM SHL      SPHERICAL COMPONENTS
     1   C  1s       1.99826
     1   C  2s       0.86184
     1   C  2p       1.04163    1.04163    1.09502

     2   H  1s       0.93945

     3   C  1s       1.99813
     3   C  2s       0.88642
     3   C  2p       1.06734    1.12387    1.11628

     4   C  1s       1.99813
     4   C  2s       0.88641
     4   C  2p       1.10974    1.08147    1.11628

     5   C  1s       1.99813
     5   C  2s       0.88641
     5   C  2p       1.10974    1.08147    1.11628

     6   H  1s       0.94063

     7   H  1s       0.94063

     8   H  1s       0.94063

     9   H  1s       0.93736

    10   H  1s       0.93736

    11   H  1s       0.93736

    12   H  1s       0.93736

    13   H  1s       0.93736

    14   H  1s       0.93736

 Summary of localized orbital composition:   [THRPRINT= 0.020]

   ORB  GRP  ORB.ENERGY      CENTERS/CHARGES
     1   1    -7.665514      C  1   2.000
     2   1    -7.659991      C  3   2.000
     3   1    -7.659990      C  5   2.000
     4   1    -7.659990      C  4   2.000
     5   1     0.014005      C  3   0.992   C  1   0.986   (other: 0.023)
     6   1     0.014008      C  5   0.992   C  1   0.986   (other: 0.023)
     7   1     0.014008      C  4   0.992   C  1   0.986   (other: 0.023)
     8   1     0.042039      C  3   1.058   H  6   0.932
     9   1     0.042040      C  4   1.058   H  7   0.932
    10   1     0.042040      C  5   1.058   H  8   0.932
    11   1     0.042043      C  4   1.062   H 12   0.928
    12   1     0.042043      C  5   1.062   H 13   0.928
    13   1     0.042045      C  4   1.062   H 11   0.928
    14   1     0.042045      C  5   1.062   H 14   0.928
    15   1     0.042045      C  3   1.062   H  9   0.928
    16   1     0.042045      C  3   1.062   H 10   0.928
    17   1     0.046370      C  1   1.046   H  2   0.924   (other: 0.030)

 Localized orbitals saved to record      2100.2  (orbital set 2)


 **********************************************************************************************************************************
 DATASETS  * FILE   NREC   LENGTH (MB)   RECORD NAMES
              1      20       32.15       500      610      700      900      950      970     1000      129      960     1100   
                                          VAR    BASINP    GEOM    SYMINP    ZMAT    AOBASIS   BASIS     P2S    ABASIS      S 
                                         1400     1410     1200     1210     1080     1600     1650     1300     1700     1800   
                                           T        V       H0       H01     AOSYM     SMH    MOLCAS    ERIS     OPER     GRID   

              2       5        3.01       700     1000      520     1800     2100   
                                         GEOM     BASIS   MCVARS    GRID      RKS  

 PROGRAMS   *        TOTAL      IBBA        KS       INT
 CPU TIMES  *         3.37      0.02      2.75      0.45
 REAL TIME  *         4.02 SEC
 DISK USED  *        35.98 MB      
 **********************************************************************************************************************************
 Molecular orbitals read from record     2100.2  Type=RKS/LOCAL(IBO)  
 Occupation numbers read from record     2100.2  Type=RKS/LOCAL(IBO)  
 Orbital energies read from record       2100.2  Type=RKS/LOCAL(IBO)  
 Redundancy group numbers read from rec  2100.2  Type=RKS/LOCAL(IBO)  

 IBBA/STO-3G energy=      0.000000000000

        KS-SCF  
   -133.33113320
 **********************************************************************************************************************************
 Molpro calculation terminated
