
 Primary working directories    : /local
 Secondary working directories  : /local
 Wavefunction directory         : /local/
 Main file repository           : /local/

 SHA1      : b4a5b34a9e711420743f49e6833241d17c61fb3c
 NAME      : 2099.9.b4a5b34
 ARCHNAME  : linux/x86_64_openmp
 FC        : /cm/shared/languages/GCC-6.1/bin/gfortran
 BLASLIB   : -lblas
 id        : simonbennie

 Nodes     nprocs
 node45-018    1

 Using customized tuning parameters: mindgm=1; mindgv=20; mindgc=4; mindgr=1; noblas=0; minvec=7
 default implementation of scratch files=df  

 memory,500,m
 geomtyp=xyz
 nosym
 noorient
 geometry={
 C         -1.53233        0.02247        0.00000
 C         -0.00192        0.01421        0.00000
 O          0.37239        1.40356        0.00000
 H          1.34248        1.44036        0.00000
 H         -1.92991       -0.99819        0.00000
 H         -1.90797        0.54382       -0.88653
 H         -1.90797        0.54382        0.88653
 C          0.54303       -0.66466       -1.26580
 C          0.54303       -0.66466        1.26580
 H          0.17836       -0.14752       -2.15943
 H          0.17836       -0.14752        2.15943
 H          0.23752       -1.71600       -1.32280
 H          0.23752       -1.71600        1.32280
 H          1.64084       -0.63767       -1.28032
 H          1.64084       -0.63767        1.28032
 }
 basis={ default,avdz }
 {ks,HFB,direct;wf,42,1,0}
 {ibba,bonds=1}

 Variables initialized (895), CPU time= 0.00 sec
 Commands  initialized (725), CPU time= 0.01 sec, 591 directives.
 Default parameters read. Elapsed time= 0.08 sec

 Checking input...
 Passed
1


                                         ***  PROGRAM SYSTEM MOLPRO  ***
                                       Copyright, TTI GmbH Stuttgart, 2015
                                    Version 2099.9 linked May 26 2017 16:03:21


 **********************************************************************************************************************************
 LABEL *                                                                                 
  64 bit serial version                                                                  DATE: 12-Jun-17          TIME: 16:23:06  
 **********************************************************************************************************************************

 SHA1:             b4a5b34a9e711420743f49e6833241d17c61fb3c
 **********************************************************************************************************************************
 SETTING GEOMTYP        =    XYZ

 Variable memory set to  500000000 words,  buffer space 

 ZSYMEL=NOSYM

 SETTING BASIS          =    AVDZ


 Recomputing integrals since basis changed


 Using spherical harmonics

 Library entry C      S aug-cc-pVDZ          selected for orbital group  1
 Library entry C      P aug-cc-pVDZ          selected for orbital group  1
 Library entry C      D aug-cc-pVDZ          selected for orbital group  1
 Library entry O      S aug-cc-pVDZ          selected for orbital group  2
 Library entry O      P aug-cc-pVDZ          selected for orbital group  2
 Library entry O      D aug-cc-pVDZ          selected for orbital group  2
 Library entry H      S aug-cc-pVDZ          selected for orbital group  3
 Library entry H      P aug-cc-pVDZ          selected for orbital group  3


 PROGRAM * SEWARD (Integral evaluation for generally contracted gaussian basis sets)     Author: Roland Lindh, 1990

 Geometry written to block  1 of record 700


 Point group  C1  



 ATOMIC COORDINATES

 NR  ATOM    CHARGE       X              Y              Z

   1  C       6.00   -2.895684032    0.042462146    0.000000000
   2  C       6.00   -0.003628274    0.026853008    0.000000000
   3  O       8.00    0.703715112    2.652343999    0.000000000
   4  H       1.00    2.536919528    2.721885921    0.000000000
   5  H       1.00   -3.647001345   -1.886305720    0.000000000
   6  H       1.00   -3.605540754    1.027670861   -1.675298901
   7  H       1.00   -3.605540754    1.027670861    1.675298901
   8  C       6.00    1.026177977   -1.256025366   -2.392015328
   9  C       6.00    1.026177977   -1.256025366    2.392015328
  10  H       1.00    0.337051552   -0.278772398   -4.080731285
  11  H       1.00    0.337051552   -0.278772398    4.080731285
  12  H       1.00    0.448847749   -3.242770030   -2.499729718
  13  H       1.00    0.448847749   -3.242770030    2.499729718
  14  H       1.00    3.100738214   -1.205021658   -2.419454152
  15  H       1.00    3.100738214   -1.205021658    2.419454152

 Bond lengths in Bohr (Angstrom)

 1-2  2.892097881  1-5  2.069933136  1-6  2.069096224  1-7  2.069096224  2-3  2.719106031
     ( 1.530432290)     ( 1.095361444)     ( 1.094918569)     ( 1.094918569)     ( 1.438888946)

  2- 8  2.903104402   2- 9  2.903104402   3- 4  1.834522965   8-10  2.069222119   8-12  2.071730422
       ( 1.536256691)       ( 1.536256691)       ( 0.970787746)       ( 1.094985190)       ( 1.096312526)

  8-14  2.075368508   9-11  2.069222119   9-13  2.071730422   9-15  2.075368508
       ( 1.098237719)       ( 1.094985190)       ( 1.096312526)       ( 1.098237719)

 Bond angles

  1-2-3  104.76902697   1-2-8  110.92255387   1-2-9  110.92255387   2-1-5  110.97328220

  2- 1- 6  110.22090701   2- 1- 7  110.22090701   2- 3- 4  107.25071562   2- 8-10  110.21836376

  2- 8-12  111.57747468   2- 8-14  110.77023896   2- 9-11  110.21836376   2- 9-13  111.57747468

  2- 9-15  110.77023896   3- 2- 8  109.53648747   3- 2- 9  109.53648747   5- 1- 6  108.61190457

  5- 1- 7  108.61190457   6- 1- 7  108.12870271   8- 2- 9  110.96453384  10- 8-12  108.52192632

 10- 8-14  108.08997829  11- 9-13  108.52192632  11- 9-15  108.08997829  12- 8-14  107.54424578

 13- 9-15  107.54424578

 NUCLEAR CHARGE:                   42
 NUMBER OF PRIMITIVE AOS:         295
 NUMBER OF SYMMETRY AOS:          285
 NUMBER OF CONTRACTIONS:          205   ( 205A   )
 NUMBER OF CORE ORBITALS:           5   (   5A   )
 NUMBER OF VALENCE ORBITALS:       30   (  30A   )


 NUCLEAR REPULSION ENERGY  198.77359127


 Eigenvalues of metric

         1 0.151E-04 0.552E-04 0.579E-04 0.110E-03 0.111E-03 0.217E-03 0.237E-03 0.259E-03


 Contracted 2-electron integrals neglected if value below      1.0D-12
 AO integral compression algorithm  1   Integral accuracy      1.0D-12

     1203.503 MB (compressed) written to integral file ( 61.3%)


 NUMBER OF SORTED TWO-ELECTRON INTEGRALS:  222932170.     BUFFER LENGTH:  32768
 NUMBER OF SEGMENTS:  14  SEGMENT LENGTH:   15999503      RECORD LENGTH: 524288

 Memory used in sort:      16.56 MW

 SORT1 READ   245224724. AND WROTE   218324786. INTEGRALS IN    630 RECORDS. CPU TIME:     3.18 SEC, REAL TIME:     6.95 SEC
 SORT2 READ   218324786. AND WROTE   222932170. INTEGRALS IN   4591 RECORDS. CPU TIME:     4.79 SEC, REAL TIME:     6.73 SEC

 FILE SIZES:   FILE 1:  1235.3 MBYTE,  FILE 4:  2642.4 MBYTE,   TOTAL:   3877.7 MBYTE

 OPERATOR DM      FOR CENTER  0  COORDINATES:    0.000000    0.000000    0.000000


 **********************************************************************************************************************************
 DATASETS  * FILE   NREC   LENGTH (MB)   RECORD NAMES
              1      19     1149.90       500      610      700      900      950      970     1000      129      960     1100   
                                          VAR    BASINP    GEOM    SYMINP    ZMAT    AOBASIS   BASIS     P2S    ABASIS      S 
                                         1400     1410     1200     1210     1080     1600     1650     1300     1700   
                                           T        V       H0       H01     AOSYM     SMH    MOLCAS    ERIS     OPER   

 PROGRAMS   *        TOTAL       INT
 CPU TIMES  *        20.62     20.47
 REAL TIME  *        52.74 SEC
 DISK USED  *         3.88 GB      
 **********************************************************************************************************************************

 Density functional group HFB=B88
 Functional: B88(Automatically generated (new) B88)                            Gradient terms: 1
 Use grid at  1800.2

 Functional: B88                       Factor:  1.0000

 Generated new metagrid on record  1800.2 with target accuracy 1.0D-06 and 53396 points in CPU time    1.7
 Computed new grid on record 1800.1 in CPU time    1.9
  167289 words reserved for DFT integration

 PROGRAM * RKS-SCF (Restricted closed shell Kohn-Sham)     Authors: W. Meyer, H.-J. Werner, P.J. Knowles, 1993

 NUMBER OF ELECTRONS:      21+   21-    SPACE SYMMETRY=1    SPIN SYMMETRY: Singlet 
 CONVERGENCE THRESHOLDS:    1.00E-05 (Density)    1.00E-06 (Energy)
 MAX. NUMBER OF ITERATIONS:       60
 INTERPOLATION TYPE:            DIIS
 INTERPOLATION STEPS:              2 (START)      1 (STEP)
 LEVEL SHIFTS:                  0.00 (CLOSED)  0.00 (OPEN) 



 Use fine grid record 1800.2 for energy threshold  1.0D-06
 Orbital guess generated from atomic densities. Full valence occupancy:   35

 Molecular orbital dump at record        2100.2

 Initial occupancy:  21

 ITERATION    DDIFF          GRAD             ENERGY        2-EL.EN.            DIPOLE MOMENTS         DIIS   ORB.
    1      0.000D+00      0.000D+00      -231.93329041    637.657858    0.68620   -0.73309    0.00000    0    start
    2      0.000D+00      0.817D-02      -231.29917688    585.612911   -0.81920    0.21397    0.00000    1    diag
    3      0.399D-01      0.147D-01      -232.18739710    622.931286    0.39336   -0.76884    0.00000    2    diag
    4      0.247D-01      0.246D-02      -232.20556210    620.464473    0.31257   -0.41090    0.00000    3    diag
    5      0.397D-02      0.829D-03      -232.20747599    620.135057    0.30773   -0.54196    0.00000    4    diag
    6      0.151D-02      0.325D-03      -232.20782668    620.376242    0.30800   -0.51010    0.00000    5    diag
    7      0.497D-03      0.751D-04      -232.20784395    620.383392    0.31094   -0.50793    0.00000    6    diag
    8      0.177D-03      0.114D-04      -232.20784451    620.403103    0.31068   -0.51254    0.00000    7    diag
    9      0.246D-04      0.313D-05      -232.20784455    620.404422    0.31089   -0.51135    0.00000    8    diag
   10      0.600D-05      0.582D-06      -232.20784455    620.404858    0.31100   -0.51139    0.00000    0    orth

 Final occupancy:  21

 !RKS STATE 1.1 Energy               -232.207844545377
 Nuclear energy                       198.77359127
 One-electron energy                 -708.66835017
 Two-electron energy                  310.20242908
 Density functional                   -32.51551472     B88=-32.51551472
 Virial quotient                       -1.00093410
 !RKS STATE 1.1 Dipole moment           0.31099886    -0.51139190     0.00000000
 Dipole moment /Debye                   0.79042848    -1.29974343     0.00000000

 Orbital energies:

         1.1          2.1          3.1          4.1          5.1          6.1          7.1          8.1          9.1         10.1
    -18.761495    -9.942375    -9.882011    -9.881984    -9.877211    -0.896604    -0.680203    -0.590822    -0.590112    -0.479252

        11.1         12.1         13.1         14.1         15.1         16.1         17.1         18.1         19.1         20.1
     -0.405235    -0.369818    -0.367095    -0.333590    -0.320486    -0.305033    -0.291938    -0.279692    -0.273675    -0.246426

        21.1         22.1         23.1
     -0.193100    -0.013332     0.009382

 HOMO     21.1    -0.193100 =      -5.2545eV
 LUMO     22.1    -0.013332 =      -0.3628eV
 LUMO-HOMO         0.179769 =       4.8918eV


 **********************************************************************************************************************************
 DATASETS  * FILE   NREC   LENGTH (MB)   RECORD NAMES
              1      20     1151.61       500      610      700      900      950      970     1000      129      960     1100   
                                          VAR    BASINP    GEOM    SYMINP    ZMAT    AOBASIS   BASIS     P2S    ABASIS      S 
                                         1400     1410     1200     1210     1080     1600     1650     1300     1700     1800   
                                           T        V       H0       H01     AOSYM     SMH    MOLCAS    ERIS     OPER     GRID   

              2       5        3.87       700     1000      520     1800     2100   
                                         GEOM     BASIS   MCVARS    GRID      RKS  

 PROGRAMS   *        TOTAL        KS       INT
 CPU TIMES  *        69.81     49.19     20.47
 REAL TIME  *       104.19 SEC
 DISK USED  *         3.88 GB      
 **********************************************************************************************************************************


 PROGRAM * Intrinsic Basis Bonding Analysis (IBBA)          Author: G. Knizia

 Molecular orbitals read from record     2100.2  Type=RKS/CANONICAL (state 1.1)
 Fock matrix read from record            2100.2  Type=RKS/TOTAL (state 1.1)
 Orbital energies read from record       2100.2  Type=RKS/CANONICAL (state 1.1)
 Density matrix read from record         2100.2  Type=RKS/CHARGE (state 1.1)

 Number of core orbitals:           5 (   5 )
 Number of closed-shell orbitals:  16 (  16 )

 Basis set MINAO-AUTO-PP generated.      Number of basis functions:   35 

 Polarized AO type:                A = (O Ot + (1-O)(1-Ot)) P12
 Orthogonalization method:         Symmetric (Loewdin)
 Localization functional:          L = sum[A,i] <i|n_A|i>^4 -> max

 Localization group 1:  21 orbitals, occupancy  2.000
 Iterative localization: IB/PM,    7 iter; Final gradient 0.17E-08

 Bond order analysis:       [THRPRINT= 0.020]

   CEN ATOM   CEN ATOM     WIBERG.BO      RENORM.BO
     1   C  -   2   C       0.996064       0.994753
     1   C  -   5   H       0.964744       0.986043
     1   C  -   6   H       0.960186       0.979713
     1   C  -   7   H       0.960186       0.979713

     2   C  -   1   C       0.996064       0.994753
     2   C  -   9   C       0.994876       0.975521
     2   C  -   8   C       0.994876       0.975521
     2   C  -   3   O       0.934320       0.948154

     3   O  -   2   C       0.934320       0.948154
     3   O  -   4   H       0.867037       0.972937
     3   O  -   8   C       0.030119       0.015386
     3   O  -   9   C       0.030119       0.015386

     4   H  -   3   O       0.867037       0.972937

     5   H  -   1   C       0.964744       0.986043

     6   H  -   1   C       0.960186       0.979713

     7   H  -   1   C       0.960186       0.979713

     8   C  -   2   C       0.994876       0.975521
     8   C  -  14   H       0.963894       0.980649
     8   C  -  10   H       0.960739       0.979495
     8   C  -  12   H       0.959914       0.978581
     8   C  -   3   O       0.030119       0.015386

     9   C  -   2   C       0.994876       0.975521
     9   C  -  15   H       0.963894       0.980649
     9   C  -  11   H       0.960739       0.979495
     9   C  -  13   H       0.959914       0.978581
     9   C  -   3   O       0.030119       0.015386

    10   H  -   8   C       0.960739       0.979495

    11   H  -   9   C       0.960739       0.979495

    12   H  -   8   C       0.959914       0.978581

    13   H  -   9   C       0.959914       0.978581

    14   H  -   8   C       0.963894       0.980649

    15   H  -   9   C       0.963894       0.980649


 Valency analysis:

   CEN ATOM   TOT.VALENCE
     1   C       3.945467
     2   C       3.930406
     3   O       1.935480
     4   H       0.889187
     5   H       0.984537
     6   H       0.982242
     7   H       0.982242
     8   C       3.947793
     9   C       3.947793
    10   H       0.982308
    11   H       0.982308
    12   H       0.984045
    13   H       0.984045
    14   H       0.985926
    15   H       0.985926

 Total charge composition:

   CEN ATOM         s          p       ELECTRONS ->P.CHARGE
     1   C       3.04011    3.34467      6.38478   -0.38478
     2   C       2.94194    2.79836      5.74030    0.25970
     3   O       3.65399    4.90375      8.55774   -0.55774
     4   H       0.66711                 0.66711    0.33289
     5   H       0.87565                 0.87565    0.12435
     6   H       0.86674                 0.86674    0.13326
     7   H       0.86674                 0.86674    0.13326
     8   C       3.04755    3.35087      6.39843   -0.39843
     9   C       3.04755    3.35087      6.39843   -0.39843
    10   H       0.86699                 0.86699    0.13301
    11   H       0.86699                 0.86699    0.13301
    12   H       0.87369                 0.87369    0.12631
    13   H       0.87369                 0.87369    0.12631
    14   H       0.88137                 0.88137    0.11863
    15   H       0.88137                 0.88137    0.11863

 Total charge composition, AO contributions:

   CEN ATOM SHL      SPHERICAL COMPONENTS
     1   C  1s       1.99139
     1   C  2s       1.04872
     1   C  2p       1.03267    1.14960    1.16240

     2   C  1s       1.99298
     2   C  2s       0.94896
     2   C  2p       1.00488    0.78482    1.00866

     3   O  1s       1.99720
     3   O  2s       1.65679
     3   O  2p       1.46217    1.49012    1.95147

     4   H  1s       0.66711

     5   H  1s       0.87565

     6   H  1s       0.86674

     7   H  1s       0.86674

     8   C  1s       1.99149
     8   C  2s       1.05607
     8   C  2p       1.13290    1.13223    1.08574

     9   C  1s       1.99149
     9   C  2s       1.05607
     9   C  2p       1.13290    1.13223    1.08574

    10   H  1s       0.86699

    11   H  1s       0.86699

    12   H  1s       0.87369

    13   H  1s       0.87369

    14   H  1s       0.88137

    15   H  1s       0.88137

 Summary of localized orbital composition:   [THRPRINT= 0.020]

   ORB  GRP  ORB.ENERGY      CENTERS/CHARGES
     1   1   -18.606669      O  3   2.000
     2   1    -9.852713      C  2   2.000
     3   1    -9.770316      C  9   2.000
     4   1    -9.770316      C  8   2.000
     5   1    -9.764797      C  1   2.000
     6   1    -0.661366      O  3   1.336   H  4   0.654
     7   1    -0.623154      O  3   1.286   C  2   0.695
     8   1    -0.485533      C  8   1.008   C  2   0.976
     9   1    -0.485533      C  9   1.008   C  2   0.976
    10   1    -0.485328      C  1   0.991   C  2   0.984   (other: 0.025)
    11   1    -0.480384      O  3   1.980
    12   1    -0.422483      C  9   1.122   H 13   0.863
    13   1    -0.422483      C  8   1.122   H 12   0.863
    14   1    -0.420601      C  8   1.114   H 14   0.874
    15   1    -0.420601      C  9   1.114   H 15   0.874
    16   1    -0.418660      C  1   1.117   H  5   0.868
    17   1    -0.416563      C  9   1.131   H 11   0.859
    18   1    -0.416563      C  8   1.131   H 10   0.859
    19   1    -0.412382      C  1   1.130   H  6   0.858
    20   1    -0.412382      C  1   1.130   H  7   0.858
    21   1    -0.219335      O  3   1.951   (other: 0.049)

 Localized orbitals saved to record      2100.2  (orbital set 2)


 **********************************************************************************************************************************
 DATASETS  * FILE   NREC   LENGTH (MB)   RECORD NAMES
              1      20     1151.61       500      610      700      900      950      970     1000      129      960     1100   
                                          VAR    BASINP    GEOM    SYMINP    ZMAT    AOBASIS   BASIS     P2S    ABASIS      S 
                                         1400     1410     1200     1210     1080     1600     1650     1300     1700     1800   
                                           T        V       H0       H01     AOSYM     SMH    MOLCAS    ERIS     OPER     GRID   

              2       5        4.21       700     1000      520     1800     2100   
                                         GEOM     BASIS   MCVARS    GRID      RKS  

 PROGRAMS   *        TOTAL      IBBA        KS       INT
 CPU TIMES  *        69.87      0.06     49.19     20.47
 REAL TIME  *       104.48 SEC
 DISK USED  *         3.88 GB      
 **********************************************************************************************************************************
 Molecular orbitals read from record     2100.2  Type=RKS/LOCAL(IBO)  
 Occupation numbers read from record     2100.2  Type=RKS/LOCAL(IBO)  
 Orbital energies read from record       2100.2  Type=RKS/LOCAL(IBO)  
 Redundancy group numbers read from rec  2100.2  Type=RKS/LOCAL(IBO)  

 IBBA/aug-cc-pVDZ energy=      0.000000000000

        KS-SCF  
   -232.20784455
 **********************************************************************************************************************************
 Molpro calculation terminated
