
 Primary working directories    : /local
 Secondary working directories  : /local
 Wavefunction directory         : /local/
 Main file repository           : /local/

 SHA1      : b4a5b34a9e711420743f49e6833241d17c61fb3c
 NAME      : 2099.9.b4a5b34
 ARCHNAME  : linux/x86_64_openmp
 FC        : /cm/shared/languages/GCC-6.1/bin/gfortran
 BLASLIB   : -lblas
 id        : simonbennie

 Nodes     nprocs
 node45-011    1

 Using customized tuning parameters: mindgm=1; mindgv=20; mindgc=4; mindgr=1; noblas=0; minvec=7
 default implementation of scratch files=df  

 memory,500,m
 geomtyp=xyz
 nosym
 noorient
 geometry={
 C         -1.53233        0.02247        0.00000
 C         -0.00192        0.01421        0.00000
 O          0.37239        1.40356        0.00000
 H          1.34248        1.44036        0.00000
 H         -1.92991       -0.99819        0.00000
 H         -1.90797        0.54382       -0.88653
 H         -1.90797        0.54382        0.88653
 C          0.54303       -0.66466       -1.26580
 C          0.54303       -0.66466        1.26580
 H          0.17836       -0.14752       -2.15943
 H          0.17836       -0.14752        2.15943
 H          0.23752       -1.71600       -1.32280
 H          0.23752       -1.71600        1.32280
 H          1.64084       -0.63767       -1.28032
 H          1.64084       -0.63767        1.28032
 }
 basis={ default,avtz }
 {ks,MM06-2X,direct;wf,42,1,0}
 {ibba,bonds=1}

 Variables initialized (895), CPU time= 0.00 sec
 Commands  initialized (725), CPU time= 0.02 sec, 591 directives.
 Default parameters read. Elapsed time= 0.14 sec

 Checking input...
 Passed
1


                                         ***  PROGRAM SYSTEM MOLPRO  ***
                                       Copyright, TTI GmbH Stuttgart, 2015
                                    Version 2099.9 linked May 26 2017 16:03:21


 **********************************************************************************************************************************
 LABEL *                                                                                 
  64 bit serial version                                                                  DATE: 12-Jun-17          TIME: 15:19:58  
 **********************************************************************************************************************************

 SHA1:             b4a5b34a9e711420743f49e6833241d17c61fb3c
 **********************************************************************************************************************************
 SETTING GEOMTYP        =    XYZ

 Variable memory set to  500000000 words,  buffer space 

 ZSYMEL=NOSYM

 SETTING BASIS          =    AVTZ


 Recomputing integrals since basis changed


 Using spherical harmonics

 Library entry C      S aug-cc-pVTZ          selected for orbital group  1
 Library entry C      P aug-cc-pVTZ          selected for orbital group  1
 Library entry C      D aug-cc-pVTZ          selected for orbital group  1
 Library entry C      F aug-cc-pVTZ          selected for orbital group  1
 Library entry O      S aug-cc-pVTZ          selected for orbital group  2
 Library entry O      P aug-cc-pVTZ          selected for orbital group  2
 Library entry O      D aug-cc-pVTZ          selected for orbital group  2
 Library entry O      F aug-cc-pVTZ          selected for orbital group  2
 Library entry H      S aug-cc-pVTZ          selected for orbital group  3
 Library entry H      P aug-cc-pVTZ          selected for orbital group  3
 Library entry H      D aug-cc-pVTZ          selected for orbital group  3


 PROGRAM * SEWARD (Integral evaluation for generally contracted gaussian basis sets)     Author: Roland Lindh, 1990

 Geometry written to block  1 of record 700


 Point group  C1  



 ATOMIC COORDINATES

 NR  ATOM    CHARGE       X              Y              Z

   1  C       6.00   -2.895684032    0.042462146    0.000000000
   2  C       6.00   -0.003628274    0.026853008    0.000000000
   3  O       8.00    0.703715112    2.652343999    0.000000000
   4  H       1.00    2.536919528    2.721885921    0.000000000
   5  H       1.00   -3.647001345   -1.886305720    0.000000000
   6  H       1.00   -3.605540754    1.027670861   -1.675298901
   7  H       1.00   -3.605540754    1.027670861    1.675298901
   8  C       6.00    1.026177977   -1.256025366   -2.392015328
   9  C       6.00    1.026177977   -1.256025366    2.392015328
  10  H       1.00    0.337051552   -0.278772398   -4.080731285
  11  H       1.00    0.337051552   -0.278772398    4.080731285
  12  H       1.00    0.448847749   -3.242770030   -2.499729718
  13  H       1.00    0.448847749   -3.242770030    2.499729718
  14  H       1.00    3.100738214   -1.205021658   -2.419454152
  15  H       1.00    3.100738214   -1.205021658    2.419454152

 Bond lengths in Bohr (Angstrom)

 1-2  2.892097881  1-5  2.069933136  1-6  2.069096224  1-7  2.069096224  2-3  2.719106031
     ( 1.530432290)     ( 1.095361444)     ( 1.094918569)     ( 1.094918569)     ( 1.438888946)

  2- 8  2.903104402   2- 9  2.903104402   3- 4  1.834522965   8-10  2.069222119   8-12  2.071730422
       ( 1.536256691)       ( 1.536256691)       ( 0.970787746)       ( 1.094985190)       ( 1.096312526)

  8-14  2.075368508   9-11  2.069222119   9-13  2.071730422   9-15  2.075368508
       ( 1.098237719)       ( 1.094985190)       ( 1.096312526)       ( 1.098237719)

 Bond angles

  1-2-3  104.76902697   1-2-8  110.92255387   1-2-9  110.92255387   2-1-5  110.97328220

  2- 1- 6  110.22090701   2- 1- 7  110.22090701   2- 3- 4  107.25071562   2- 8-10  110.21836376

  2- 8-12  111.57747468   2- 8-14  110.77023896   2- 9-11  110.21836376   2- 9-13  111.57747468

  2- 9-15  110.77023896   3- 2- 8  109.53648747   3- 2- 9  109.53648747   5- 1- 6  108.61190457

  5- 1- 7  108.61190457   6- 1- 7  108.12870271   8- 2- 9  110.96453384  10- 8-12  108.52192632

 10- 8-14  108.08997829  11- 9-13  108.52192632  11- 9-15  108.08997829  12- 8-14  107.54424578

 13- 9-15  107.54424578

 NUCLEAR CHARGE:                   42
 NUMBER OF PRIMITIVE AOS:         605
 NUMBER OF SYMMETRY AOS:          540
 NUMBER OF CONTRACTIONS:          460   ( 460A   )
 NUMBER OF CORE ORBITALS:           5   (   5A   )
 NUMBER OF VALENCE ORBITALS:       30   (  30A   )


 NUCLEAR REPULSION ENERGY  198.77359127


 Eigenvalues of metric

         1 0.351E-05 0.596E-05 0.770E-05 0.977E-05 0.161E-04 0.173E-04 0.207E-04 0.297E-04


 Contracted 2-electron integrals neglected if value below      1.0D-12
 AO integral compression algorithm  1   Integral accuracy      1.0D-12

     24892.932 MB (compressed) written to integral file ( 51.7%)


 NUMBER OF SORTED TWO-ELECTRON INTEGRALS: 5621233465.     BUFFER LENGTH:  32768
 NUMBER OF SEGMENTS: 176  SEGMENT LENGTH:   31999951      RECORD LENGTH: 131072

 Memory used in sort:      32.16 MW

 SORT1 READ  6020115514. AND WROTE  5366777799. INTEGRALS IN  61513 RECORDS. CPU TIME:    84.12 SEC, REAL TIME:  2325.96 SEC
 SORT2 READ  5366777799. AND WROTE  5621233465. INTEGRALS IN  94959 RECORDS. CPU TIME:   132.92 SEC, REAL TIME:  2881.59 SEC

 FILE SIZES:   FILE 1: 24930.9 MBYTE,  FILE 4: 64501.1 MBYTE,   TOTAL:  89432.0 MBYTE

 OPERATOR DM      FOR CENTER  0  COORDINATES:    0.000000    0.000000    0.000000


 **********************************************************************************************************************************
 DATASETS  * FILE   NREC   LENGTH (MB)   RECORD NAMES
              1      19    23757.53       500      610      700      900      950      970     1000      129      960     1100   
                                          VAR    BASINP    GEOM    SYMINP    ZMAT    AOBASIS   BASIS     P2S    ABASIS      S 
                                         1400     1410     1200     1210     1080     1600     1650     1300     1700   
                                           T        V       H0       H01     AOSYM     SMH    MOLCAS    ERIS     OPER   

 PROGRAMS   *        TOTAL       INT
 CPU TIMES  *       437.86    437.72
 REAL TIME  *      5727.25 SEC
 DISK USED  *        89.43 GB      
 **********************************************************************************************************************************

 Density functional group MM06-2X=M062XX+M062XC
 Functional: M062XX(Automatically generated (new) M062XX)                      Gradient terms: 2
 Functional: M062XC(Automatically generated (new) M062XC)                      Gradient terms: 2
 Use grid at  1800.2


 Exact exchange will be calculated, factor:  0.5400

 Functional: M062XX                    Factor:  0.4600
 Functional: M062XC                    Factor:  1.0000

 Generated new metagrid on record  1800.2 with target accuracy 1.0D-06 and 55396 points in CPU time    1.7
 Computed new grid on record 1800.1 in CPU time    1.9
  720844 words reserved for DFT integration

 PROGRAM * RKS-SCF (Restricted closed shell Kohn-Sham)     Authors: W. Meyer, H.-J. Werner, P.J. Knowles, 1993

 NUMBER OF ELECTRONS:      21+   21-    SPACE SYMMETRY=1    SPIN SYMMETRY: Singlet 
 CONVERGENCE THRESHOLDS:    1.00E-05 (Density)    1.00E-06 (Energy)
 MAX. NUMBER OF ITERATIONS:       60
 INTERPOLATION TYPE:            DIIS
 INTERPOLATION STEPS:              2 (START)      1 (STEP)
 LEVEL SHIFTS:                  0.00 (CLOSED)  0.00 (OPEN) 



 Use fine grid record 1800.2 for energy threshold  1.0D-06
 Orbital guess generated from atomic densities. Full valence occupancy:   35

 Molecular orbital dump at record        2100.2

 Initial occupancy:  21

 ITERATION    DDIFF          GRAD             ENERGY        2-EL.EN.            DIPOLE MOMENTS         DIIS   ORB.
    1      0.000D+00      0.000D+00      -225.62802876    584.722520    0.66888   -0.62316   -0.00000    0    start
    2      0.000D+00      0.237D-02      -225.64965268    575.214011    0.10767   -0.52671   -0.00000    1    diag
    3      0.483D-02      0.201D-02      -225.68531573    580.363804    0.33438   -0.48718   -0.00000    2    diag
    4      0.175D-02      0.183D-03      -225.68558359    579.723893    0.33266   -0.52662    0.00000    3    diag
    5      0.435D-03      0.926D-04      -225.68565519    579.957103    0.33220   -0.52150    0.00000    4    diag
    6      0.113D-03      0.289D-04      -225.68566207    579.923245    0.33083   -0.51913    0.00000    5    diag
    7      0.376D-04      0.471D-05      -225.68566221    579.918251    0.33110   -0.51967    0.00000    6    diag
    8      0.733D-05      0.226D-05      -225.68566219    579.924666    0.33131   -0.52039   -0.00000    0    orth

 Final occupancy:  21

 !RKS STATE 1.1 Energy               -225.685662185081
 Nuclear energy                       198.77359127
 One-electron energy                 -706.20496849
 Two-electron energy                  289.96233317
 SCF exchange energy                  -31.92973182     Factor= 0.5400
 Density functional                    -8.21661814     M062XX=-14.62885226 M062XC= -1.48734610
 Virial quotient                       -0.99907657
 !RKS STATE 1.1 Dipole moment           0.33130808    -0.52039475    -0.00000000
 Dipole moment /Debye                   0.84204599    -1.32262488    -0.00000000

 Orbital energies:

         1.1          2.1          3.1          4.1          5.1          6.1          7.1          8.1          9.1         10.1
    -19.169450   -10.225319   -10.163707   -10.163701   -10.158371    -1.068141    -0.821930    -0.715721    -0.715059    -0.579624

        11.1         12.1         13.1         14.1         15.1         16.1         17.1         18.1         19.1         20.1
     -0.497243    -0.459960    -0.457284    -0.414254    -0.397425    -0.373999    -0.357470    -0.351588    -0.342853    -0.313591

        21.1         22.1         23.1
     -0.273169     0.013324     0.025639

 HOMO     21.1    -0.273169 =      -7.4333eV
 LUMO     22.1     0.013324 =       0.3626eV
 LUMO-HOMO         0.286493 =       7.7959eV


 **********************************************************************************************************************************
 DATASETS  * FILE   NREC   LENGTH (MB)   RECORD NAMES
              1      20    23759.30       500      610      700      900      950      970     1000      129      960     1100   
                                          VAR    BASINP    GEOM    SYMINP    ZMAT    AOBASIS   BASIS     P2S    ABASIS      S 
                                         1400     1410     1200     1210     1080     1600     1650     1300     1700     1800   
                                           T        V       H0       H01     AOSYM     SMH    MOLCAS    ERIS     OPER     GRID   

              2       5        7.31       700     1000      520     1800     2100   
                                         GEOM     BASIS   MCVARS    GRID      RKS  

 PROGRAMS   *        TOTAL        KS       INT
 CPU TIMES  *      1797.33   1359.47    437.72
 REAL TIME  *      7250.38 SEC
 DISK USED  *        89.43 GB      
 **********************************************************************************************************************************


 PROGRAM * Intrinsic Basis Bonding Analysis (IBBA)          Author: G. Knizia

 Molecular orbitals read from record     2100.2  Type=RKS/CANONICAL (state 1.1)
 Fock matrix read from record            2100.2  Type=RKS/TOTAL (state 1.1)
 Orbital energies read from record       2100.2  Type=RKS/CANONICAL (state 1.1)
 Density matrix read from record         2100.2  Type=RKS/CHARGE (state 1.1)

 Number of core orbitals:           5 (   5 )
 Number of closed-shell orbitals:  16 (  16 )

 Basis set MINAO-AUTO-PP generated.      Number of basis functions:   35 

 Polarized AO type:                A = (O Ot + (1-O)(1-Ot)) P12
 Orthogonalization method:         Symmetric (Loewdin)
 Localization functional:          L = sum[A,i] <i|n_A|i>^4 -> max

 Localization group 1:  21 orbitals, occupancy  2.000
 Iterative localization: IB/PM,    7 iter; Final gradient 0.23E-08

 Bond order analysis:       [THRPRINT= 0.020]

   CEN ATOM   CEN ATOM     WIBERG.BO      RENORM.BO
     1   C  -   2   C       0.994825       0.993882
     1   C  -   5   H       0.965691       0.985503
     1   C  -   6   H       0.961123       0.979539
     1   C  -   7   H       0.961123       0.979539

     2   C  -   1   C       0.994825       0.993882
     2   C  -   8   C       0.994270       0.976667
     2   C  -   9   C       0.994270       0.976667
     2   C  -   3   O       0.938374       0.950591

     3   O  -   2   C       0.938374       0.950591
     3   O  -   4   H       0.877650       0.972954
     3   O  -   9   C       0.028497       0.014675
     3   O  -   8   C       0.028497       0.014675

     4   H  -   3   O       0.877650       0.972954

     5   H  -   1   C       0.965691       0.985503

     6   H  -   1   C       0.961123       0.979539

     7   H  -   1   C       0.961123       0.979539

     8   C  -   2   C       0.994270       0.976667
     8   C  -  14   H       0.964514       0.980545
     8   C  -  12   H       0.961851       0.980335
     8   C  -  10   H       0.961595       0.979391
     8   C  -   3   O       0.028497       0.014675

     9   C  -   2   C       0.994270       0.976667
     9   C  -  15   H       0.964514       0.980545
     9   C  -  13   H       0.961851       0.980335
     9   C  -  11   H       0.961595       0.979391
     9   C  -   3   O       0.028497       0.014675

    10   H  -   8   C       0.961595       0.979391

    11   H  -   9   C       0.961595       0.979391

    12   H  -   8   C       0.961851       0.980335

    13   H  -   9   C       0.961851       0.980335

    14   H  -   8   C       0.964514       0.980545

    15   H  -   9   C       0.964514       0.980545


 Valency analysis:

   CEN ATOM   TOT.VALENCE
     1   C       3.948019
     2   C       3.933323
     3   O       1.944249
     4   H       0.899744
     5   H       0.986696
     6   H       0.984599
     7   H       0.984599
     8   C       3.950064
     9   C       3.950064
    10   H       0.984535
    11   H       0.984535
    12   H       0.986001
    13   H       0.986001
    14   H       0.988097
    15   H       0.988097

 Total charge composition:

   CEN ATOM         s          p       ELECTRONS ->P.CHARGE
     1   C       3.01241    3.35050      6.36291   -0.36291
     2   C       2.92004    2.81004      5.73008    0.26992
     3   O       3.62588    4.91064      8.53652   -0.53652
     4   H       0.68337                 0.68337    0.31663
     5   H       0.88466                 0.88466    0.11534
     6   H       0.87590                 0.87590    0.12410
     7   H       0.87590                 0.87590    0.12410
     8   C       3.01955    3.35756      6.37711   -0.37711
     9   C       3.01955    3.35756      6.37711   -0.37711
    10   H       0.87564                 0.87564    0.12436
    11   H       0.87564                 0.87564    0.12436
    12   H       0.88168                 0.88168    0.11832
    13   H       0.88168                 0.88168    0.11832
    14   H       0.89090                 0.89090    0.10910
    15   H       0.89090                 0.89090    0.10910

 Total charge composition, AO contributions:

   CEN ATOM SHL      SPHERICAL COMPONENTS
     1   C  1s       1.99225
     1   C  2s       1.02016
     1   C  2p       1.03996    1.14952    1.16101

     2   C  1s       1.99372
     2   C  2s       0.92632
     2   C  2p       1.00721    0.79417    1.00866

     3   O  1s       1.99739
     3   O  2s       1.62849
     3   O  2p       1.45912    1.49653    1.95498

     4   H  1s       0.68337

     5   H  1s       0.88466

     6   H  1s       0.87590

     7   H  1s       0.87590

     8   C  1s       1.99233
     8   C  2s       1.02722
     8   C  2p       1.13230    1.13424    1.09102

     9   C  1s       1.99233
     9   C  2s       1.02722
     9   C  2p       1.13230    1.13424    1.09102

    10   H  1s       0.87564

    11   H  1s       0.87564

    12   H  1s       0.88168

    13   H  1s       0.88168

    14   H  1s       0.89090

    15   H  1s       0.89090

 Summary of localized orbital composition:   [THRPRINT= 0.020]

   ORB  GRP  ORB.ENERGY      CENTERS/CHARGES
     1   1   -19.017237      O  3   2.000
     2   1   -10.134755      C  2   2.000
     3   1   -10.052207      C  9   2.000
     4   1   -10.052207      C  8   2.000
     5   1   -10.046136      C  1   2.000
     6   1    -0.775655      O  3   1.320   H  4   0.670
     7   1    -0.749890      O  3   1.277   C  2   0.705
     8   1    -0.587941      O  3   1.981
     9   1    -0.585660      C  9   1.014   C  2   0.970
    10   1    -0.585660      C  8   1.014   C  2   0.970
    11   1    -0.585226      C  1   0.995   C  2   0.980   (other: 0.025)
    12   1    -0.507584      C  8   1.114   H 12   0.872
    13   1    -0.507584      C  9   1.114   H 13   0.872
    14   1    -0.506058      C  8   1.104   H 14   0.883
    15   1    -0.506058      C  9   1.104   H 15   0.883
    16   1    -0.503453      C  1   1.109   H  5   0.877
    17   1    -0.501869      C  9   1.122   H 11   0.867
    18   1    -0.501869      C  8   1.122   H 10   0.867
    19   1    -0.497275      C  1   1.121   H  6   0.867
    20   1    -0.497275      C  1   1.121   H  7   0.867
    21   1    -0.318267      O  3   1.955   (other: 0.045)

 Localized orbitals saved to record      2100.2  (orbital set 2)


 **********************************************************************************************************************************
 DATASETS  * FILE   NREC   LENGTH (MB)   RECORD NAMES
              1      20    23759.30       500      610      700      900      950      970     1000      129      960     1100   
                                          VAR    BASINP    GEOM    SYMINP    ZMAT    AOBASIS   BASIS     P2S    ABASIS      S 
                                         1400     1410     1200     1210     1080     1600     1650     1300     1700     1800   
                                           T        V       H0       H01     AOSYM     SMH    MOLCAS    ERIS     OPER     GRID   

              2       5        9.01       700     1000      520     1800     2100   
                                         GEOM     BASIS   MCVARS    GRID      RKS  

 PROGRAMS   *        TOTAL      IBBA        KS       INT
 CPU TIMES  *      1797.58      0.25   1359.47    437.72
 REAL TIME  *      7250.83 SEC
 DISK USED  *        89.43 GB      
 **********************************************************************************************************************************
 Molecular orbitals read from record     2100.2  Type=RKS/LOCAL(IBO)  
 Occupation numbers read from record     2100.2  Type=RKS/LOCAL(IBO)  
 Orbital energies read from record       2100.2  Type=RKS/LOCAL(IBO)  
 Redundancy group numbers read from rec  2100.2  Type=RKS/LOCAL(IBO)  

 IBBA/aug-cc-pVTZ energy=      0.000000000000

        KS-SCF  
   -225.68566219
 **********************************************************************************************************************************
 Molpro calculation terminated
