
 Primary working directories    : /local
 Secondary working directories  : /local
 Wavefunction directory         : /local/
 Main file repository           : /local/

 SHA1      : b4a5b34a9e711420743f49e6833241d17c61fb3c
 NAME      : 2099.9.b4a5b34
 ARCHNAME  : linux/x86_64_openmp
 FC        : /cm/shared/languages/GCC-6.1/bin/gfortran
 BLASLIB   : -lblas
 id        : simonbennie

 Nodes     nprocs
 node36-029    1

 Using customized tuning parameters: mindgm=1; mindgv=20; mindgc=4; mindgr=1; noblas=0; minvec=7
 default implementation of scratch files=df  

 memory,500,m
 geomtyp=xyz
 nosym
 noorient
 geometry={
 C         -1.53233        0.02247        0.00000
 C         -0.00192        0.01421        0.00000
 O          0.37239        1.40356        0.00000
 H          1.34248        1.44036        0.00000
 H         -1.92991       -0.99819        0.00000
 H         -1.90797        0.54382       -0.88653
 H         -1.90797        0.54382        0.88653
 C          0.54303       -0.66466       -1.26580
 C          0.54303       -0.66466        1.26580
 H          0.17836       -0.14752       -2.15943
 H          0.17836       -0.14752        2.15943
 H          0.23752       -1.71600       -1.32280
 H          0.23752       -1.71600        1.32280
 H          1.64084       -0.63767       -1.28032
 H          1.64084       -0.63767        1.28032
 }
 basis={ default,qzvp }
 {uks,B97,direct;wf,42,1,0}
 {ibba,bonds=1}

 Variables initialized (895), CPU time= 0.00 sec
 Commands  initialized (725), CPU time= 0.01 sec, 591 directives.
 Default parameters read. Elapsed time= 0.32 sec

 Checking input...
 Passed
1


                                         ***  PROGRAM SYSTEM MOLPRO  ***
                                       Copyright, TTI GmbH Stuttgart, 2015
                                    Version 2099.9 linked May 26 2017 16:03:21


 **********************************************************************************************************************************
 LABEL *                                                                                 
  64 bit serial version                                                                  DATE: 12-Jun-17          TIME: 19:00:03  
 **********************************************************************************************************************************

 SHA1:             b4a5b34a9e711420743f49e6833241d17c61fb3c
 **********************************************************************************************************************************
 SETTING GEOMTYP        =    XYZ

 Variable memory set to  500000000 words,  buffer space 

 ZSYMEL=NOSYM

 SETTING BASIS          =    QZVP


 Recomputing integrals since basis changed


 Using spherical harmonics

 Library entry C      S def2-QZVP            selected for orbital group  1
 Library entry C      P def2-QZVP            selected for orbital group  1
 Library entry C      D def2-QZVP            selected for orbital group  1
 Library entry C      F def2-QZVP            selected for orbital group  1
 Library entry C      G def2-QZVP            selected for orbital group  1
 Library entry O      S def2-QZVP            selected for orbital group  2
 Library entry O      P def2-QZVP            selected for orbital group  2
 Library entry O      D def2-QZVP            selected for orbital group  2
 Library entry O      F def2-QZVP            selected for orbital group  2
 Library entry O      G def2-QZVP            selected for orbital group  2
 Library entry H      S def2-QZVP            selected for orbital group  3
 Library entry H      P def2-QZVP            selected for orbital group  3
 Library entry H      D def2-QZVP            selected for orbital group  3
 Library entry H      F def2-QZVP            selected for orbital group  3


 PROGRAM * SEWARD (Integral evaluation for generally contracted gaussian basis sets)     Author: Roland Lindh, 1990

 Geometry written to block  1 of record 700


 Point group  C1  



 ATOMIC COORDINATES

 NR  ATOM    CHARGE       X              Y              Z

   1  C       6.00   -2.895684032    0.042462146    0.000000000
   2  C       6.00   -0.003628274    0.026853008    0.000000000
   3  O       8.00    0.703715112    2.652343999    0.000000000
   4  H       1.00    2.536919528    2.721885921    0.000000000
   5  H       1.00   -3.647001345   -1.886305720    0.000000000
   6  H       1.00   -3.605540754    1.027670861   -1.675298901
   7  H       1.00   -3.605540754    1.027670861    1.675298901
   8  C       6.00    1.026177977   -1.256025366   -2.392015328
   9  C       6.00    1.026177977   -1.256025366    2.392015328
  10  H       1.00    0.337051552   -0.278772398   -4.080731285
  11  H       1.00    0.337051552   -0.278772398    4.080731285
  12  H       1.00    0.448847749   -3.242770030   -2.499729718
  13  H       1.00    0.448847749   -3.242770030    2.499729718
  14  H       1.00    3.100738214   -1.205021658   -2.419454152
  15  H       1.00    3.100738214   -1.205021658    2.419454152

 Bond lengths in Bohr (Angstrom)

 1-2  2.892097881  1-5  2.069933136  1-6  2.069096224  1-7  2.069096224  2-3  2.719106031
     ( 1.530432290)     ( 1.095361444)     ( 1.094918569)     ( 1.094918569)     ( 1.438888946)

  2- 8  2.903104402   2- 9  2.903104402   3- 4  1.834522965   8-10  2.069222119   8-12  2.071730422
       ( 1.536256691)       ( 1.536256691)       ( 0.970787746)       ( 1.094985190)       ( 1.096312526)

  8-14  2.075368508   9-11  2.069222119   9-13  2.071730422   9-15  2.075368508
       ( 1.098237719)       ( 1.094985190)       ( 1.096312526)       ( 1.098237719)

 Bond angles

  1-2-3  104.76902697   1-2-8  110.92255387   1-2-9  110.92255387   2-1-5  110.97328220

  2- 1- 6  110.22090701   2- 1- 7  110.22090701   2- 3- 4  107.25071562   2- 8-10  110.21836376

  2- 8-12  111.57747468   2- 8-14  110.77023896   2- 9-11  110.21836376   2- 9-13  111.57747468

  2- 9-15  110.77023896   3- 2- 8  109.53648747   3- 2- 9  109.53648747   5- 1- 6  108.61190457

  5- 1- 7  108.61190457   6- 1- 7  108.12870271   8- 2- 9  110.96453384  10- 8-12  108.52192632

 10- 8-14  108.08997829  11- 9-13  108.52192632  11- 9-15  108.08997829  12- 8-14  107.54424578

 13- 9-15  107.54424578

 NUCLEAR CHARGE:                   42
 NUMBER OF PRIMITIVE AOS:         840
 NUMBER OF SYMMETRY AOS:          715
 NUMBER OF CONTRACTIONS:          585   ( 585A   )
 NUMBER OF CORE ORBITALS:           5   (   5A   )
 NUMBER OF VALENCE ORBITALS:       30   (  30A   )


 NUCLEAR REPULSION ENERGY  198.77359127


 Eigenvalues of metric

         1 0.447E-04 0.459E-04 0.470E-04 0.743E-04 0.823E-04 0.917E-04 0.943E-04 0.107E-03


 Contracted 2-electron integrals neglected if value below      1.0D-12
 AO integral compression algorithm  1   Integral accuracy      1.0D-12

     40752.906 MB (compressed) written to integral file ( 33.4%)


 NUMBER OF SORTED TWO-ELECTRON INTEGRALS:14689922715.     BUFFER LENGTH:  32768
 NUMBER OF SEGMENTS: 184  SEGMENT LENGTH:   79999773      RECORD LENGTH: 262144

 Memory used in sort:      80.29 MW

 SORT1 READ 15248138275. AND WROTE 10587813328. INTEGRALS IN  60679 RECORDS. CPU TIME:   194.19 SEC, REAL TIME:  4673.72 SEC
 SORT2 READ 10587813328. AND WROTE 14689922715. INTEGRALS IN 155460 RECORDS. CPU TIME:   350.23 SEC, REAL TIME:  5597.85 SEC

 FILE SIZES:   FILE 1: 40795.6 MBYTE,  FILE 4:127253.1 MBYTE,   TOTAL: 168048.8 MBYTE

 OPERATOR DM      FOR CENTER  0  COORDINATES:    0.000000    0.000000    0.000000


 **********************************************************************************************************************************
 DATASETS  * FILE   NREC   LENGTH (MB)   RECORD NAMES
              1      19    37754.71       500      610      700      900      950      970     1000      129      960     1100   
                                          VAR    BASINP    GEOM    SYMINP    ZMAT    AOBASIS   BASIS     P2S    ABASIS      S 
                                         1400     1410     1200     1210     1080     1600     1650     1300     1700   
                                           T        V       H0       H01     AOSYM     SMH    MOLCAS    ERIS     OPER   

 PROGRAMS   *        TOTAL       INT
 CPU TIMES  *      1177.28   1177.12
 REAL TIME  *     11110.41 SEC
 DISK USED  *       168.05 GB      
 **********************************************************************************************************************************

 Density functional group B97=B97DF
 Functional: B97DF(Automatically generated (new) B97DF)                        Gradient terms: 1
 Use grid at  1800.2


 Exact exchange will be calculated, factor:  0.1943

 Functional: B97DF                     Factor:  1.0000

 Generated new metagrid on record  1800.2 with target accuracy 1.0D-06 and 58228 points in CPU time    1.5
 Computed new grid on record 1800.1 in CPU time    1.7
  469144 words reserved for DFT integration

 PROGRAM * UKS-SCF (Unrestricted Kohn-Sham)     Authors: W. Meyer, H.-J. Werner, P.J. Knowles, 1993

 NUMBER OF ELECTRONS:      21+   21-    SPACE SYMMETRY=1    SPIN SYMMETRY: Singlet 
 CONVERGENCE THRESHOLDS:    1.00E-05 (Density)    1.00E-06 (Energy)
 MAX. NUMBER OF ITERATIONS:       60
 INTERPOLATION TYPE:            DIIS
 INTERPOLATION STEPS:              2 (START)      1 (STEP)
 LEVEL SHIFTS:                 -0.20 (ALPHA)  -0.20 (BETA) 



 Use fine grid record 1800.2 for energy threshold  1.0D-06
 Orbital guess generated from atomic densities. Full valence occupancy:   21

 Molecular orbital dump at record        2200.2

 Initial alpha occupation  21
 Initial beta  occupation  21

 ITERATION    DDIFF          GRAD             ENERGY        2-EL.EN.            DIPOLE MOMENTS         DIIS
    1      0.000D+00      0.000D+00      -233.49716470    623.973648    0.68815   -0.80846    0.00000    0
    2      0.128D-02      0.110D-02      -233.66927096    604.750590    0.23982   -0.47071    0.00000    1
    3      0.341D-03      0.550D-03      -233.70129399    609.647769    0.35631   -0.56798    0.00000    2
    4      0.150D-03      0.813D-04      -233.70233048    609.507530    0.34350   -0.52222    0.00000    3
    5      0.152D-03      0.369D-04      -233.70269322    609.430838    0.33983   -0.52466    0.00000    4
    6      0.161D-03      0.113D-04      -233.70276365    609.391884    0.33736   -0.51855    0.00000    5
    7      0.461D-04      0.290D-05      -233.70276698    609.364016    0.33595   -0.51799    0.00000    6
    8      0.144D-04      0.169D-05      -233.70276762    609.373063    0.33597   -0.51821    0.00000    7
    9      0.583D-05      0.245D-06      -233.70276766    609.372392    0.33592   -0.51801    0.00000    6
   10      0.911D-06      0.670D-07      -233.70276766    609.372120    0.33585   -0.51809    0.00000    7

 Final alpha occupancy:  21
 Final beta  occupancy:  21

 !UKS STATE 1.1 Energy               -233.702767663718
 Nuclear energy                       198.77359127
 One-electron energy                 -709.49461200
 Two-electron energy                  304.68606012
 Density functional                   -27.66780705     B97DF=-27.66780705
 Virial quotient                       -1.00516103
 !UKS STATE 1.1 Dipole moment           0.33584802    -0.51809180     0.00000000
 Dipole moment /Debye                   0.85358461    -1.31677176     0.00000000

 Orbital energies for positive spin:

         1.1          2.1          3.1          4.1          5.1          6.1          7.1          8.1          9.1         10.1
    -19.105803   -10.221528   -10.151451   -10.151448   -10.146289    -1.018439    -0.787636    -0.691320    -0.690289    -0.567989

        11.1         12.1         13.1         14.1         15.1         16.1         17.1         18.1         19.1         20.1
     -0.488559    -0.450969    -0.448030    -0.411519    -0.396790    -0.378910    -0.365705    -0.354757    -0.347544    -0.319382

        21.1         22.1         23.1
     -0.271896     0.011294     0.047713

 Orbital energies for negative spin:

         1.1          2.1          3.1          4.1          5.1          6.1          7.1          8.1          9.1         10.1
    -19.105801   -10.221529   -10.151450   -10.151447   -10.146288    -1.018437    -0.787636    -0.691319    -0.690288    -0.567989

        11.1         12.1         13.1         14.1         15.1         16.1         17.1         18.1         19.1         20.1
     -0.488558    -0.450969    -0.448030    -0.411519    -0.396789    -0.378909    -0.365705    -0.354756    -0.347544    -0.319381

        21.1         22.1         23.1
     -0.271894     0.011295     0.047714

 HOMO    -21.1    -0.271894 =      -7.3986eV
 LUMO     22.1     0.011294 =       0.3073eV
 LUMO-HOMO         0.283188 =       7.7059eV

 EXPECTATION VALUE OF S**2:             0.00000000

 Occupation number threshold for canonical orbitals:  1.999000 (occupied),  0.001000 (virtual)

 Number of pseudo-canonical orbitals per symmetry:   21
 Number of active natural orbitals per symmetry:      0

 Natural orbitals saved to record    2200.2 (Orbital set 3)

 Orbital spaces for UNO-CAS (Min. occupation: 0.020  Max. occupation: 1.980):

 Closed:       21
 Active:        0


 **********************************************************************************************************************************
 DATASETS  * FILE   NREC   LENGTH (MB)   RECORD NAMES
              1      20    37756.57       500      610      700      900      950      970     1000      129      960     1100   
                                          VAR    BASINP    GEOM    SYMINP    ZMAT    AOBASIS   BASIS     P2S    ABASIS      S 
                                         1400     1410     1200     1210     1080     1600     1650     1300     1700     1800   
                                           T        V       H0       H01     AOSYM     SMH    MOLCAS    ERIS     OPER     GRID   

              2       5       16.83       700     1000      520     1800     2200   
                                         GEOM     BASIS   MCVARS    GRID      UKS  

 PROGRAMS   *        TOTAL       UKS       INT
 CPU TIMES  *      5153.61   3976.32   1177.12
 REAL TIME  *     21577.88 SEC
 DISK USED  *       168.05 GB      
 **********************************************************************************************************************************


 PROGRAM * Intrinsic Basis Bonding Analysis (IBBA)          Author: G. Knizia

 Molecular orbitals read from record     2200.2  Type=UKS/ALPHA (state 1.1)
 Fock matrix read from record            2200.2  Type=UKS/TOTAL (state 1.1)
 Orbital energies read from record       2200.2  Type=UKS/ALPHA (state 1.1)
 Density matrix read from record         2200.2  Type=UKS/CHARGE (state 1.1)

 Number of core orbitals:           5 (   5 )
 Number of closed-shell orbitals:  16 (  16 )

 Basis set MINAO-AUTO-PP generated.      Number of basis functions:   35 

 Polarized AO type:                A = (O Ot + (1-O)(1-Ot)) P12
 Orthogonalization method:         Symmetric (Loewdin)
 Localization functional:          L = sum[A,i] <i|n_A|i>^4 -> max

 Localization group 1:  21 orbitals, occupancy  2.000
 Iterative localization: IB/PM,    7 iter; Final gradient 0.27E-08

 Bond order analysis:       [THRPRINT= 0.020]

   CEN ATOM   CEN ATOM     WIBERG.BO      RENORM.BO
     1   C  -   2   C       0.996567       0.993751
     1   C  -   5   H       0.963218       0.987191
     1   C  -   6   H       0.958362       0.981454
     1   C  -   7   H       0.958362       0.981454

     2   C  -   1   C       0.996567       0.993751
     2   C  -   9   C       0.995255       0.976037
     2   C  -   8   C       0.995255       0.976037
     2   C  -   3   O       0.932712       0.949728

     3   O  -   2   C       0.932712       0.949728
     3   O  -   4   H       0.860498       0.976411
     3   O  -   9   C       0.027558       0.014083
     3   O  -   8   C       0.027558       0.014083

     4   H  -   3   O       0.860498       0.976411

     5   H  -   1   C       0.963218       0.987191

     6   H  -   1   C       0.958362       0.981454

     7   H  -   1   C       0.958362       0.981454

     8   C  -   2   C       0.995255       0.976037
     8   C  -  14   H       0.962603       0.982163
     8   C  -  12   H       0.958983       0.981462
     8   C  -  10   H       0.958880       0.981314
     8   C  -   3   O       0.027558       0.014083

     9   C  -   2   C       0.995255       0.976037
     9   C  -  15   H       0.962603       0.982163
     9   C  -  13   H       0.958983       0.981462
     9   C  -  11   H       0.958880       0.981314
     9   C  -   3   O       0.027558       0.014083

    10   H  -   8   C       0.958880       0.981314

    11   H  -   9   C       0.958880       0.981314

    12   H  -   8   C       0.958983       0.981462

    13   H  -   9   C       0.958983       0.981462

    14   H  -   8   C       0.962603       0.982163

    15   H  -   9   C       0.962603       0.982163


 Valency analysis:

   CEN ATOM   TOT.VALENCE
     1   C       3.936370
     2   C       3.929757
     3   O       1.915197
     4   H       0.880042
     5   H       0.981683
     6   H       0.979043
     7   H       0.979043
     8   C       3.939002
     9   C       3.939002
    10   H       0.979079
    11   H       0.979079
    12   H       0.980908
    13   H       0.980908
    14   H       0.983206
    15   H       0.983206

 Total charge composition:

   CEN ATOM         s          p       ELECTRONS ->P.CHARGE
     1   C       3.04550    3.37189      6.41738   -0.41738
     2   C       2.94134    2.79997      5.74131    0.25869
     3   O       3.65094    4.92545      8.57639   -0.57639
     4   H       0.65365                 0.65365    0.34635
     5   H       0.86466                 0.86466    0.13534
     6   H       0.85524                 0.85524    0.14476
     7   H       0.85524                 0.85524    0.14476
     8   C       3.05182    3.37865      6.43047   -0.43047
     9   C       3.05182    3.37865      6.43047   -0.43047
    10   H       0.85536                 0.85536    0.14464
    11   H       0.85536                 0.85536    0.14464
    12   H       0.86183                 0.86183    0.13817
    13   H       0.86183                 0.86183    0.13817
    14   H       0.87041                 0.87041    0.12959
    15   H       0.87041                 0.87041    0.12959

 Total charge composition, AO contributions:

   CEN ATOM SHL      SPHERICAL COMPONENTS
     1   C  1s       1.99107
     1   C  2s       1.05443
     1   C  2p       1.03793    1.16086    1.17310

     2   C  1s       1.99271
     2   C  2s       0.94864
     2   C  2p       1.00618    0.78497    1.00882

     3   O  1s       1.99713
     3   O  2s       1.65381
     3   O  2p       1.47604    1.49304    1.95638

     4   H  1s       0.65365

     5   H  1s       0.86466

     6   H  1s       0.85524

     7   H  1s       0.85524

     8   C  1s       1.99117
     8   C  2s       1.06064
     8   C  2p       1.14286    1.14267    1.09313

     9   C  1s       1.99117
     9   C  2s       1.06064
     9   C  2p       1.14286    1.14267    1.09313

    10   H  1s       0.85536

    11   H  1s       0.85536

    12   H  1s       0.86183

    13   H  1s       0.86183

    14   H  1s       0.87041

    15   H  1s       0.87041

 Summary of localized orbital composition:   [THRPRINT= 0.020]

   ORB  GRP  ORB.ENERGY      CENTERS/CHARGES
     1   1   -18.944276      O  3   2.000
     2   1   -10.129355      C  2   2.000
     3   1   -10.035915      C  9   2.000
     4   1   -10.035915      C  8   2.000
     5   1   -10.029966      C  1   2.000
     6   1    -0.761354      O  3   1.348   H  4   0.642
     7   1    -0.717888      O  3   1.286   C  2   0.696
     8   1    -0.580505      O  3   1.982
     9   1    -0.573169      C  8   1.007   C  2   0.977
    10   1    -0.573169      C  9   1.007   C  2   0.977
    11   1    -0.572535      C  1   0.990   C  2   0.986   (other: 0.024)
    12   1    -0.505354      C  8   1.134   H 12   0.852
    13   1    -0.505354      C  9   1.134   H 13   0.852
    14   1    -0.503484      C  8   1.125   H 14   0.863
    15   1    -0.503484      C  9   1.125   H 15   0.863
    16   1    -0.501127      C  1   1.129   H  5   0.858
    17   1    -0.499491      C  9   1.142   H 11   0.847
    18   1    -0.499491      C  8   1.142   H 10   0.847
    19   1    -0.494906      C  1   1.142   H  6   0.847
    20   1    -0.494906      C  1   1.142   H  7   0.847
    21   1    -0.304714      O  3   1.956   (other: 0.044)

 Localized orbitals saved to record      2200.2  (orbital set 4)


 **********************************************************************************************************************************
 DATASETS  * FILE   NREC   LENGTH (MB)   RECORD NAMES
              1      20    37756.57       500      610      700      900      950      970     1000      129      960     1100   
                                          VAR    BASINP    GEOM    SYMINP    ZMAT    AOBASIS   BASIS     P2S    ABASIS      S 
                                         1400     1410     1200     1210     1080     1600     1650     1300     1700     1800   
                                           T        V       H0       H01     AOSYM     SMH    MOLCAS    ERIS     OPER     GRID   

              2       5       19.57       700     1000      520     1800     2200   
                                         GEOM     BASIS   MCVARS    GRID      UKS  

 PROGRAMS   *        TOTAL      IBBA       UKS       INT
 CPU TIMES  *      5154.08      0.48   3976.32   1177.12
 REAL TIME  *     21578.50 SEC
 DISK USED  *       168.05 GB      
 **********************************************************************************************************************************
 Molecular orbitals read from record     2200.2  Type=UKS/LOCAL(IBO)  
 Occupation numbers read from record     2200.2  Type=UKS/LOCAL(IBO)  
 Orbital energies read from record       2200.2  Type=UKS/LOCAL(IBO)  
 Redundancy group numbers read from rec  2200.2  Type=UKS/BETA (state 1.1)

 IBBA/QZVP energy=      0.000000000000

        UKS-SCF 
   -233.70276766
 **********************************************************************************************************************************
 Molpro calculation terminated
