
 Primary working directories    : /local
 Secondary working directories  : /local
 Wavefunction directory         : /local/
 Main file repository           : /local/

 SHA1      : b4a5b34a9e711420743f49e6833241d17c61fb3c
 NAME      : 2099.9.b4a5b34
 ARCHNAME  : linux/x86_64_openmp
 FC        : /cm/shared/languages/GCC-6.1/bin/gfortran
 BLASLIB   : -lblas
 id        : simonbennie

 Nodes     nprocs
 node33-013    1

 Using customized tuning parameters: mindgm=1; mindgv=20; mindgc=4; mindgr=1; noblas=0; minvec=7
 default implementation of scratch files=df  

 memory,500,m
 geomtyp=xyz
 nosym
 noorient
 geometry={
 C         -1.53233        0.02247        0.00000
 C         -0.00192        0.01421        0.00000
 O          0.37239        1.40356        0.00000
 H          1.34248        1.44036        0.00000
 H         -1.92991       -0.99819        0.00000
 H         -1.90797        0.54382       -0.88653
 H         -1.90797        0.54382        0.88653
 C          0.54303       -0.66466       -1.26580
 C          0.54303       -0.66466        1.26580
 H          0.17836       -0.14752       -2.15943
 H          0.17836       -0.14752        2.15943
 H          0.23752       -1.71600       -1.32280
 H          0.23752       -1.71600        1.32280
 H          1.64084       -0.63767       -1.28032
 H          1.64084       -0.63767        1.28032
 }
 basis={ default,tzvp }
 {uks,LSDC,direct;wf,42,1,0}
 {ibba,bonds=1}

 Variables initialized (895), CPU time= 0.00 sec
 Commands  initialized (725), CPU time= 0.02 sec, 591 directives.
 Default parameters read. Elapsed time= 0.08 sec

 Checking input...
 Passed
1


                                         ***  PROGRAM SYSTEM MOLPRO  ***
                                       Copyright, TTI GmbH Stuttgart, 2015
                                    Version 2099.9 linked May 26 2017 16:03:21


 **********************************************************************************************************************************
 LABEL *                                                                                 
  64 bit serial version                                                                  DATE: 12-Jun-17          TIME: 19:33:45  
 **********************************************************************************************************************************

 SHA1:             b4a5b34a9e711420743f49e6833241d17c61fb3c
 **********************************************************************************************************************************
 SETTING GEOMTYP        =    XYZ

 Variable memory set to  500000000 words,  buffer space 

 ZSYMEL=NOSYM

 SETTING BASIS          =    TZVP


 Recomputing integrals since basis changed


 Using spherical harmonics

 Library entry C      S def2-TZVP            selected for orbital group  1
 Library entry C      P def2-TZVP            selected for orbital group  1
 Library entry C      D def2-TZVP            selected for orbital group  1
 Library entry C      F def2-TZVP            selected for orbital group  1
 Library entry O      S def2-TZVP            selected for orbital group  2
 Library entry O      P def2-TZVP            selected for orbital group  2
 Library entry O      D def2-TZVP            selected for orbital group  2
 Library entry O      F def2-TZVP            selected for orbital group  2
 Library entry H      S def2-TZVP            selected for orbital group  3
 Library entry H      P def2-TZVP            selected for orbital group  3


 PROGRAM * SEWARD (Integral evaluation for generally contracted gaussian basis sets)     Author: Roland Lindh, 1990

 Geometry written to block  1 of record 700


 Point group  C1  



 ATOMIC COORDINATES

 NR  ATOM    CHARGE       X              Y              Z

   1  C       6.00   -2.895684032    0.042462146    0.000000000
   2  C       6.00   -0.003628274    0.026853008    0.000000000
   3  O       8.00    0.703715112    2.652343999    0.000000000
   4  H       1.00    2.536919528    2.721885921    0.000000000
   5  H       1.00   -3.647001345   -1.886305720    0.000000000
   6  H       1.00   -3.605540754    1.027670861   -1.675298901
   7  H       1.00   -3.605540754    1.027670861    1.675298901
   8  C       6.00    1.026177977   -1.256025366   -2.392015328
   9  C       6.00    1.026177977   -1.256025366    2.392015328
  10  H       1.00    0.337051552   -0.278772398   -4.080731285
  11  H       1.00    0.337051552   -0.278772398    4.080731285
  12  H       1.00    0.448847749   -3.242770030   -2.499729718
  13  H       1.00    0.448847749   -3.242770030    2.499729718
  14  H       1.00    3.100738214   -1.205021658   -2.419454152
  15  H       1.00    3.100738214   -1.205021658    2.419454152

 Bond lengths in Bohr (Angstrom)

 1-2  2.892097881  1-5  2.069933136  1-6  2.069096224  1-7  2.069096224  2-3  2.719106031
     ( 1.530432290)     ( 1.095361444)     ( 1.094918569)     ( 1.094918569)     ( 1.438888946)

  2- 8  2.903104402   2- 9  2.903104402   3- 4  1.834522965   8-10  2.069222119   8-12  2.071730422
       ( 1.536256691)       ( 1.536256691)       ( 0.970787746)       ( 1.094985190)       ( 1.096312526)

  8-14  2.075368508   9-11  2.069222119   9-13  2.071730422   9-15  2.075368508
       ( 1.098237719)       ( 1.094985190)       ( 1.096312526)       ( 1.098237719)

 Bond angles

  1-2-3  104.76902697   1-2-8  110.92255387   1-2-9  110.92255387   2-1-5  110.97328220

  2- 1- 6  110.22090701   2- 1- 7  110.22090701   2- 3- 4  107.25071562   2- 8-10  110.21836376

  2- 8-12  111.57747468   2- 8-14  110.77023896   2- 9-11  110.21836376   2- 9-13  111.57747468

  2- 9-15  110.77023896   3- 2- 8  109.53648747   3- 2- 9  109.53648747   5- 1- 6  108.61190457

  5- 1- 7  108.61190457   6- 1- 7  108.12870271   8- 2- 9  110.96453384  10- 8-12  108.52192632

 10- 8-14  108.08997829  11- 9-13  108.52192632  11- 9-15  108.08997829  12- 8-14  107.54424578

 13- 9-15  107.54424578

 NUCLEAR CHARGE:                   42
 NUMBER OF PRIMITIVE AOS:         335
 NUMBER OF SYMMETRY AOS:          310
 NUMBER OF CONTRACTIONS:          215   ( 215A   )
 NUMBER OF CORE ORBITALS:           5   (   5A   )
 NUMBER OF VALENCE ORBITALS:       30   (  30A   )


 NUCLEAR REPULSION ENERGY  198.77359127


 Eigenvalues of metric

         1 0.262E-03 0.510E-03 0.539E-03 0.594E-03 0.697E-03 0.755E-03 0.210E-02 0.239E-02


 Contracted 2-electron integrals neglected if value below      1.0D-11
 AO integral compression algorithm  1   Integral accuracy      1.0D-11

     977.797 MB (compressed) written to integral file ( 41.7%)


 NUMBER OF SORTED TWO-ELECTRON INTEGRALS:  269595810.     BUFFER LENGTH:  32768
 NUMBER OF SEGMENTS:  17  SEGMENT LENGTH:   15999762      RECORD LENGTH: 524288

 Memory used in sort:      16.56 MW

 SORT1 READ   292827432. AND WROTE   238500613. INTEGRALS IN    690 RECORDS. CPU TIME:     3.34 SEC, REAL TIME:     6.52 SEC
 SORT2 READ   238500613. AND WROTE   269595810. INTEGRALS IN   3730 RECORDS. CPU TIME:     5.43 SEC, REAL TIME:     9.22 SEC

 FILE SIZES:   FILE 1:  1009.7 MBYTE,  FILE 4:  2894.1 MBYTE,   TOTAL:   3903.8 MBYTE

 OPERATOR DM      FOR CENTER  0  COORDINATES:    0.000000    0.000000    0.000000


 **********************************************************************************************************************************
 DATASETS  * FILE   NREC   LENGTH (MB)   RECORD NAMES
              1      19      926.27       500      610      700      900      950      970     1000      129      960     1100   
                                          VAR    BASINP    GEOM    SYMINP    ZMAT    AOBASIS   BASIS     P2S    ABASIS      S 
                                         1400     1410     1200     1210     1080     1600     1650     1300     1700   
                                           T        V       H0       H01     AOSYM     SMH    MOLCAS    ERIS     OPER   

 PROGRAMS   *        TOTAL       INT
 CPU TIMES  *        24.86     24.72
 REAL TIME  *        60.08 SEC
 DISK USED  *         3.90 GB      
 **********************************************************************************************************************************

 Density functional group LSDC=PW92C
 Functional: PW92C(Automatically generated (new) PW92C)                        Gradient terms: 0
 Use grid at  1800.2

 Functional: PW92C                     Factor:  1.0000

 Generated new metagrid on record  1800.2 with target accuracy 1.0D-06 and 54596 points in CPU time    1.6
 Computed new grid on record 1800.1 in CPU time    1.8
   93304 words reserved for DFT integration

 PROGRAM * UKS-SCF (Unrestricted Kohn-Sham)     Authors: W. Meyer, H.-J. Werner, P.J. Knowles, 1993

 NUMBER OF ELECTRONS:      21+   21-    SPACE SYMMETRY=1    SPIN SYMMETRY: Singlet 
 CONVERGENCE THRESHOLDS:    1.00E-05 (Density)    1.00E-06 (Energy)
 MAX. NUMBER OF ITERATIONS:       60
 INTERPOLATION TYPE:            DIIS
 INTERPOLATION STEPS:              2 (START)      1 (STEP)
 LEVEL SHIFTS:                 -0.20 (ALPHA)  -0.20 (BETA) 



 Use fine grid record 1800.2 for energy threshold  1.0D-06
 Orbital guess generated from atomic densities. Full valence occupancy:   21

 Molecular orbital dump at record        2200.2

 Initial alpha occupation  21
 Initial beta  occupation  21

 ITERATION    DDIFF          GRAD             ENERGY        2-EL.EN.            DIPOLE MOMENTS         DIIS
    1      0.000D+00      0.000D+00      -200.94500831    547.042760    2.08098    7.36873    0.00000    0
    2      0.745D+00      0.957D-02      -198.96672371    645.053373   -0.77163   -7.14929   -0.00000    1
    3      0.134D-01      0.176D-01      -202.88084541    611.095732   -0.13932   -2.87848   -0.00000    2
    4      0.687D-02      0.542D-02      -203.37420513    597.020689    0.08507   -1.30369   -0.00000    3
    5      0.491D-02      0.161D-02      -203.43425793    592.827617    0.25971   -0.29552    0.00000    4
    6      0.728D-02      0.403D-03      -203.43991658    590.893411    0.32323   -0.00982    0.00000    5
    7      0.464D-02      0.280D-03      -203.44180694    591.797977    0.30576   -0.04871    0.00000    6
    8      0.232D-02      0.119D-03      -203.44215972    591.775122    0.31076   -0.06256    0.00000    7
    9      0.168D-02      0.429D-04      -203.44225240    591.950035    0.30998   -0.06284    0.00000    8
   10      0.661D-03      0.123D-04      -203.44226306    591.935554    0.30678   -0.06751    0.00000    7
   11      0.247D-03      0.421D-05      -203.44226462    591.942850    0.30809   -0.06477    0.00000    8
   12      0.900D-04      0.179D-05      -203.44226484    591.939836    0.30715   -0.06527    0.00000    8
   13      0.302D-04      0.971D-06      -203.44226488    591.940848    0.30726   -0.06547    0.00000    8
   14      0.105D-04      0.277D-06      -203.44226489    591.940577    0.30721   -0.06527   -0.00000    8
   15      0.301D-05      0.804D-07      -203.44226489    591.940677    0.30717   -0.06531    0.00000    8
   16      0.959D-06      0.477D-07      -203.44226489    591.940512    0.30717   -0.06530    0.00000    8

 Final alpha occupancy:  21
 Final beta  occupancy:  21

 !UKS STATE 1.1 Energy               -203.442264888743
 Nuclear energy                       198.77359127
 One-electron energy                 -695.62892912
 Two-electron energy                  295.97025606
 Density functional                    -2.55718311     PW92C=-2.55718311
 Virial quotient                       -0.97432329
 !UKS STATE 1.1 Dipole moment           0.30716972    -0.06529650     0.00000000
 Dipole moment /Debye                   0.78069642    -0.16595629     0.00000000

 Orbital energies for positive spin:

         1.1          2.1          3.1          4.1          5.1          6.1          7.1          8.1          9.1         10.1
    -16.776643    -8.396978    -8.352694    -8.352662    -8.350535    -0.632875    -0.442130    -0.354799    -0.352322    -0.246904

        11.1         12.1         13.1         14.1         15.1         16.1         17.1         18.1         19.1         20.1
     -0.191231    -0.164914    -0.164553    -0.121286    -0.109437    -0.088100    -0.064772    -0.061000    -0.056879    -0.026916

        21.1         22.1         23.1
      0.025712     0.112698     0.162460

 Orbital energies for negative spin:

         1.1          2.1          3.1          4.1          5.1          6.1          7.1          8.1          9.1         10.1
    -16.776643    -8.396978    -8.352694    -8.352662    -8.350535    -0.632875    -0.442130    -0.354799    -0.352322    -0.246904

        11.1         12.1         13.1         14.1         15.1         16.1         17.1         18.1         19.1         20.1
     -0.191231    -0.164914    -0.164553    -0.121286    -0.109437    -0.088100    -0.064772    -0.061000    -0.056879    -0.026916

        21.1         22.1         23.1
      0.025712     0.112698     0.162460

 HOMO     21.1     0.025712 =       0.6996eV
 LUMO     22.1     0.112698 =       3.0667eV
 LUMO-HOMO         0.086987 =       2.3670eV

 EXPECTATION VALUE OF S**2:            -0.00000000

 Natural orbitals saved to record    2200.2 (Orbital set 3)

 Orbital spaces for UNO-CAS (Min. occupation: 0.020  Max. occupation: 1.980):

 Closed:       21
 Active:        0


 **********************************************************************************************************************************
 DATASETS  * FILE   NREC   LENGTH (MB)   RECORD NAMES
              1      20      928.02       500      610      700      900      950      970     1000      129      960     1100   
                                          VAR    BASINP    GEOM    SYMINP    ZMAT    AOBASIS   BASIS     P2S    ABASIS      S 
                                         1400     1410     1200     1210     1080     1600     1650     1300     1700     1800   
                                           T        V       H0       H01     AOSYM     SMH    MOLCAS    ERIS     OPER     GRID   

              2       5        4.89       700     1000      520     1800     2200   
                                         GEOM     BASIS   MCVARS    GRID      UKS  

 PROGRAMS   *        TOTAL       UKS       INT
 CPU TIMES  *        88.29     63.43     24.72
 REAL TIME  *       125.95 SEC
 DISK USED  *         3.90 GB      
 **********************************************************************************************************************************


 PROGRAM * Intrinsic Basis Bonding Analysis (IBBA)          Author: G. Knizia

 Molecular orbitals read from record     2200.2  Type=UKS/ALPHA (state 1.1)
 Fock matrix read from record            2200.2  Type=UKS/TOTAL (state 1.1)
 Orbital energies read from record       2200.2  Type=UKS/ALPHA (state 1.1)
 Density matrix read from record         2200.2  Type=UKS/CHARGE (state 1.1)

 Number of core orbitals:           5 (   5 )
 Number of closed-shell orbitals:  16 (  16 )

 Basis set MINAO-AUTO-PP generated.      Number of basis functions:   35 

 Polarized AO type:                A = (O Ot + (1-O)(1-Ot)) P12
 Orthogonalization method:         Symmetric (Loewdin)
 Localization functional:          L = sum[A,i] <i|n_A|i>^4 -> max

 Localization group 1:  21 orbitals, occupancy  2.000
 Iterative localization: IB/PM,    8 iter; Final gradient 0.31E-09

 Bond order analysis:       [THRPRINT= 0.020]

   CEN ATOM   CEN ATOM     WIBERG.BO      RENORM.BO
     1   C  -   2   C       0.983316       0.996622
     1   C  -   5   H       0.956466       0.968937
     1   C  -   7   H       0.949712       0.954205
     1   C  -   6   H       0.949712       0.954205
     1   C  -   3   O       0.031405       0.017516
     1   C  -   4   H       0.025347       0.031292
     1   C  -  15   H       0.020812       0.021789
     1   C  -  14   H       0.020812       0.021789

     2   C  -   8   C       0.988109       0.973012
     2   C  -   9   C       0.988109       0.973012
     2   C  -   1   C       0.983316       0.996622
     2   C  -   3   O       0.973343       0.945048

     3   O  -   2   C       0.973343       0.945048
     3   O  -   4   H       0.910713       0.934171
     3   O  -   8   C       0.052484       0.028278
     3   O  -   9   C       0.052484       0.028278
     3   O  -  12   H       0.036294       0.025562
     3   O  -  13   H       0.036294       0.025562
     3   O  -   1   C       0.031405       0.017516
     3   O  -   5   H       0.021749       0.016577

     4   H  -   3   O       0.910713       0.934171
     4   H  -   1   C       0.025347       0.031292

     5   H  -   1   C       0.956466       0.968937
     5   H  -   3   O       0.021749       0.016577

     6   H  -   1   C       0.949712       0.954205
     6   H  -   9   C       0.023552       0.024244

     7   H  -   1   C       0.949712       0.954205
     7   H  -   8   C       0.023552       0.024244

     8   C  -   2   C       0.988109       0.973012
     8   C  -  10   H       0.950739       0.953832
     8   C  -  14   H       0.949798       0.958872
     8   C  -  12   H       0.947589       0.950786
     8   C  -   3   O       0.052484       0.028278
     8   C  -   7   H       0.023552       0.024244
     8   C  -  11   H       0.023277       0.023944

     9   C  -   2   C       0.988109       0.973012
     9   C  -  11   H       0.950739       0.953832
     9   C  -  15   H       0.949798       0.958872
     9   C  -  13   H       0.947589       0.950786
     9   C  -   3   O       0.052484       0.028278
     9   C  -   6   H       0.023552       0.024244
     9   C  -  10   H       0.023277       0.023944

    10   H  -   8   C       0.950739       0.953832
    10   H  -   9   C       0.023277       0.023944

    11   H  -   9   C       0.950739       0.953832
    11   H  -   8   C       0.023277       0.023944

    12   H  -   8   C       0.947589       0.950786
    12   H  -   3   O       0.036294       0.025562

    13   H  -   9   C       0.947589       0.950786
    13   H  -   3   O       0.036294       0.025562

    14   H  -   8   C       0.949798       0.958872
    14   H  -   1   C       0.020812       0.021789

    15   H  -   9   C       0.949798       0.958872
    15   H  -   1   C       0.020812       0.021789


 Valency analysis:

   CEN ATOM   TOT.VALENCE
     1   C       3.968349
     2   C       3.950861
     3   O       2.139738
     4   H       0.960344
     5   H       0.996139
     6   H       0.995999
     7   H       0.995999
     8   C       3.969238
     9   C       3.969238
    10   H       0.995970
    11   H       0.995970
    12   H       0.996464
    13   H       0.996464
    14   H       0.997255
    15   H       0.997255

 Total charge composition:

   CEN ATOM         s          p       ELECTRONS ->P.CHARGE
     1   C       2.94756    3.26571      6.21327   -0.21327
     2   C       2.87178    2.86034      5.73212    0.26788
     3   O       3.57755    4.74699      8.32454   -0.32454
     4   H       0.80086                 0.80086    0.19914
     5   H       0.93786                 0.93786    0.06214
     6   H       0.93675                 0.93675    0.06325
     7   H       0.93675                 0.93675    0.06325
     8   C       2.96461    3.26966      6.23427   -0.23427
     9   C       2.96461    3.26966      6.23427   -0.23427
    10   H       0.93652                 0.93652    0.06348
    11   H       0.93652                 0.93652    0.06348
    12   H       0.94053                 0.94053    0.05947
    13   H       0.94053                 0.94053    0.05947
    14   H       0.94761                 0.94761    0.05239
    15   H       0.94761                 0.94761    0.05239

 Total charge composition, AO contributions:

   CEN ATOM SHL      SPHERICAL COMPONENTS
     1   C  1s       1.99700
     1   C  2s       0.95056
     1   C  2p       1.02959    1.11279    1.12332

     2   C  1s       1.99773
     2   C  2s       0.87405
     2   C  2p       1.00727    0.84263    1.01045

     3   O  1s       1.99873
     3   O  2s       1.57883
     3   O  2p       1.36917    1.46819    1.90963

     4   H  1s       0.80086

     5   H  1s       0.93786

     6   H  1s       0.93675

     7   H  1s       0.93675

     8   C  1s       1.99705
     8   C  2s       0.96756
     8   C  2p       1.09647    1.10344    1.06975

     9   C  1s       1.99705
     9   C  2s       0.96756
     9   C  2p       1.09647    1.10344    1.06975

    10   H  1s       0.93652

    11   H  1s       0.93652

    12   H  1s       0.94053

    13   H  1s       0.94053

    14   H  1s       0.94761

    15   H  1s       0.94761

 Summary of localized orbital composition:   [THRPRINT= 0.020]

   ORB  GRP  ORB.ENERGY      CENTERS/CHARGES
     1   1   -16.676650      O  3   2.000
     2   1    -8.325678      C  2   2.000
     3   1    -8.268134      C  9   2.000
     4   1    -8.268134      C  8   2.000
     5   1    -8.265675      C  1   2.000
     6   1    -0.411466      O  3   1.226   C  2   0.748   (other: 0.026)
     7   1    -0.385571      O  3   1.213   H  4   0.770
     8   1    -0.267433      C  1   1.002   C  2   0.951   (other: 0.047)
     9   1    -0.265195      C  9   1.025   C  2   0.945   (other: 0.030)
    10   1    -0.265195      C  8   1.025   C  2   0.945   (other: 0.030)
    11   1    -0.191050      C  8   1.042   H 14   0.934   (other: 0.024)
    12   1    -0.191050      C  9   1.042   H 15   0.934   (other: 0.024)
    13   1    -0.189658      C  9   1.058   H 13   0.920   (other: 0.022)
    14   1    -0.189658      C  8   1.058   H 12   0.920   (other: 0.022)
    15   1    -0.188805      O  3   1.964   (other: 0.036)
    16   1    -0.188045      C  1   1.054   H  5   0.925   (other: 0.022)
    17   1    -0.185442      C  8   1.062   H 10   0.920
    18   1    -0.185442      C  9   1.062   H 11   0.920
    19   1    -0.183881      C  1   1.061   H  6   0.920
    20   1    -0.183881      C  1   1.061   H  7   0.920
    21   1    -0.005891      O  3   1.910   C  2   0.027   (other: 0.063)

 Localized orbitals saved to record      2200.2  (orbital set 4)


 **********************************************************************************************************************************
 DATASETS  * FILE   NREC   LENGTH (MB)   RECORD NAMES
              1      20      928.02       500      610      700      900      950      970     1000      129      960     1100   
                                          VAR    BASINP    GEOM    SYMINP    ZMAT    AOBASIS   BASIS     P2S    ABASIS      S 
                                         1400     1410     1200     1210     1080     1600     1650     1300     1700     1800   
                                           T        V       H0       H01     AOSYM     SMH    MOLCAS    ERIS     OPER     GRID   

              2       5        5.27       700     1000      520     1800     2200   
                                         GEOM     BASIS   MCVARS    GRID      UKS  

 PROGRAMS   *        TOTAL      IBBA       UKS       INT
 CPU TIMES  *        88.35      0.06     63.43     24.72
 REAL TIME  *       126.11 SEC
 DISK USED  *         3.90 GB      
 **********************************************************************************************************************************
 Molecular orbitals read from record     2200.2  Type=UKS/LOCAL(IBO)  
 Occupation numbers read from record     2200.2  Type=UKS/LOCAL(IBO)  
 Orbital energies read from record       2200.2  Type=UKS/LOCAL(IBO)  
 Redundancy group numbers read from rec  2200.2  Type=UKS/BETA (state 1.1)

 IBBA/TZVP energy=      0.000000000000

        UKS-SCF 
   -203.44226489
 **********************************************************************************************************************************
 Molpro calculation terminated
