
 Primary working directories    : /tmp/sb13343
 Secondary working directories  : /tmp/sb13343
 Wavefunction directory         : /panfs/panasas01/chem/sb13343/wfu/
 Main file repository           : /tmp/sb13343/

 SHA1      : b4a5b34a9e711420743f49e6833241d17c61fb3c
 NAME      : 2099.9.b4a5b34
 ARCHNAME  : linux/x86_64_openmp
 FC        : /cm/shared/languages/GCC-6.1/bin/gfortran
 BLASLIB   : -lblas
 id        : simonbennie

 Nodes     nprocs
 node32-029    1

 Using customized tuning parameters: mindgm=1; mindgv=20; mindgc=4; mindgr=1; noblas=0; minvec=7
 default implementation of scratch files=df  

 memory,500,m
 geomtyp=xyz
 nosym
 noorient
 geometry={
 C          0.00000        0.00000        0.00000
 H          0.00000        0.00000        1.10056
 C          1.46209        0.00000       -0.46855
 C         -0.73105       -1.26621       -0.46855
 C         -0.73105        1.26621       -0.46855
 H          1.52118        0.00000       -1.56505
 H         -0.76059       -1.31738       -1.56505
 H         -0.76059        1.31738       -1.56505
 H          1.99755        0.88622       -0.10723
 H          1.99755       -0.88622       -0.10723
 H         -0.23129       -2.17304       -0.10723
 H         -1.76626       -1.28682       -0.10723
 H         -1.76626        1.28682       -0.10723
 H         -0.23129        2.17304       -0.10723
 }
 basis={ default,sto-3g }
 {ks,MM06,direct;wf,34,1,0}
 {ibba,bonds=1}

 Variables initialized (895), CPU time= 0.00 sec
 Commands  initialized (725), CPU time= 0.01 sec, 591 directives.
 Default parameters read. Elapsed time= 0.09 sec

 Checking input...
 Passed
1


                                         ***  PROGRAM SYSTEM MOLPRO  ***
                                       Copyright, TTI GmbH Stuttgart, 2015
                                    Version 2099.9 linked May 26 2017 16:03:21


 **********************************************************************************************************************************
 LABEL *                                                                                 
  64 bit serial version                                                                  DATE: 08-Jun-17          TIME: 23:54:05  
 **********************************************************************************************************************************

 SHA1:             b4a5b34a9e711420743f49e6833241d17c61fb3c
 **********************************************************************************************************************************
 SETTING GEOMTYP        =    XYZ

 Variable memory set to  500000000 words,  buffer space 

 ZSYMEL=NOSYM

 SETTING BASIS          =    STO-3G


 Recomputing integrals since basis changed


 Using spherical harmonics

 Library entry C      S STO-3G               selected for orbital group  1
 Library entry C      P STO-3G               selected for orbital group  1
 Library entry H      S STO-3G               selected for orbital group  2


 PROGRAM * SEWARD (Integral evaluation for generally contracted gaussian basis sets)     Author: Roland Lindh, 1990

 Geometry written to block  1 of record 700


 Point group  C1  



 ATOMIC COORDINATES

 NR  ATOM    CHARGE       X              Y              Z

   1  C       6.00    0.000000000    0.000000000    0.000000000
   2  H       1.00    0.000000000    0.000000000    2.079756984
   3  C       6.00    2.762949669    0.000000000   -0.885431176
   4  C       6.00   -1.381484283   -2.392790116   -0.885431176
   5  C       6.00   -1.381484283    2.392790116   -0.885431176
   6  H       1.00    2.874613586    0.000000000   -2.957515871
   7  H       1.00   -1.437306793   -2.489487402   -2.957515871
   8  H       1.00   -1.437306793    2.489487402   -2.957515871
   9  H       1.00    3.774822420    1.674713086   -0.202635332
  10  H       1.00    3.774822420   -1.674713086   -0.202635332
  11  H       1.00   -0.437074755   -4.106450458   -0.202635332
  12  H       1.00   -3.337747665   -2.431737372   -0.202635332
  13  H       1.00   -3.337747665    2.431737372   -0.202635332
  14  H       1.00   -0.437074755    4.106450458   -0.202635332

 Bond lengths in Bohr (Angstrom)

 1-2  2.079756984  1-3  2.901358172  1-4  2.901367218  1-5  2.901367218  3-6  2.075091279
     ( 1.100560000)     ( 1.535332625)     ( 1.535337412)     ( 1.535337412)     ( 1.098091015)

  3- 9  2.072380406   3-10  2.072380406   4- 7  2.075090722   4-11  2.072378172   4-12  2.072364222
       ( 1.096656483)       ( 1.096656483)       ( 1.098090721)       ( 1.096655301)       ( 1.096647919)

  5- 8  2.075090722   5-13  2.072364222   5-14  2.072378172
       ( 1.098090721)       ( 1.096647919)       ( 1.096655301)

 Bond angles

  1- 3- 6  110.85354902   1- 3- 9  111.37220114   1- 3-10  111.37220114   1- 4- 7  110.85320625

  1- 4-11  111.37204414   1- 4-12  111.37216555   1- 5- 8  110.85320625   1- 5-13  111.37216555

  1- 5-14  111.37204414   2- 1- 3  107.76888332   2- 1- 4  107.76882608   2- 1- 5  107.76882608

  3-1-4  111.11870751   3-1-5  111.11870751   4-1-5  111.11845005   6-3-9  107.62119374

  6- 3-10  107.62119374   7- 4-11  107.62125572   7- 4-12  107.62162102   8- 5-13  107.62162102

  8- 5-14  107.62125572   9- 3-10  107.82352924  11- 4-12  107.82360822  13- 5-14  107.82360822

 NUCLEAR CHARGE:                   34
 NUMBER OF PRIMITIVE AOS:          90
 NUMBER OF SYMMETRY AOS:           90
 NUMBER OF CONTRACTIONS:           30   (  30A   )
 NUMBER OF CORE ORBITALS:           4   (   4A   )
 NUMBER OF VALENCE ORBITALS:       26   (  26A   )


 NUCLEAR REPULSION ENERGY  134.07051350


 Eigenvalues of metric

         1 0.203E+00 0.229E+00 0.229E+00 0.287E+00 0.356E+00 0.362E+00 0.364E+00 0.364E+00


 Contracted 2-electron integrals neglected if value below      1.0D-11
 AO integral compression algorithm  1   Integral accuracy      1.0D-11

     1.049 MB (compressed) written to integral file ( 95.2%)


 NUMBER OF SORTED TWO-ELECTRON INTEGRALS:     108345.     BUFFER LENGTH:  32768
 NUMBER OF SEGMENTS:   1  SEGMENT LENGTH:     108345      RECORD LENGTH: 524288

 Memory used in sort:       0.67 MW

 SORT1 READ      123158. AND WROTE      102148. INTEGRALS IN      1 RECORDS. CPU TIME:     0.00 SEC, REAL TIME:     0.01 SEC
 SORT2 READ      102148. AND WROTE      108345. INTEGRALS IN      4 RECORDS. CPU TIME:     0.02 SEC, REAL TIME:     0.02 SEC

 FILE SIZES:   FILE 1:    31.3 MBYTE,  FILE 4:     4.2 MBYTE,   TOTAL:     35.5 MBYTE

 OPERATOR DM      FOR CENTER  0  COORDINATES:    0.000000    0.000000    0.000000


 **********************************************************************************************************************************
 DATASETS  * FILE   NREC   LENGTH (MB)   RECORD NAMES
              1      19       30.69       500      610      700      900      950      970     1000      129      960     1100   
                                          VAR    BASINP    GEOM    SYMINP    ZMAT    AOBASIS   BASIS     P2S    ABASIS      S 
                                         1400     1410     1200     1210     1080     1600     1650     1300     1700   
                                           T        V       H0       H01     AOSYM     SMH    MOLCAS    ERIS     OPER   

 PROGRAMS   *        TOTAL       INT
 CPU TIMES  *         0.53      0.38
 REAL TIME  *         0.88 SEC
 DISK USED  *        35.98 MB      
 **********************************************************************************************************************************

 Density functional group MM06=M06X+M06C
 Functional: M06X(Automatically generated (new) M06X)                          Gradient terms: 2
 Functional: M06C(Automatically generated (new) M06C)                          Gradient terms: 2
 Use grid at  1800.2


 Exact exchange will be calculated, factor:  0.2700

 Functional: M06X                      Factor:  0.7300
 Functional: M06C                      Factor:  1.0000

 Generated new metagrid on record  1800.2 with target accuracy 1.0D-06 and 45620 points in CPU time    1.1
 Computed new grid on record 1800.1 in CPU time    1.3
   51146 words reserved for DFT integration

 PROGRAM * RKS-SCF (Restricted closed shell Kohn-Sham)     Authors: W. Meyer, H.-J. Werner, P.J. Knowles, 1993

 NUMBER OF ELECTRONS:      17+   17-    SPACE SYMMETRY=1    SPIN SYMMETRY: Singlet 
 CONVERGENCE THRESHOLDS:    1.00E-05 (Density)    1.00E-06 (Energy)
 MAX. NUMBER OF ITERATIONS:       60
 INTERPOLATION TYPE:            DIIS
 INTERPOLATION STEPS:              2 (START)      1 (STEP)
 LEVEL SHIFTS:                  0.00 (CLOSED)  0.00 (OPEN) 



 Use fine grid record 1800.2 for energy threshold  1.0D-06
 Orbital guess generated from atomic densities. Full valence occupancy:   17

 Molecular orbital dump at record        2100.2

 Initial occupancy:  17

 ITERATION    DDIFF          GRAD             ENERGY        2-EL.EN.            DIPOLE MOMENTS         DIIS   ORB.
    1      0.000D+00      0.000D+00      -151.50019700    416.320987    0.00005   -0.00000   -0.01276    0    start
    2      0.000D+00      0.275D-01      -151.57678832    397.686534   -0.01601   -0.00000   -0.03015    1    diag
    3      0.830D-01      0.223D-01      -151.71360407    405.648920   -0.00272   -0.00000    0.02560    2    diag
    4      0.371D-01      0.255D-03      -151.71362045    405.699479   -0.00295   -0.00000    0.01071    3    diag
    5      0.600D-03      0.128D-03      -151.71362453    405.702313   -0.00300   -0.00000    0.01305    4    diag
    6      0.229D-03      0.218D-04      -151.71362466    405.703066   -0.00297   -0.00000    0.01391    5    diag
    7      0.401D-04      0.199D-05      -151.71362466    405.703023   -0.00297   -0.00000    0.01368    6    diag
    8      0.482D-05      0.258D-06      -151.71362466    405.703008   -0.00297   -0.00000    0.01370    0    orth

 Final occupancy:  17

 !RKS STATE 1.1 Energy               -151.713624659582
 Nuclear energy                       134.07051350
 One-electron energy                 -474.64019345
 Two-electron energy                  202.85150423
 SCF exchange energy                  -24.29728632     Factor= 0.2700
 Density functional                   -13.99544894     M06X=-17.34538674 M06C= -1.33331662
 Virial quotient                       -0.98952313
 !RKS STATE 1.1 Dipole moment          -0.00297356    -0.00000000     0.01370070
 Dipole moment /Debye                  -0.00755755    -0.00000000     0.03482142

 Orbital energies:

         1.1          2.1          3.1          4.1          5.1          6.1          7.1          8.1          9.1         10.1
     -9.687001    -9.671627    -9.671611    -9.671324    -0.682289    -0.563798    -0.563722    -0.444599    -0.352195    -0.318255

        11.1         12.1         13.1         14.1         15.1         16.1         17.1         18.1         19.1
     -0.318090    -0.269609    -0.269512    -0.249073    -0.205492    -0.205226    -0.201893     0.469824     0.485716

 HOMO     17.1    -0.201893 =      -5.4938eV
 LUMO     18.1     0.469824 =      12.7846eV
 LUMO-HOMO         0.671716 =      18.2783eV


 **********************************************************************************************************************************
 DATASETS  * FILE   NREC   LENGTH (MB)   RECORD NAMES
              1      20       32.15       500      610      700      900      950      970     1000      129      960     1100   
                                          VAR    BASINP    GEOM    SYMINP    ZMAT    AOBASIS   BASIS     P2S    ABASIS      S 
                                         1400     1410     1200     1210     1080     1600     1650     1300     1700     1800   
                                           T        V       H0       H01     AOSYM     SMH    MOLCAS    ERIS     OPER     GRID   

              2       5        3.00       700     1000      520     1800     2100   
                                         GEOM     BASIS   MCVARS    GRID      RKS  

 PROGRAMS   *        TOTAL        KS       INT
 CPU TIMES  *         7.14      6.61      0.38
 REAL TIME  *         7.67 SEC
 DISK USED  *        35.98 MB      
 **********************************************************************************************************************************


 PROGRAM * Intrinsic Basis Bonding Analysis (IBBA)          Author: G. Knizia

 Molecular orbitals read from record     2100.2  Type=RKS/CANONICAL (state 1.1)
 Fock matrix read from record            2100.2  Type=RKS/TOTAL (state 1.1)
 Orbital energies read from record       2100.2  Type=RKS/CANONICAL (state 1.1)
 Density matrix read from record         2100.2  Type=RKS/CHARGE (state 1.1)

 Number of core orbitals:           4 (   4 )
 Number of closed-shell orbitals:  13 (  13 )

 Basis set MINAO-AUTO-PP generated.      Number of basis functions:   30 

 Polarized AO type:                A = (O Ot + (1-O)(1-Ot)) P12
 Orthogonalization method:         Symmetric (Loewdin)
 Localization functional:          L = sum[A,i] <i|n_A|i>^4 -> max

 Localization group 1:  17 orbitals, occupancy  2.000
 Iterative localization: IB/PM,    7 iter; Final gradient 0.34E-08

 Bond order analysis:       [THRPRINT= 0.020]

   CEN ATOM   CEN ATOM     WIBERG.BO      RENORM.BO
     1   C  -   3   C       1.007217       1.007301
     1   C  -   4   C       1.007034       1.007200
     1   C  -   5   C       1.007034       1.007200
     1   C  -   2   H       0.943825       0.963563

     2   H  -   1   C       0.943825       0.963563

     3   C  -   1   C       1.007217       1.007301
     3   C  -   9   H       0.969218       0.986802
     3   C  -  10   H       0.969218       0.986802
     3   C  -   6   H       0.969185       0.985084

     4   C  -   1   C       1.007034       1.007200
     4   C  -   7   H       0.969215       0.985081
     4   C  -  11   H       0.969173       0.986843
     4   C  -  12   H       0.969151       0.986910

     5   C  -   1   C       1.007034       1.007200
     5   C  -   8   H       0.969215       0.985081
     5   C  -  14   H       0.969173       0.986843
     5   C  -  13   H       0.969151       0.986910

     6   H  -   3   C       0.969185       0.985084

     7   H  -   4   C       0.969215       0.985081

     8   H  -   5   C       0.969215       0.985081

     9   H  -   3   C       0.969218       0.986802

    10   H  -   3   C       0.969218       0.986802

    11   H  -   4   C       0.969173       0.986843

    12   H  -   4   C       0.969151       0.986910

    13   H  -   5   C       0.969151       0.986910

    14   H  -   5   C       0.969173       0.986843


 Valency analysis:

   CEN ATOM   TOT.VALENCE
     1   C       3.976451
     2   H       0.987470
     3   C       3.944308
     4   C       3.944140
     5   C       3.944140
     6   H       0.987824
     7   H       0.987852
     8   H       0.987852
     9   H       0.987167
    10   H       0.987167
    11   H       0.987130
    12   H       0.987062
    13   H       0.987062
    14   H       0.987130

 Total charge composition:

   CEN ATOM         s          p       ELECTRONS ->P.CHARGE
     1   C       2.93080    3.17307      6.10387   -0.10387
     2   H       0.88806                 0.88806    0.11194
     3   C       2.97043    3.36934      6.33977   -0.33977
     4   C       2.97028    3.36974      6.34001   -0.34001
     5   C       2.97028    3.36974      6.34001   -0.34001
     6   H       0.88966                 0.88966    0.11034
     7   H       0.88978                 0.88978    0.11022
     8   H       0.88978                 0.88978    0.11022
     9   H       0.88672                 0.88672    0.11328
    10   H       0.88672                 0.88672    0.11328
    11   H       0.88655                 0.88655    0.11345
    12   H       0.88625                 0.88625    0.11375
    13   H       0.88625                 0.88625    0.11375
    14   H       0.88655                 0.88655    0.11345

 Total charge composition, AO contributions:

   CEN ATOM SHL      SPHERICAL COMPONENTS
     1   C  1s       1.99368
     1   C  2s       0.93711
     1   C  2p       1.02569    1.02576    1.12161

     2   H  1s       0.88806

     3   C  1s       1.99327
     3   C  2s       0.97716
     3   C  2p       1.06636    1.15633    1.14666

     4   C  1s       1.99327
     4   C  2s       0.97701
     4   C  2p       1.13427    1.08893    1.14654

     5   C  1s       1.99327
     5   C  2s       0.97701
     5   C  2p       1.13427    1.08893    1.14654

     6   H  1s       0.88966

     7   H  1s       0.88978

     8   H  1s       0.88978

     9   H  1s       0.88672

    10   H  1s       0.88672

    11   H  1s       0.88655

    12   H  1s       0.88625

    13   H  1s       0.88625

    14   H  1s       0.88655

 Summary of localized orbital composition:   [THRPRINT= 0.020]

   ORB  GRP  ORB.ENERGY      CENTERS/CHARGES
     1   1    -9.587548      C  1   2.000
     2   1    -9.565515      C  3   2.000
     3   1    -9.565506      C  4   2.000
     4   1    -9.565506      C  5   2.000
     5   1    -0.425174      C  3   0.994   C  1   0.990
     6   1    -0.424999      C  4   0.994   C  1   0.990
     7   1    -0.424999      C  5   0.994   C  1   0.990
     8   1    -0.379925      C  5   1.113   H 13   0.879
     9   1    -0.379925      C  4   1.113   H 12   0.879
    10   1    -0.379443      C  5   1.112   H 14   0.880
    11   1    -0.379443      C  4   1.112   H 11   0.880
    12   1    -0.379356      C  3   1.112   H  9   0.880
    13   1    -0.379356      C  3   1.112   H 10   0.880
    14   1    -0.378285      C  3   1.109   H  6   0.883
    15   1    -0.378228      C  5   1.109   H  8   0.884
    16   1    -0.378228      C  4   1.109   H  7   0.884
    17   1    -0.373877      C  1   1.102   H  2   0.875   (other: 0.023)

 Localized orbitals saved to record      2100.2  (orbital set 2)


 **********************************************************************************************************************************
 DATASETS  * FILE   NREC   LENGTH (MB)   RECORD NAMES
              1      20       32.15       500      610      700      900      950      970     1000      129      960     1100   
                                          VAR    BASINP    GEOM    SYMINP    ZMAT    AOBASIS   BASIS     P2S    ABASIS      S 
                                         1400     1410     1200     1210     1080     1600     1650     1300     1700     1800   
                                           T        V       H0       H01     AOSYM     SMH    MOLCAS    ERIS     OPER     GRID   

              2       5        3.01       700     1000      520     1800     2100   
                                         GEOM     BASIS   MCVARS    GRID      RKS  

 PROGRAMS   *        TOTAL      IBBA        KS       INT
 CPU TIMES  *         7.17      0.03      6.61      0.38
 REAL TIME  *         7.79 SEC
 DISK USED  *        35.98 MB      
 **********************************************************************************************************************************
 Molecular orbitals read from record     2100.2  Type=RKS/LOCAL(IBO)  
 Occupation numbers read from record     2100.2  Type=RKS/LOCAL(IBO)  
 Orbital energies read from record       2100.2  Type=RKS/LOCAL(IBO)  
 Redundancy group numbers read from rec  2100.2  Type=RKS/LOCAL(IBO)  

 IBBA/STO-3G energy=      0.000000000000

        KS-SCF  
   -151.71362466
 **********************************************************************************************************************************
 Molpro calculation terminated
