
 Primary working directories    : /local
 Secondary working directories  : /local
 Wavefunction directory         : /local/
 Main file repository           : /local/

 SHA1      : b4a5b34a9e711420743f49e6833241d17c61fb3c
 NAME      : 2099.9.b4a5b34
 ARCHNAME  : linux/x86_64_openmp
 FC        : /cm/shared/languages/GCC-6.1/bin/gfortran
 BLASLIB   : -lblas
 id        : simonbennie

 Nodes     nprocs
 node33-045    1

 Using customized tuning parameters: mindgm=1; mindgv=20; mindgc=4; mindgr=1; noblas=0; minvec=7
 default implementation of scratch files=df  

 memory,500,m
 geomtyp=xyz
 nosym
 noorient
 geometry={
 C         -1.53233        0.02247        0.00000
 C         -0.00192        0.01421        0.00000
 O          0.37239        1.40356        0.00000
 H          1.34248        1.44036        0.00000
 H         -1.92991       -0.99819        0.00000
 H         -1.90797        0.54382       -0.88653
 H         -1.90797        0.54382        0.88653
 C          0.54303       -0.66466       -1.26580
 C          0.54303       -0.66466        1.26580
 H          0.17836       -0.14752       -2.15943
 H          0.17836       -0.14752        2.15943
 H          0.23752       -1.71600       -1.32280
 H          0.23752       -1.71600        1.32280
 H          1.64084       -0.63767       -1.28032
 H          1.64084       -0.63767        1.28032
 }
 basis={ default,avtz }
 {ks,PBE,direct;wf,42,1,0}
 {ibba,bonds=1}

 Variables initialized (895), CPU time= 0.01 sec
 Commands  initialized (725), CPU time= 0.01 sec, 591 directives.
 Default parameters read. Elapsed time= 0.94 sec

 Checking input...
 Passed
1


                                         ***  PROGRAM SYSTEM MOLPRO  ***
                                       Copyright, TTI GmbH Stuttgart, 2015
                                    Version 2099.9 linked May 26 2017 16:03:21


 **********************************************************************************************************************************
 LABEL *                                                                                 
  64 bit serial version                                                                  DATE: 12-Jun-17          TIME: 14:18:33  
 **********************************************************************************************************************************

 SHA1:             b4a5b34a9e711420743f49e6833241d17c61fb3c
 **********************************************************************************************************************************
 SETTING GEOMTYP        =    XYZ

 Variable memory set to  500000000 words,  buffer space 

 ZSYMEL=NOSYM

 SETTING BASIS          =    AVTZ


 Recomputing integrals since basis changed


 Using spherical harmonics

 Library entry C      S aug-cc-pVTZ          selected for orbital group  1
 Library entry C      P aug-cc-pVTZ          selected for orbital group  1
 Library entry C      D aug-cc-pVTZ          selected for orbital group  1
 Library entry C      F aug-cc-pVTZ          selected for orbital group  1
 Library entry O      S aug-cc-pVTZ          selected for orbital group  2
 Library entry O      P aug-cc-pVTZ          selected for orbital group  2
 Library entry O      D aug-cc-pVTZ          selected for orbital group  2
 Library entry O      F aug-cc-pVTZ          selected for orbital group  2
 Library entry H      S aug-cc-pVTZ          selected for orbital group  3
 Library entry H      P aug-cc-pVTZ          selected for orbital group  3
 Library entry H      D aug-cc-pVTZ          selected for orbital group  3


 PROGRAM * SEWARD (Integral evaluation for generally contracted gaussian basis sets)     Author: Roland Lindh, 1990

 Geometry written to block  1 of record 700


 Point group  C1  



 ATOMIC COORDINATES

 NR  ATOM    CHARGE       X              Y              Z

   1  C       6.00   -2.895684032    0.042462146    0.000000000
   2  C       6.00   -0.003628274    0.026853008    0.000000000
   3  O       8.00    0.703715112    2.652343999    0.000000000
   4  H       1.00    2.536919528    2.721885921    0.000000000
   5  H       1.00   -3.647001345   -1.886305720    0.000000000
   6  H       1.00   -3.605540754    1.027670861   -1.675298901
   7  H       1.00   -3.605540754    1.027670861    1.675298901
   8  C       6.00    1.026177977   -1.256025366   -2.392015328
   9  C       6.00    1.026177977   -1.256025366    2.392015328
  10  H       1.00    0.337051552   -0.278772398   -4.080731285
  11  H       1.00    0.337051552   -0.278772398    4.080731285
  12  H       1.00    0.448847749   -3.242770030   -2.499729718
  13  H       1.00    0.448847749   -3.242770030    2.499729718
  14  H       1.00    3.100738214   -1.205021658   -2.419454152
  15  H       1.00    3.100738214   -1.205021658    2.419454152

 Bond lengths in Bohr (Angstrom)

 1-2  2.892097881  1-5  2.069933136  1-6  2.069096224  1-7  2.069096224  2-3  2.719106031
     ( 1.530432290)     ( 1.095361444)     ( 1.094918569)     ( 1.094918569)     ( 1.438888946)

  2- 8  2.903104402   2- 9  2.903104402   3- 4  1.834522965   8-10  2.069222119   8-12  2.071730422
       ( 1.536256691)       ( 1.536256691)       ( 0.970787746)       ( 1.094985190)       ( 1.096312526)

  8-14  2.075368508   9-11  2.069222119   9-13  2.071730422   9-15  2.075368508
       ( 1.098237719)       ( 1.094985190)       ( 1.096312526)       ( 1.098237719)

 Bond angles

  1-2-3  104.76902697   1-2-8  110.92255387   1-2-9  110.92255387   2-1-5  110.97328220

  2- 1- 6  110.22090701   2- 1- 7  110.22090701   2- 3- 4  107.25071562   2- 8-10  110.21836376

  2- 8-12  111.57747468   2- 8-14  110.77023896   2- 9-11  110.21836376   2- 9-13  111.57747468

  2- 9-15  110.77023896   3- 2- 8  109.53648747   3- 2- 9  109.53648747   5- 1- 6  108.61190457

  5- 1- 7  108.61190457   6- 1- 7  108.12870271   8- 2- 9  110.96453384  10- 8-12  108.52192632

 10- 8-14  108.08997829  11- 9-13  108.52192632  11- 9-15  108.08997829  12- 8-14  107.54424578

 13- 9-15  107.54424578

 NUCLEAR CHARGE:                   42
 NUMBER OF PRIMITIVE AOS:         605
 NUMBER OF SYMMETRY AOS:          540
 NUMBER OF CONTRACTIONS:          460   ( 460A   )
 NUMBER OF CORE ORBITALS:           5   (   5A   )
 NUMBER OF VALENCE ORBITALS:       30   (  30A   )


 NUCLEAR REPULSION ENERGY  198.77359127


 Eigenvalues of metric

         1 0.351E-05 0.596E-05 0.770E-05 0.977E-05 0.161E-04 0.173E-04 0.207E-04 0.297E-04


 Contracted 2-electron integrals neglected if value below      1.0D-12
 AO integral compression algorithm  1   Integral accuracy      1.0D-12

     24892.932 MB (compressed) written to integral file ( 51.7%)


 NUMBER OF SORTED TWO-ELECTRON INTEGRALS: 5621233465.     BUFFER LENGTH:  32768
 NUMBER OF SEGMENTS: 176  SEGMENT LENGTH:   31999951      RECORD LENGTH: 131072

 Memory used in sort:      32.16 MW

 SORT1 READ  6020115514. AND WROTE  5366777799. INTEGRALS IN  61513 RECORDS. CPU TIME:    88.56 SEC, REAL TIME:  6190.99 SEC
 SORT2 READ  5366777799. AND WROTE  5621233465. INTEGRALS IN  94959 RECORDS. CPU TIME:   141.41 SEC, REAL TIME:  6428.66 SEC

 FILE SIZES:   FILE 1: 24930.9 MBYTE,  FILE 4: 64501.1 MBYTE,   TOTAL:  89432.0 MBYTE

 OPERATOR DM      FOR CENTER  0  COORDINATES:    0.000000    0.000000    0.000000


 **********************************************************************************************************************************
 DATASETS  * FILE   NREC   LENGTH (MB)   RECORD NAMES
              1      19    23757.53       500      610      700      900      950      970     1000      129      960     1100   
                                          VAR    BASINP    GEOM    SYMINP    ZMAT    AOBASIS   BASIS     P2S    ABASIS      S 
                                         1400     1410     1200     1210     1080     1600     1650     1300     1700   
                                           T        V       H0       H01     AOSYM     SMH    MOLCAS    ERIS     OPER   

 PROGRAMS   *        TOTAL       INT
 CPU TIMES  *       454.65    454.51
 REAL TIME  *     13757.60 SEC
 DISK USED  *        89.43 GB      
 **********************************************************************************************************************************

 Density functional group PBE=PBEX+PBEC
 Functional: PBEX(Automatically generated (new) PBEX)                          Gradient terms: 1
 Functional: PBEC(Automatically generated (new) PBEC)                          Gradient terms: 1
 Use grid at  1800.2

 Functional: PBEX                      Factor:  1.0000
 Functional: PBEC                      Factor:  1.0000

 Generated new metagrid on record  1800.2 with target accuracy 1.0D-06 and 55396 points in CPU time    1.7
 Computed new grid on record 1800.1 in CPU time    1.9
  370324 words reserved for DFT integration

 PROGRAM * RKS-SCF (Restricted closed shell Kohn-Sham)     Authors: W. Meyer, H.-J. Werner, P.J. Knowles, 1993

 NUMBER OF ELECTRONS:      21+   21-    SPACE SYMMETRY=1    SPIN SYMMETRY: Singlet 
 CONVERGENCE THRESHOLDS:    1.00E-05 (Density)    1.00E-06 (Energy)
 MAX. NUMBER OF ITERATIONS:       60
 INTERPOLATION TYPE:            DIIS
 INTERPOLATION STEPS:              2 (START)      1 (STEP)
 LEVEL SHIFTS:                  0.00 (CLOSED)  0.00 (OPEN) 



 Use fine grid record 1800.2 for energy threshold  1.0D-06
 Orbital guess generated from atomic densities. Full valence occupancy:   35

 Molecular orbital dump at record        2100.2

 Initial occupancy:  21

 ITERATION    DDIFF          GRAD             ENERGY        2-EL.EN.            DIPOLE MOMENTS         DIIS   ORB.
    1      0.000D+00      0.000D+00      -233.15022736    640.174668    0.69072   -0.76091    0.00000    0    start
    2      0.000D+00      0.574D-02      -232.52013649    586.840849   -0.76895    0.14389    0.00000    1    diag
    3      0.144D-01      0.989D-02      -233.43597070    624.185692    0.41827   -0.76328    0.00000    2    diag
    4      0.923D-02      0.156D-02      -233.45190532    621.852120    0.32547   -0.40186    0.00000    3    diag
    5      0.149D-02      0.579D-03      -233.45408367    621.500769    0.31120   -0.54474    0.00000    4    diag
    6      0.541D-03      0.201D-03      -233.45438180    621.723452    0.31666   -0.51057    0.00000    5    diag
    7      0.165D-03      0.565D-04      -233.45440347    621.717324    0.32078   -0.50879    0.00000    6    diag
    8      0.474D-04      0.769D-05      -233.45440402    621.737137    0.31949   -0.51406    0.00000    7    diag
    9      0.901D-05      0.239D-05      -233.45440401    621.735141    0.32046   -0.51095    0.00000    0    orth

 Final occupancy:  21

 !RKS STATE 1.1 Energy               -233.454404007911
 Nuclear energy                       198.77359127
 One-electron energy                 -709.38679315
 Two-electron energy                  310.86757029
 Density functional                   -33.70877243     PBEX=-32.34410110 PBEC= -1.36467132
 Virial quotient                       -1.00635607
 !RKS STATE 1.1 Dipole moment           0.32045788    -0.51095257     0.00000000
 Dipole moment /Debye                   0.81446935    -1.29862684     0.00000000

 Orbital energies:

         1.1          2.1          3.1          4.1          5.1          6.1          7.1          8.1          9.1         10.1
    -18.750211    -9.946367    -9.876677    -9.876653    -9.872033    -0.932890    -0.716503    -0.625678    -0.625049    -0.514560

        11.1         12.1         13.1         14.1         15.1         16.1         17.1         18.1         19.1         20.1
     -0.440624    -0.404950    -0.402220    -0.366679    -0.353167    -0.337156    -0.323348    -0.312834    -0.306221    -0.279754

        21.1         22.1         23.1
     -0.227199    -0.027612    -0.000906

 HOMO     21.1    -0.227199 =      -6.1824eV
 LUMO     22.1    -0.027612 =      -0.7514eV
 LUMO-HOMO         0.199587 =       5.4310eV


 **********************************************************************************************************************************
 DATASETS  * FILE   NREC   LENGTH (MB)   RECORD NAMES
              1      20    23759.30       500      610      700      900      950      970     1000      129      960     1100   
                                          VAR    BASINP    GEOM    SYMINP    ZMAT    AOBASIS   BASIS     P2S    ABASIS      S 
                                         1400     1410     1200     1210     1080     1600     1650     1300     1700     1800   
                                           T        V       H0       H01     AOSYM     SMH    MOLCAS    ERIS     OPER     GRID   

              2       5        7.31       700     1000      520     1800     2100   
                                         GEOM     BASIS   MCVARS    GRID      RKS  

 PROGRAMS   *        TOTAL        KS       INT
 CPU TIMES  *       918.68    464.03    454.51
 REAL TIME  *     23383.46 SEC
 DISK USED  *        89.43 GB      
 **********************************************************************************************************************************


 PROGRAM * Intrinsic Basis Bonding Analysis (IBBA)          Author: G. Knizia

 Molecular orbitals read from record     2100.2  Type=RKS/CANONICAL (state 1.1)
 Fock matrix read from record            2100.2  Type=RKS/TOTAL (state 1.1)
 Orbital energies read from record       2100.2  Type=RKS/CANONICAL (state 1.1)
 Density matrix read from record         2100.2  Type=RKS/CHARGE (state 1.1)

 Number of core orbitals:           5 (   5 )
 Number of closed-shell orbitals:  16 (  16 )

 Basis set MINAO-AUTO-PP generated.      Number of basis functions:   35 

 Polarized AO type:                A = (O Ot + (1-O)(1-Ot)) P12
 Orthogonalization method:         Symmetric (Loewdin)
 Localization functional:          L = sum[A,i] <i|n_A|i>^4 -> max

 Localization group 1:  21 orbitals, occupancy  2.000
 Iterative localization: IB/PM,    7 iter; Final gradient 0.42E-08

 Bond order analysis:       [THRPRINT= 0.020]

   CEN ATOM   CEN ATOM     WIBERG.BO      RENORM.BO
     1   C  -   2   C       0.996545       0.993080
     1   C  -   5   H       0.959483       0.986075
     1   C  -   6   H       0.954661       0.979570
     1   C  -   7   H       0.954661       0.979570

     2   C  -   1   C       0.996545       0.993080
     2   C  -   9   C       0.995137       0.973790
     2   C  -   8   C       0.995137       0.973790
     2   C  -   3   O       0.936938       0.943826

     3   O  -   2   C       0.936938       0.943826
     3   O  -   4   H       0.859136       0.973232
     3   O  -   8   C       0.030573       0.015639
     3   O  -   9   C       0.030573       0.015639

     4   H  -   3   O       0.859136       0.973232

     5   H  -   1   C       0.959483       0.986075

     6   H  -   1   C       0.954661       0.979570

     7   H  -   1   C       0.954661       0.979570

     8   C  -   2   C       0.995137       0.973790
     8   C  -  14   H       0.958874       0.980460
     8   C  -  10   H       0.955242       0.979391
     8   C  -  12   H       0.954580       0.978800
     8   C  -   3   O       0.030573       0.015639

     9   C  -   2   C       0.995137       0.973790
     9   C  -  15   H       0.958874       0.980460
     9   C  -  11   H       0.955242       0.979391
     9   C  -  13   H       0.954580       0.978800
     9   C  -   3   O       0.030573       0.015639

    10   H  -   8   C       0.955242       0.979391

    11   H  -   9   C       0.955242       0.979391

    12   H  -   8   C       0.954580       0.978800

    13   H  -   9   C       0.954580       0.978800

    14   H  -   8   C       0.958874       0.980460

    15   H  -   9   C       0.958874       0.980460


 Valency analysis:

   CEN ATOM   TOT.VALENCE
     1   C       3.931103
     2   C       3.934818
     3   O       1.932452
     4   H       0.880984
     5   H       0.979828
     6   H       0.977372
     7   H       0.977372
     8   C       3.933754
     9   C       3.933754
    10   H       0.977419
    11   H       0.977419
    12   H       0.979224
    13   H       0.979224
    14   H       0.981546
    15   H       0.981546

 Total charge composition:

   CEN ATOM         s          p       ELECTRONS ->P.CHARGE
     1   C       3.04722    3.38763      6.43485   -0.43485
     2   C       2.94137    2.81242      5.75379    0.24621
     3   O       3.65350    4.90910      8.56260   -0.56260
     4   H       0.65501                 0.65501    0.34499
     5   H       0.85797                 0.85797    0.14203
     6   H       0.84957                 0.84957    0.15043
     7   H       0.84957                 0.84957    0.15043
     8   C       3.05421    3.39436      6.44857   -0.44857
     9   C       3.05421    3.39436      6.44857   -0.44857
    10   H       0.84973                 0.84973    0.15027
    11   H       0.84973                 0.84973    0.15027
    12   H       0.85586                 0.85586    0.14414
    13   H       0.85586                 0.85586    0.14414
    14   H       0.86415                 0.86415    0.13585
    15   H       0.86415                 0.86415    0.13585

 Total charge composition, AO contributions:

   CEN ATOM SHL      SPHERICAL COMPONENTS
     1   C  1s       1.99140
     1   C  2s       1.05581
     1   C  2p       1.04032    1.16753    1.17978

     2   C  1s       1.99302
     2   C  2s       0.94836
     2   C  2p       1.00800    0.79300    1.01142

     3   O  1s       1.99721
     3   O  2s       1.65629
     3   O  2p       1.47291    1.48509    1.95109

     4   H  1s       0.65501

     5   H  1s       0.85797

     6   H  1s       0.84957

     7   H  1s       0.84957

     8   C  1s       1.99150
     8   C  2s       1.06271
     8   C  2p       1.14923    1.14850    1.09662

     9   C  1s       1.99150
     9   C  2s       1.06271
     9   C  2p       1.14923    1.14850    1.09662

    10   H  1s       0.84973

    11   H  1s       0.84973

    12   H  1s       0.85586

    13   H  1s       0.85586

    14   H  1s       0.86415

    15   H  1s       0.86415

 Summary of localized orbital composition:   [THRPRINT= 0.020]

   ORB  GRP  ORB.ENERGY      CENTERS/CHARGES
     1   1   -18.595911      O  3   2.000
     2   1    -9.856987      C  2   2.000
     3   1    -9.764476      C  9   2.000
     4   1    -9.764476      C  8   2.000
     5   1    -9.759085      C  1   2.000
     6   1    -0.698804      O  3   1.348   H  4   0.642
     7   1    -0.657260      O  3   1.279   C  2   0.701
     8   1    -0.521264      C  8   1.007   C  2   0.977
     9   1    -0.521264      C  9   1.007   C  2   0.977
    10   1    -0.521030      C  1   0.990   C  2   0.984   (other: 0.025)
    11   1    -0.515570      O  3   1.980
    12   1    -0.455382      C  9   1.139   H 13   0.845
    13   1    -0.455382      C  8   1.139   H 12   0.845
    14   1    -0.453851      C  9   1.131   H 15   0.856
    15   1    -0.453851      C  8   1.131   H 14   0.856
    16   1    -0.451546      C  1   1.135   H  5   0.850
    17   1    -0.449603      C  8   1.148   H 10   0.841
    18   1    -0.449603      C  9   1.148   H 11   0.841
    19   1    -0.445425      C  1   1.147   H  7   0.841
    20   1    -0.445425      C  1   1.147   H  6   0.841
    21   1    -0.254578      O  3   1.951   (other: 0.049)

 Localized orbitals saved to record      2100.2  (orbital set 2)


 **********************************************************************************************************************************
 DATASETS  * FILE   NREC   LENGTH (MB)   RECORD NAMES
              1      20    23759.30       500      610      700      900      950      970     1000      129      960     1100   
                                          VAR    BASINP    GEOM    SYMINP    ZMAT    AOBASIS   BASIS     P2S    ABASIS      S 
                                         1400     1410     1200     1210     1080     1600     1650     1300     1700     1800   
                                           T        V       H0       H01     AOSYM     SMH    MOLCAS    ERIS     OPER     GRID   

              2       5        9.01       700     1000      520     1800     2100   
                                         GEOM     BASIS   MCVARS    GRID      RKS  

 PROGRAMS   *        TOTAL      IBBA        KS       INT
 CPU TIMES  *       918.96      0.27    464.03    454.51
 REAL TIME  *     23385.26 SEC
 DISK USED  *        89.43 GB      
 **********************************************************************************************************************************
 Molecular orbitals read from record     2100.2  Type=RKS/LOCAL(IBO)  
 Occupation numbers read from record     2100.2  Type=RKS/LOCAL(IBO)  
 Orbital energies read from record       2100.2  Type=RKS/LOCAL(IBO)  
 Redundancy group numbers read from rec  2100.2  Type=RKS/LOCAL(IBO)  

 IBBA/aug-cc-pVTZ energy=      0.000000000000

        KS-SCF  
   -233.45440401
 **********************************************************************************************************************************
 Molpro calculation terminated
