
 Primary working directories    : /tmp/sb13343
 Secondary working directories  : /tmp/sb13343
 Wavefunction directory         : /panfs/panasas01/chem/sb13343/wfu/
 Main file repository           : /tmp/sb13343/

 SHA1      : b4a5b34a9e711420743f49e6833241d17c61fb3c
 NAME      : 2099.9.b4a5b34
 ARCHNAME  : linux/x86_64_openmp
 FC        : /cm/shared/languages/GCC-6.1/bin/gfortran
 BLASLIB   : -lblas
 id        : simonbennie

 Nodes     nprocs
 node32-030    1

 Using customized tuning parameters: mindgm=1; mindgv=20; mindgc=4; mindgr=1; noblas=0; minvec=7
 default implementation of scratch files=df  

 memory,500,m
 geomtyp=xyz
 nosym
 noorient
 geometry={
 H         -1.13405        1.76167        0.00000
 C         -1.32915        0.67205        0.00000
 C         -0.06360       -0.12883        0.00000
 C          0.67426       -0.31636        1.28970
 C          0.67426       -0.31636       -1.28970
 H         -1.94006        0.46750        0.88859
 H         -1.94006        0.46750       -0.88859
 H          1.28359        0.56876        1.55544
 H         -0.01165       -0.48291        2.13019
 H          1.36783       -1.16569        1.24157
 H          1.28359        0.56876       -1.55544
 H         -0.01165       -0.48291       -2.13019
 H          1.36783       -1.16569       -1.24157
 }
 basis={ default,sto-3g }
 {uks,B-VWN,direct;wf,33,1,1}
 {ibba,bonds=1}

 Variables initialized (895), CPU time= 0.00 sec
 Commands  initialized (725), CPU time= 0.02 sec, 591 directives.
 Default parameters read. Elapsed time= 0.08 sec

 Checking input...
 Passed
1


                                         ***  PROGRAM SYSTEM MOLPRO  ***
                                       Copyright, TTI GmbH Stuttgart, 2015
                                    Version 2099.9 linked May 26 2017 16:03:21


 **********************************************************************************************************************************
 LABEL *                                                                                 
  64 bit serial version                                                                  DATE: 08-Jun-17          TIME: 20:17:29  
 **********************************************************************************************************************************

 SHA1:             b4a5b34a9e711420743f49e6833241d17c61fb3c
 **********************************************************************************************************************************
 SETTING GEOMTYP        =    XYZ

 Variable memory set to  500000000 words,  buffer space 

 ZSYMEL=NOSYM

 SETTING BASIS          =    STO-3G


 Recomputing integrals since basis changed


 Using spherical harmonics

 Library entry H      S STO-3G               selected for orbital group  1
 Library entry C      S STO-3G               selected for orbital group  2
 Library entry C      P STO-3G               selected for orbital group  2


 PROGRAM * SEWARD (Integral evaluation for generally contracted gaussian basis sets)     Author: Roland Lindh, 1990

 Geometry written to block  1 of record 700


 Point group  C1  



 ATOMIC COORDINATES

 NR  ATOM    CHARGE       X              Y              Z

   1  H       1.00   -2.143043912    3.329073822    0.000000000
   2  C       6.00   -2.511729478    1.269990442    0.000000000
   3  C       6.00   -0.120186582   -0.243453417    0.000000000
   4  C       6.00    1.274166737   -0.597833757    2.437179783
   5  C       6.00    1.274166737   -0.597833757   -2.437179783
   6  H       1.00   -3.666182065    0.883446963    1.679191737
   7  H       1.00   -3.666182065    0.883446963   -1.679191737
   8  H       1.00    2.425633556    1.074800631    2.939355603
   9  H       1.00   -0.022015309   -0.912567643    4.025475693
  10  H       1.00    2.584824085   -2.202834846    2.346227264
  11  H       1.00    2.425633556    1.074800631   -2.939355603
  12  H       1.00   -0.022015309   -0.912567643   -4.025475693
  13  H       1.00    2.584824085   -2.202834846   -2.346227264

 Bond lengths in Bohr (Angstrom)

 1-2  2.091830159  2-3  2.830192527  2-6  2.074092940  2-7  2.074092940  3-4  2.830132841
     ( 1.106948849)     ( 1.497673388)     ( 1.097562717)     ( 1.097562717)     ( 1.497641803)

  3- 5  2.830132841   4- 8  2.091832255   4- 9  2.074085151   4-10  2.074156104   5-11  2.091832255
       ( 1.497641803)       ( 1.106949959)       ( 1.097558596)       ( 1.097596142)       ( 1.106949959)

  5-12  2.074085151   5-13  2.074156104
       ( 1.097558596)       ( 1.097596142)

 Bond angles

  1-2-3  112.17549786   1-2-6  106.35284965   1-2-7  106.35284965   2-3-4  118.89987932

  2-3-5  118.89987932   3-2-6  111.75744418   3-2-7  111.75744418   3-4-8  112.19808176

  3- 4- 9  111.75014522   3- 4-10  111.74379558   3- 5-11  112.19808176   3- 5-12  111.75014522

  3- 5-13  111.74379558   4- 3- 5  118.89276928   6- 2- 7  108.11431090   8- 4- 9  106.34995457

  8- 4-10  106.34572146   9- 4-10  108.12296896  11- 5-12  106.34995457  11- 5-13  106.34572146

 12- 5-13  108.12296896

 NUCLEAR CHARGE:                   33
 NUMBER OF PRIMITIVE AOS:          87
 NUMBER OF SYMMETRY AOS:           87
 NUMBER OF CONTRACTIONS:           29   (  29A   )
 NUMBER OF CORE ORBITALS:           4   (   4A   )
 NUMBER OF VALENCE ORBITALS:       25   (  25A   )


 NUCLEAR REPULSION ENERGY  124.92676597


 Eigenvalues of metric

         1 0.210E+00 0.225E+00 0.225E+00 0.315E+00 0.353E+00 0.353E+00 0.362E+00 0.372E+00


 Contracted 2-electron integrals neglected if value below      1.0D-11
 AO integral compression algorithm  1   Integral accuracy      1.0D-11

     0.786 MB (compressed) written to integral file (100.0%)


 NUMBER OF SORTED TWO-ELECTRON INTEGRALS:      94830.     BUFFER LENGTH:  32768
 NUMBER OF SEGMENTS:   1  SEGMENT LENGTH:      94830      RECORD LENGTH: 524288

 Memory used in sort:       0.65 MW

 SORT1 READ      108770. AND WROTE       91348. INTEGRALS IN      1 RECORDS. CPU TIME:     0.01 SEC, REAL TIME:     0.01 SEC
 SORT2 READ       91348. AND WROTE       94830. INTEGRALS IN      3 RECORDS. CPU TIME:     0.01 SEC, REAL TIME:     0.01 SEC

 FILE SIZES:   FILE 1:    31.0 MBYTE,  FILE 4:     4.2 MBYTE,   TOTAL:     35.2 MBYTE

 OPERATOR DM      FOR CENTER  0  COORDINATES:    0.000000    0.000000    0.000000


 **********************************************************************************************************************************
 DATASETS  * FILE   NREC   LENGTH (MB)   RECORD NAMES
              1      19       30.62       500      610      700      900      950      970     1000      129      960     1100   
                                          VAR    BASINP    GEOM    SYMINP    ZMAT    AOBASIS   BASIS     P2S    ABASIS      S 
                                         1400     1410     1200     1210     1080     1600     1650     1300     1700   
                                           T        V       H0       H01     AOSYM     SMH    MOLCAS    ERIS     OPER   

 PROGRAMS   *        TOTAL       INT
 CPU TIMES  *         0.47      0.32
 REAL TIME  *         0.76 SEC
 DISK USED  *        35.68 MB      
 **********************************************************************************************************************************

 Density functional group B-VWN=B88+VWN5
 Functional: B88(Automatically generated (new) B88)                            Gradient terms: 1
 Functional: VWN5(Automatically generated (new) VWN5)                          Gradient terms: 0
 Use grid at  1800.2

 Functional: B88                       Factor:  1.0000
 Functional: VWN5                      Factor:  1.0000

 Generated new metagrid on record  1800.2 with target accuracy 1.0D-06 and 45406 points in CPU time    1.4
 Computed new grid on record 1800.1 in CPU time    1.5
   27459 words reserved for DFT integration

 PROGRAM * UKS-SCF (Unrestricted Kohn-Sham)     Authors: W. Meyer, H.-J. Werner, P.J. Knowles, 1993

 NUMBER OF ELECTRONS:      17+   16-    SPACE SYMMETRY=1    SPIN SYMMETRY: Doublet 
 CONVERGENCE THRESHOLDS:    1.00E-05 (Density)    1.00E-06 (Energy)
 MAX. NUMBER OF ITERATIONS:       60
 INTERPOLATION TYPE:            DIIS
 INTERPOLATION STEPS:              2 (START)      1 (STEP)
 LEVEL SHIFTS:                 -0.20 (ALPHA)  -0.20 (BETA) 



 Use fine grid record 1800.2 for energy threshold  1.0D-06
 Orbital guess generated from atomic densities. Full valence occupancy:   17

 Molecular orbital dump at record        2200.2

 Initial alpha occupation  17
 Initial beta  occupation  16

 ITERATION    DDIFF          GRAD             ENERGY        2-EL.EN.            DIPOLE MOMENTS         DIIS
    1      0.000D+00      0.000D+00      -156.51442103    412.635130    0.20382    0.41214   -0.00000    0
    2      0.622D-01      0.208D-01      -156.76776694    398.983720    0.02398    0.04856   -0.00000    1
    3      0.104D-01      0.431D-02      -156.77835573    401.044538    0.04009    0.08115   -0.00000    2
    4      0.163D-02      0.851D-03      -156.77921951    401.023994    0.03824    0.07742   -0.00000    3
    5      0.785D-03      0.449D-03      -156.77943010    401.026775    0.03578    0.07244   -0.00000    4
    6      0.319D-03      0.108D-03      -156.77944867    401.020168    0.03532    0.07151   -0.00000    5
    7      0.354D-04      0.141D-04      -156.77944891    401.019995    0.03527    0.07140   -0.00000    6
    8      0.567D-05      0.241D-05      -156.77944892    401.020058    0.03527    0.07141   -0.00000    5
    9      0.783D-06      0.455D-06      -156.77944892    401.019996    0.03527    0.07140   -0.00000    5

 Final alpha occupancy:  17
 Final beta  occupancy:  16

 !UKS STATE 1.1 Energy               -156.779448923629
 Nuclear energy                       124.92676597
 One-electron energy                 -456.25688306
 Two-electron energy                  200.50999825
 Density functional                   -25.95933009     B88=-23.92349848 VWN5= -2.03583161
 Virial quotient                       -1.02206762
 !UKS STATE 1.1 Dipole moment           0.03526966     0.07140312    -0.00000000
 Dipole moment /Debye                   0.08964065     0.18147674    -0.00000000

 Orbital energies for positive spin:

         1.1          2.1          3.1          4.1          5.1          6.1          7.1          8.1          9.1         10.1
     -9.790879    -9.790873    -9.790871    -9.768839    -0.696631    -0.600459    -0.600451    -0.456382    -0.369508    -0.367777

        11.1         12.1         13.1         14.1         15.1         16.1         17.1         18.1         19.1
     -0.367777    -0.320525    -0.320492    -0.304288    -0.273083    -0.273080    -0.080935     0.317600     0.317608

 Orbital energies for negative spin:

         1.1          2.1          3.1          4.1          5.1          6.1          7.1          8.1          9.1         10.1
     -9.791636    -9.791631    -9.791612    -9.756177    -0.681852    -0.599073    -0.599066    -0.439176    -0.364682    -0.364679

        11.1         12.1         13.1         14.1         15.1         16.1         17.1         18.1         19.1
     -0.356591    -0.317724    -0.317692    -0.303897    -0.267718    -0.267712     0.017675     0.321361     0.321368

 HOMO     17.1    -0.080935 =      -2.2024eV
 LUMO    -17.1     0.017675 =       0.4810eV
 LUMO-HOMO         0.098610 =       2.6833eV

 EXPECTATION VALUE OF S**2:             0.75314930

 Occupation number threshold for canonical orbitals:  1.999000 (occupied),  0.001000 (virtual)

 Number of pseudo-canonical orbitals per symmetry:   16
 Number of active natural orbitals per symmetry:      1

 Natural orbitals saved to record    2200.2 (Orbital set 3)

 Orbital spaces for UNO-CAS (Min. occupation: 0.020  Max. occupation: 1.980):

 Closed:       16
 Active:        1


 **********************************************************************************************************************************
 DATASETS  * FILE   NREC   LENGTH (MB)   RECORD NAMES
              1      20       32.07       500      610      700      900      950      970     1000      129      960     1100   
                                          VAR    BASINP    GEOM    SYMINP    ZMAT    AOBASIS   BASIS     P2S    ABASIS      S 
                                         1400     1410     1200     1210     1080     1600     1650     1300     1700     1800   
                                           T        V       H0       H01     AOSYM     SMH    MOLCAS    ERIS     OPER     GRID   

              2       5        3.00       700     1000      520     1800     2200   
                                         GEOM     BASIS   MCVARS    GRID      UKS  

 PROGRAMS   *        TOTAL       UKS       INT
 CPU TIMES  *         4.72      4.25      0.32
 REAL TIME  *         5.38 SEC
 DISK USED  *        35.68 MB      
 **********************************************************************************************************************************


 PROGRAM * Intrinsic Basis Bonding Analysis (IBBA)          Author: G. Knizia

 Molecular orbitals read from record     2200.2  Type=UKS/ALPHA (state 1.1)
 Fock matrix read from record            2200.2  Type=UKS/TOTAL (state 1.1)
 Orbital energies read from record       2200.2  Type=UKS/ALPHA (state 1.1)
 Density matrix read from record         2200.2  Type=UKS/CHARGE (state 1.1)

 Number of core orbitals:           4 (   4 )
 Number of closed-shell orbitals:  12 (  12 )
 Number of active  orbitals:        1 (   1 )

 Basis set MINAO-AUTO-PP generated.      Number of basis functions:   29 

 Polarized AO type:                A = (O Ot + (1-O)(1-Ot)) P12
 Orthogonalization method:         Symmetric (Loewdin)
 Localization functional:          L = sum[A,i] <i|n_A|i>^4 -> max

 Localization group 1:  16 orbitals, occupancy  2.000
 Iterative localization: IB/PM,    8 iter; Final gradient 0.34E-09

 Bond order analysis:       [THRPRINT= 0.020]

   CEN ATOM   CEN ATOM     WIBERG.BO      RENORM.BO
     1   H  -   2   C       0.902048       0.996983
     1   H  -   3   C       0.045952       0.184158

     2   C  -   3   C       1.104717       1.312691
     2   C  -   7   H       0.954531       0.989369
     2   C  -   6   H       0.954531       0.989369
     2   C  -   1   H       0.902048       0.996983

     3   C  -   2   C       1.104717       1.312691
     3   C  -   5   C       1.104705       1.312656
     3   C  -   4   C       1.104705       1.312656
     3   C  -   1   H       0.045952       0.184158
     3   C  -  11   H       0.045922       0.184037
     3   C  -   8   H       0.045922       0.184037

     4   C  -   3   C       1.104705       1.312656
     4   C  -   9   H       0.954578       0.989362
     4   C  -  10   H       0.954463       0.989380
     4   C  -   8   H       0.902079       0.996979

     5   C  -   3   C       1.104705       1.312656
     5   C  -  12   H       0.954578       0.989362
     5   C  -  13   H       0.954463       0.989380
     5   C  -  11   H       0.902079       0.996979

     6   H  -   2   C       0.954531       0.989369

     7   H  -   2   C       0.954531       0.989369

     8   H  -   4   C       0.902079       0.996979
     8   H  -   3   C       0.045922       0.184037

     9   H  -   4   C       0.954578       0.989362

    10   H  -   4   C       0.954463       0.989380

    11   H  -   5   C       0.902079       0.996979
    11   H  -   3   C       0.045922       0.184037

    12   H  -   5   C       0.954578       0.989362

    13   H  -   5   C       0.954463       0.989380


 Valency analysis:

   CEN ATOM   TOT.VALENCE
     1   H       0.969682
     2   C       3.948527
     3   C       3.507250
     4   C       3.948524
     5   C       3.948524
     6   H       0.981548
     7   H       0.981548
     8   H       0.969684
     9   H       0.981560
    10   H       0.981535
    11   H       0.969684
    12   H       0.981560
    13   H       0.981535
 Localization group 2:   1 orbitals, occupancy  1.000
 Iterative localization: IB/PM,    1 iter; Final gradient 0.00E+00

 Bond order analysis:       [THRPRINT= 0.020]

   CEN ATOM   CEN ATOM     WIBERG.BO      RENORM.BO
     1   H  -   3   C       0.075939       0.500000


     3   C  -   1   H       0.075939       0.500000
     3   C  -  11   H       0.075932       0.500000
     3   C  -   8   H       0.075932       0.500000





     8   H  -   3   C       0.075932       0.500000



    11   H  -   3   C       0.075932       0.500000




 Valency analysis:

   CEN ATOM   TOT.VALENCE
     1   H       0.093542
     2   C       0.014734
     3   C       0.352161
     4   C       0.014713
     5   C       0.014713
     6   H       0.019239
     7   H       0.019239
     8   H       0.093534
     9   H       0.019169
    10   H       0.019335
    11   H       0.093534
    12   H       0.019169
    13   H       0.019335

 Total charge composition:

   CEN ATOM         s          p       ELECTRONS ->P.CHARGE
     1   H       0.87507                 0.87507    0.12493
     2   C       2.98650    3.35217      6.33867   -0.33867
     3   C       3.01577    3.09974      6.11551   -0.11551
     4   C       2.98649    3.35218      6.33867   -0.33867
     5   C       2.98649    3.35218      6.33867   -0.33867
     6   H       0.87388                 0.87388    0.12612
     7   H       0.87388                 0.87388    0.12612
     8   H       0.87507                 0.87507    0.12493
     9   H       0.87389                 0.87389    0.12611
    10   H       0.87388                 0.87388    0.12612
    11   H       0.87507                 0.87507    0.12493
    12   H       0.87389                 0.87389    0.12611
    13   H       0.87388                 0.87388    0.12612

 Total charge composition, AO contributions:

   CEN ATOM SHL      SPHERICAL COMPONENTS
     1   H  1s       0.87507

     2   C  1s       1.99183
     2   C  2s       0.99467
     2   C  2p       1.08265    1.11019    1.15932

     3   C  1s       1.99312
     3   C  2s       1.02264
     3   C  2p       1.02775    1.05209    1.01991

     4   C  1s       1.99183
     4   C  2s       0.99466
     4   C  2p       1.12843    1.14264    1.08111

     5   C  1s       1.99183
     5   C  2s       0.99466
     5   C  2p       1.12843    1.14264    1.08111

     6   H  1s       0.87388

     7   H  1s       0.87388

     8   H  1s       0.87507

     9   H  1s       0.87389

    10   H  1s       0.87388

    11   H  1s       0.87507

    12   H  1s       0.87389

    13   H  1s       0.87388

 Active orbital charges:

   CEN ATOM         s          p       ELECTRONS ->SPIN.DEN
     1   H       0.04919                 0.04919    0.04919
     2   C       0.00017    0.00725      0.00742    0.00742
     3   C       0.01163    0.76025      0.77188    0.77188
     4   C       0.00017    0.00724      0.00741    0.00741
     5   C       0.00017    0.00724      0.00741    0.00741
     6   H       0.00971                 0.00971    0.00971
     7   H       0.00971                 0.00971    0.00971
     8   H       0.04919                 0.04919    0.04919
     9   H       0.00968                 0.00968    0.00968
    10   H       0.00976                 0.00976    0.00976
    11   H       0.04919                 0.04919    0.04919
    12   H       0.00968                 0.00968    0.00968
    13   H       0.00976                 0.00976    0.00976

 Active orbital charges, AO contributions:

   CEN ATOM SHL      SPHERICAL COMPONENTS
     1   H  1s       0.04919

     2   C  1s       0.00000
     2   C  2s       0.00017
     2   C  2p       0.00012    0.00714    0.00000

     3   C  1s       0.00002
     3   C  2s       0.01162
     3   C  2p       0.14878    0.61147    0.00000

     4   C  1s       0.00000
     4   C  2s       0.00017
     4   C  2p       0.00230    0.00437    0.00057

     5   C  1s       0.00000
     5   C  2s       0.00017
     5   C  2p       0.00230    0.00437    0.00057

     6   H  1s       0.00971

     7   H  1s       0.00971

     8   H  1s       0.04919

     9   H  1s       0.00968

    10   H  1s       0.00976

    11   H  1s       0.04919

    12   H  1s       0.00968

    13   H  1s       0.00976

 Summary of localized orbital composition:   [THRPRINT= 0.020]

   ORB  GRP  ORB.ENERGY      CENTERS/CHARGES
     1   1    -9.681140      C  2   2.000
     2   1    -9.681134      C  4   2.000
     3   1    -9.681134      C  5   2.000
     4   1    -9.664908      C  3   2.000
     5   1    -0.498561      C  3   1.007   C  4   0.981
     6   1    -0.498561      C  3   1.007   C  5   0.981
     7   1    -0.498541      C  3   1.007   C  2   0.981
     8   1    -0.429640      C  2   1.101   H  1   0.820   C  3   0.074
     9   1    -0.429636      C  5   1.101   H 11   0.820   C  3   0.074
    10   1    -0.429636      C  4   1.101   H  8   0.820   C  3   0.074
    11   1    -0.425920      C  2   1.120   H  7   0.858   (other: 0.022)
    12   1    -0.425920      C  2   1.120   H  6   0.858   (other: 0.022)
    13   1    -0.425919      C  5   1.120   H 12   0.858   (other: 0.022)
    14   1    -0.425919      C  4   1.120   H  9   0.858   (other: 0.022)
    15   1    -0.425895      C  5   1.120   H 13   0.858   (other: 0.022)
    16   1    -0.425895      C  4   1.120   H 10   0.858   (other: 0.022)
    17   2    -0.032252      C  3   0.772   H  1   0.049   H 11   0.049   H  8   0.049   (other: 0.081)

 Localized orbitals saved to record      2200.2  (orbital set 4)


 **********************************************************************************************************************************
 DATASETS  * FILE   NREC   LENGTH (MB)   RECORD NAMES
              1      20       32.07       500      610      700      900      950      970     1000      129      960     1100   
                                          VAR    BASINP    GEOM    SYMINP    ZMAT    AOBASIS   BASIS     P2S    ABASIS      S 
                                         1400     1410     1200     1210     1080     1600     1650     1300     1700     1800   
                                           T        V       H0       H01     AOSYM     SMH    MOLCAS    ERIS     OPER     GRID   

              2       5        3.01       700     1000      520     1800     2200   
                                         GEOM     BASIS   MCVARS    GRID      UKS  

 PROGRAMS   *        TOTAL      IBBA       UKS       INT
 CPU TIMES  *         4.74      0.02      4.25      0.32
 REAL TIME  *         5.85 SEC
 DISK USED  *        35.68 MB      
 **********************************************************************************************************************************
 Molecular orbitals read from record     2200.2  Type=UKS/LOCAL(IBO)  
 Occupation numbers read from record     2200.2  Type=UKS/LOCAL(IBO)  
 Orbital energies read from record       2200.2  Type=UKS/LOCAL(IBO)  
 Redundancy group numbers read from rec  2200.2  Type=UKS/BETA (state 1.1)

 IBBA/STO-3G energy=      0.000000000000

        UKS-SCF 
   -156.77944892
 **********************************************************************************************************************************
 Molpro calculation terminated
