
 Primary working directories    : /tmp/sb13343
 Secondary working directories  : /tmp/sb13343
 Wavefunction directory         : /panfs/panasas01/chem/sb13343/wfu/
 Main file repository           : /tmp/sb13343/

 SHA1      : b4a5b34a9e711420743f49e6833241d17c61fb3c
 NAME      : 2099.9.b4a5b34
 ARCHNAME  : linux/x86_64_openmp
 FC        : /cm/shared/languages/GCC-6.1/bin/gfortran
 BLASLIB   : -lblas
 id        : simonbennie

 Nodes     nprocs
 node32-034    1

 Using customized tuning parameters: mindgm=1; mindgv=20; mindgc=4; mindgr=1; noblas=0; minvec=7
 default implementation of scratch files=df  

 memory,500,m
 geomtyp=xyz
 nosym
 noorient
 geometry={
 C          0.00000        0.00000        0.00000
 H          0.00000        0.00000        1.10056
 C          1.46209        0.00000       -0.46855
 C         -0.73105       -1.26621       -0.46855
 C         -0.73105        1.26621       -0.46855
 H          1.52118        0.00000       -1.56505
 H         -0.76059       -1.31738       -1.56505
 H         -0.76059        1.31738       -1.56505
 H          1.99755        0.88622       -0.10723
 H          1.99755       -0.88622       -0.10723
 H         -0.23129       -2.17304       -0.10723
 H         -1.76626       -1.28682       -0.10723
 H         -1.76626        1.28682       -0.10723
 H         -0.23129        2.17304       -0.10723
 }
 basis={ default,svp }
 {uks,MM06-HF,direct;wf,34,1,0}
 {ibba,bonds=1}

 Variables initialized (895), CPU time= 0.00 sec
 Commands  initialized (725), CPU time= 0.01 sec, 591 directives.
 Default parameters read. Elapsed time= 0.08 sec

 Checking input...
 Passed
1


                                         ***  PROGRAM SYSTEM MOLPRO  ***
                                       Copyright, TTI GmbH Stuttgart, 2015
                                    Version 2099.9 linked May 26 2017 16:03:21


 **********************************************************************************************************************************
 LABEL *                                                                                 
  64 bit serial version                                                                  DATE: 09-Jun-17          TIME: 00:12:13  
 **********************************************************************************************************************************

 SHA1:             b4a5b34a9e711420743f49e6833241d17c61fb3c
 **********************************************************************************************************************************
 SETTING GEOMTYP        =    XYZ

 Variable memory set to  500000000 words,  buffer space 

 ZSYMEL=NOSYM

 SETTING BASIS          =    SVP


 Recomputing integrals since basis changed


 Using spherical harmonics

 Library entry C      S def2-SVP             selected for orbital group  1
 Library entry C      P def2-SVP             selected for orbital group  1
 Library entry C      D def2-SVP             selected for orbital group  1
 Library entry H      S def2-SVP             selected for orbital group  2
 Library entry H      P def2-SVP             selected for orbital group  2


 PROGRAM * SEWARD (Integral evaluation for generally contracted gaussian basis sets)     Author: Roland Lindh, 1990

 Geometry written to block  1 of record 700


 Point group  C1  



 ATOMIC COORDINATES

 NR  ATOM    CHARGE       X              Y              Z

   1  C       6.00    0.000000000    0.000000000    0.000000000
   2  H       1.00    0.000000000    0.000000000    2.079756984
   3  C       6.00    2.762949669    0.000000000   -0.885431176
   4  C       6.00   -1.381484283   -2.392790116   -0.885431176
   5  C       6.00   -1.381484283    2.392790116   -0.885431176
   6  H       1.00    2.874613586    0.000000000   -2.957515871
   7  H       1.00   -1.437306793   -2.489487402   -2.957515871
   8  H       1.00   -1.437306793    2.489487402   -2.957515871
   9  H       1.00    3.774822420    1.674713086   -0.202635332
  10  H       1.00    3.774822420   -1.674713086   -0.202635332
  11  H       1.00   -0.437074755   -4.106450458   -0.202635332
  12  H       1.00   -3.337747665   -2.431737372   -0.202635332
  13  H       1.00   -3.337747665    2.431737372   -0.202635332
  14  H       1.00   -0.437074755    4.106450458   -0.202635332

 Bond lengths in Bohr (Angstrom)

 1-2  2.079756984  1-3  2.901358172  1-4  2.901367218  1-5  2.901367218  3-6  2.075091279
     ( 1.100560000)     ( 1.535332625)     ( 1.535337412)     ( 1.535337412)     ( 1.098091015)

  3- 9  2.072380406   3-10  2.072380406   4- 7  2.075090722   4-11  2.072378172   4-12  2.072364222
       ( 1.096656483)       ( 1.096656483)       ( 1.098090721)       ( 1.096655301)       ( 1.096647919)

  5- 8  2.075090722   5-13  2.072364222   5-14  2.072378172
       ( 1.098090721)       ( 1.096647919)       ( 1.096655301)

 Bond angles

  1- 3- 6  110.85354902   1- 3- 9  111.37220114   1- 3-10  111.37220114   1- 4- 7  110.85320625

  1- 4-11  111.37204414   1- 4-12  111.37216555   1- 5- 8  110.85320625   1- 5-13  111.37216555

  1- 5-14  111.37204414   2- 1- 3  107.76888332   2- 1- 4  107.76882608   2- 1- 5  107.76882608

  3-1-4  111.11870751   3-1-5  111.11870751   4-1-5  111.11845005   6-3-9  107.62119374

  6- 3-10  107.62119374   7- 4-11  107.62125572   7- 4-12  107.62162102   8- 5-13  107.62162102

  8- 5-14  107.62125572   9- 3-10  107.82352924  11- 4-12  107.82360822  13- 5-14  107.82360822

 NUCLEAR CHARGE:                   34
 NUMBER OF PRIMITIVE AOS:         170
 NUMBER OF SYMMETRY AOS:          166
 NUMBER OF CONTRACTIONS:          106   ( 106A   )
 NUMBER OF CORE ORBITALS:           4   (   4A   )
 NUMBER OF VALENCE ORBITALS:       26   (  26A   )


 NUCLEAR REPULSION ENERGY  134.07051350


 Eigenvalues of metric

         1 0.225E-02 0.614E-02 0.614E-02 0.233E-01 0.256E-01 0.268E-01 0.268E-01 0.277E-01


 Contracted 2-electron integrals neglected if value below      1.0D-11
 AO integral compression algorithm  1   Integral accuracy      1.0D-11

     64.750 MB (compressed) written to integral file ( 46.7%)


 NUMBER OF SORTED TWO-ELECTRON INTEGRALS:   16082956.     BUFFER LENGTH:  32768
 NUMBER OF SEGMENTS:   2  SEGMENT LENGTH:   15997996      RECORD LENGTH: 524288

 Memory used in sort:      16.56 MW

 SORT1 READ    17384690. AND WROTE    14795173. INTEGRALS IN     44 RECORDS. CPU TIME:     0.21 SEC, REAL TIME:     0.42 SEC
 SORT2 READ    14795173. AND WROTE    16082956. INTEGRALS IN    247 RECORDS. CPU TIME:     0.40 SEC, REAL TIME:     0.50 SEC

 FILE SIZES:   FILE 1:    95.4 MBYTE,  FILE 4:   184.6 MBYTE,   TOTAL:    279.9 MBYTE

 OPERATOR DM      FOR CENTER  0  COORDINATES:    0.000000    0.000000    0.000000


 **********************************************************************************************************************************
 DATASETS  * FILE   NREC   LENGTH (MB)   RECORD NAMES
              1      19       87.57       500      610      700      900      950      970     1000      129      960     1100   
                                          VAR    BASINP    GEOM    SYMINP    ZMAT    AOBASIS   BASIS     P2S    ABASIS      S 
                                         1400     1410     1200     1210     1080     1600     1650     1300     1700   
                                           T        V       H0       H01     AOSYM     SMH    MOLCAS    ERIS     OPER   

 PROGRAMS   *        TOTAL       INT
 CPU TIMES  *         2.63      2.49
 REAL TIME  *         4.31 SEC
 DISK USED  *       280.45 MB      
 **********************************************************************************************************************************

 Density functional group MM06-HF=M06HFX+M06HFC
 Functional: M06HFX(Automatically generated (new) M06HFX)                      Gradient terms: 2
 Functional: M06HFC(Automatically generated (new) M06HFC)                      Gradient terms: 2
 Use grid at  1800.2


 Exact exchange will be calculated, factor:  1.0000

 Functional: M06HFX                    Factor:  1.0000
 Functional: M06HFC                    Factor:  1.0000

 Generated new metagrid on record  1800.2 with target accuracy 1.0D-06 and 45620 points in CPU time    1.0
 Computed new grid on record 1800.1 in CPU time    1.2
  169114 words reserved for DFT integration

 PROGRAM * UKS-SCF (Unrestricted Kohn-Sham)     Authors: W. Meyer, H.-J. Werner, P.J. Knowles, 1993

 NUMBER OF ELECTRONS:      17+   17-    SPACE SYMMETRY=1    SPIN SYMMETRY: Singlet 
 CONVERGENCE THRESHOLDS:    1.00E-05 (Density)    1.00E-06 (Energy)
 MAX. NUMBER OF ITERATIONS:       60
 INTERPOLATION TYPE:            DIIS
 INTERPOLATION STEPS:              2 (START)      1 (STEP)
 LEVEL SHIFTS:                 -0.20 (ALPHA)  -0.20 (BETA) 



 Use fine grid record 1800.2 for energy threshold  1.0D-06
 Orbital guess generated from atomic densities. Full valence occupancy:   17

 Molecular orbital dump at record        2200.2

 Initial alpha occupation  17
 Initial beta  occupation  17

 ITERATION    DDIFF          GRAD             ENERGY        2-EL.EN.            DIPOLE MOMENTS         DIIS
    1      0.000D+00      0.000D+00      -158.19896052    374.234462   -0.00023    0.00000   -0.00446    0
    2      0.487D-02      0.276D-02      -158.25209488    369.754593    0.00593    0.00000    0.02279    1
    3      0.138D-02      0.886D-03      -158.25884398    370.250104    0.00901    0.00000    0.04677    2
    4      0.149D-02      0.406D-03      -158.26103684    370.144485    0.01294    0.00000    0.05696    3
    5      0.379D-03      0.636D-04      -158.26109376    370.135057    0.01396    0.00000    0.05656    4
    6      0.162D-03      0.205D-04      -158.26110050    370.121986    0.01450    0.00000    0.05642    5
    7      0.286D-04      0.490D-05      -158.26110087    370.123728    0.01465    0.00000    0.05597    6
    8      0.123D-04      0.172D-05      -158.26110093    370.123099    0.01471    0.00000    0.05590    6
    9      0.316D-05      0.456D-06      -158.26110094    370.123041    0.01473    0.00000    0.05583    6
   10      0.510D-06      0.962D-07      -158.26110094    370.123128    0.01473    0.00000    0.05583    6

 Final alpha occupancy:  17
 Final beta  occupancy:  17

 !UKS STATE 1.1 Energy               -158.261100937217
 Nuclear energy                       134.07051350
 One-electron energy                 -476.30618354
 Two-electron energy                  185.06156393
 Density functional                    -1.08699483     M06HFX= 0.09457927 M06HFC=-1.18157409
 Virial quotient                       -1.01405627
 !UKS STATE 1.1 Dipole moment           0.01472996     0.00000000     0.05582890
 Dipole moment /Debye                   0.03743736     0.00000000     0.14189362

 Orbital energies for positive spin:

         1.1          2.1          3.1          4.1          5.1          6.1          7.1          8.1          9.1         10.1
    -10.974898   -10.966009   -10.965980   -10.965837    -1.000689    -0.868277    -0.868171    -0.728625    -0.622175    -0.584955

        11.1         12.1         13.1         14.1         15.1         16.1         17.1         18.1         19.1
     -0.584626    -0.530393    -0.529659    -0.509118    -0.457021    -0.456654    -0.455510     0.114595     0.168174

 Orbital energies for negative spin:

         1.1          2.1          3.1          4.1          5.1          6.1          7.1          8.1          9.1         10.1
    -10.974898   -10.966009   -10.965980   -10.965837    -1.000689    -0.868277    -0.868171    -0.728625    -0.622175    -0.584955

        11.1         12.1         13.1         14.1         15.1         16.1         17.1         18.1         19.1
     -0.584626    -0.530393    -0.529659    -0.509118    -0.457021    -0.456654    -0.455510     0.114595     0.168174

 HOMO     17.1    -0.455510 =     -12.3951eV
 LUMO     18.1     0.114595 =       3.1183eV
 LUMO-HOMO         0.570104 =      15.5133eV

 EXPECTATION VALUE OF S**2:             0.00000000

 Natural orbitals saved to record    2200.2 (Orbital set 3)

 Orbital spaces for UNO-CAS (Min. occupation: 0.020  Max. occupation: 1.980):

 Closed:       17
 Active:        0


 **********************************************************************************************************************************
 DATASETS  * FILE   NREC   LENGTH (MB)   RECORD NAMES
              1      20       89.03       500      610      700      900      950      970     1000      129      960     1100   
                                          VAR    BASINP    GEOM    SYMINP    ZMAT    AOBASIS   BASIS     P2S    ABASIS      S 
                                         1400     1410     1200     1210     1080     1600     1650     1300     1700     1800   
                                           T        V       H0       H01     AOSYM     SMH    MOLCAS    ERIS     OPER     GRID   

              2       5        3.45       700     1000      520     1800     2200   
                                         GEOM     BASIS   MCVARS    GRID      UKS  

 PROGRAMS   *        TOTAL       UKS       INT
 CPU TIMES  *        65.66     63.03      2.49
 REAL TIME  *        67.57 SEC
 DISK USED  *       280.45 MB      
 **********************************************************************************************************************************


 PROGRAM * Intrinsic Basis Bonding Analysis (IBBA)          Author: G. Knizia

 Molecular orbitals read from record     2200.2  Type=UKS/ALPHA (state 1.1)
 Fock matrix read from record            2200.2  Type=UKS/TOTAL (state 1.1)
 Orbital energies read from record       2200.2  Type=UKS/ALPHA (state 1.1)
 Density matrix read from record         2200.2  Type=UKS/CHARGE (state 1.1)

 Number of core orbitals:           4 (   4 )
 Number of closed-shell orbitals:  13 (  13 )

 Basis set MINAO-AUTO-PP generated.      Number of basis functions:   30 

 Polarized AO type:                A = (O Ot + (1-O)(1-Ot)) P12
 Orthogonalization method:         Symmetric (Loewdin)
 Localization functional:          L = sum[A,i] <i|n_A|i>^4 -> max

 Localization group 1:  17 orbitals, occupancy  2.000
 Iterative localization: IB/PM,    7 iter; Final gradient 0.91E-09

 Bond order analysis:       [THRPRINT= 0.020]

   CEN ATOM   CEN ATOM     WIBERG.BO      RENORM.BO
     1   C  -   5   C       1.008392       1.007305
     1   C  -   4   C       1.008392       1.007305
     1   C  -   3   C       1.008253       1.007247
     1   C  -   2   H       0.940688       0.964840

     2   H  -   1   C       0.940688       0.964840

     3   C  -   1   C       1.008253       1.007247
     3   C  -   6   H       0.966914       0.982569
     3   C  -   9   H       0.966860       0.986134
     3   C  -  10   H       0.966860       0.986134

     4   C  -   1   C       1.008392       1.007305
     4   C  -  12   H       0.967206       0.985968
     4   C  -   7   H       0.966975       0.982576
     4   C  -  11   H       0.966635       0.986232

     5   C  -   1   C       1.008392       1.007305
     5   C  -  13   H       0.967206       0.985968
     5   C  -   8   H       0.966975       0.982576
     5   C  -  14   H       0.966635       0.986232

     6   H  -   3   C       0.966914       0.982569

     7   H  -   4   C       0.966975       0.982576

     8   H  -   5   C       0.966975       0.982576

     9   H  -   3   C       0.966860       0.986134

    10   H  -   3   C       0.966860       0.986134

    11   H  -   4   C       0.966635       0.986232

    12   H  -   4   C       0.967206       0.985968

    13   H  -   5   C       0.967206       0.985968

    14   H  -   5   C       0.966635       0.986232


 Valency analysis:

   CEN ATOM   TOT.VALENCE
     1   C       3.974817
     2   H       0.985176
     3   C       3.940988
     4   C       3.941066
     5   C       3.941066
     6   H       0.986177
     7   H       0.986281
     8   H       0.986281
     9   H       0.984583
    10   H       0.984583
    11   H       0.984259
    12   H       0.984961
    13   H       0.984961
    14   H       0.984259

 Total charge composition:

   CEN ATOM         s          p       ELECTRONS ->P.CHARGE
     1   C       2.93104    3.17262      6.10366   -0.10366
     2   H       0.87825                 0.87825    0.12175
     3   C       2.99198    3.37923      6.37122   -0.37122
     4   C       2.99170    3.37992      6.37161   -0.37161
     5   C       2.99170    3.37992      6.37161   -0.37161
     6   H       0.88243                 0.88243    0.11757
     7   H       0.88287                 0.88287    0.11713
     8   H       0.88287                 0.88287    0.11713
     9   H       0.87584                 0.87584    0.12416
    10   H       0.87584                 0.87584    0.12416
    11   H       0.87454                 0.87454    0.12546
    12   H       0.87737                 0.87737    0.12263
    13   H       0.87737                 0.87737    0.12263
    14   H       0.87454                 0.87454    0.12546

 Total charge composition, AO contributions:

   CEN ATOM SHL      SPHERICAL COMPONENTS
     1   C  1s       1.99108
     1   C  2s       0.93996
     1   C  2p       1.02274    1.02267    1.12721

     2   H  1s       0.87825

     3   C  1s       1.99047
     3   C  2s       1.00152
     3   C  2p       1.06439    1.16508    1.14976

     4   C  1s       1.99047
     4   C  2s       1.00123
     4   C  2p       1.13867    1.09163    1.14962

     5   C  1s       1.99047
     5   C  2s       1.00123
     5   C  2p       1.13867    1.09163    1.14962

     6   H  1s       0.88243

     7   H  1s       0.88287

     8   H  1s       0.88287

     9   H  1s       0.87584

    10   H  1s       0.87584

    11   H  1s       0.87454

    12   H  1s       0.87737

    13   H  1s       0.87737

    14   H  1s       0.87454

 Summary of localized orbital composition:   [THRPRINT= 0.020]

   ORB  GRP  ORB.ENERGY      CENTERS/CHARGES
     1   1   -10.866241      C  1   2.000
     2   1   -10.847131      C  4   2.000
     3   1   -10.847131      C  5   2.000
     4   1   -10.846937      C  3   2.000
     5   1    -0.706449      C  4   0.998   C  1   0.987
     6   1    -0.706449      C  5   0.998   C  1   0.987
     7   1    -0.705905      C  3   0.997   C  1   0.987
     8   1    -0.656911      C  5   1.124   H 14   0.868
     9   1    -0.656911      C  4   1.124   H 11   0.868
    10   1    -0.656161      C  3   1.123   H  9   0.869
    11   1    -0.656161      C  3   1.123   H 10   0.869
    12   1    -0.654807      C  4   1.121   H 12   0.871
    13   1    -0.654807      C  5   1.121   H 13   0.871
    14   1    -0.653339      C  3   1.117   H  6   0.876
    15   1    -0.652297      C  4   1.116   H  7   0.876
    16   1    -0.652297      C  5   1.116   H  8   0.876
    17   1    -0.648639      C  1   1.110   H  2   0.866   (other: 0.024)

 Localized orbitals saved to record      2200.2  (orbital set 4)


 **********************************************************************************************************************************
 DATASETS  * FILE   NREC   LENGTH (MB)   RECORD NAMES
              1      20       89.03       500      610      700      900      950      970     1000      129      960     1100   
                                          VAR    BASINP    GEOM    SYMINP    ZMAT    AOBASIS   BASIS     P2S    ABASIS      S 
                                         1400     1410     1200     1210     1080     1600     1650     1300     1700     1800   
                                           T        V       H0       H01     AOSYM     SMH    MOLCAS    ERIS     OPER     GRID   

              2       5        3.54       700     1000      520     1800     2200   
                                         GEOM     BASIS   MCVARS    GRID      UKS  

 PROGRAMS   *        TOTAL      IBBA       UKS       INT
 CPU TIMES  *        65.69      0.03     63.03      2.49
 REAL TIME  *        67.72 SEC
 DISK USED  *       280.45 MB      
 **********************************************************************************************************************************
 Molecular orbitals read from record     2200.2  Type=UKS/LOCAL(IBO)  
 Occupation numbers read from record     2200.2  Type=UKS/LOCAL(IBO)  
 Orbital energies read from record       2200.2  Type=UKS/LOCAL(IBO)  
 Redundancy group numbers read from rec  2200.2  Type=UKS/BETA (state 1.1)

 IBBA/SVP energy=      0.000000000000

        UKS-SCF 
   -158.26110094
 **********************************************************************************************************************************
 Molpro calculation terminated
