
 Primary working directories    : /tmp/sb13343
 Secondary working directories  : /tmp/sb13343
 Wavefunction directory         : /panfs/panasas01/chem/sb13343/wfu/
 Main file repository           : /tmp/sb13343/

 SHA1      : b4a5b34a9e711420743f49e6833241d17c61fb3c
 NAME      : 2099.9.b4a5b34
 ARCHNAME  : linux/x86_64_openmp
 FC        : /cm/shared/languages/GCC-6.1/bin/gfortran
 BLASLIB   : -lblas
 id        : simonbennie

 Nodes     nprocs
 node32-030    1

 Using customized tuning parameters: mindgm=1; mindgv=20; mindgc=4; mindgr=1; noblas=0; minvec=7
 default implementation of scratch files=df  

 memory,500,m
 geomtyp=xyz
 nosym
 noorient
 geometry={
 H         -1.13405        1.76167        0.00000
 C         -1.32915        0.67205        0.00000
 C         -0.06360       -0.12883        0.00000
 C          0.67426       -0.31636        1.28970
 C          0.67426       -0.31636       -1.28970
 H         -1.94006        0.46750        0.88859
 H         -1.94006        0.46750       -0.88859
 H          1.28359        0.56876        1.55544
 H         -0.01165       -0.48291        2.13019
 H          1.36783       -1.16569        1.24157
 H          1.28359        0.56876       -1.55544
 H         -0.01165       -0.48291       -2.13019
 H          1.36783       -1.16569       -1.24157
 }
 basis={ default,svp }
 {uks,M05,direct;wf,33,1,1}
 {ibba,bonds=1}

 Variables initialized (895), CPU time= 0.00 sec
 Commands  initialized (725), CPU time= 0.02 sec, 591 directives.
 Default parameters read. Elapsed time= 0.07 sec

 Checking input...
 Passed
1


                                         ***  PROGRAM SYSTEM MOLPRO  ***
                                       Copyright, TTI GmbH Stuttgart, 2015
                                    Version 2099.9 linked May 26 2017 16:03:21


 **********************************************************************************************************************************
 LABEL *                                                                                 
  64 bit serial version                                                                  DATE: 08-Jun-17          TIME: 20:46:49  
 **********************************************************************************************************************************

 SHA1:             b4a5b34a9e711420743f49e6833241d17c61fb3c
 **********************************************************************************************************************************
 SETTING GEOMTYP        =    XYZ

 Variable memory set to  500000000 words,  buffer space 

 ZSYMEL=NOSYM

 SETTING BASIS          =    SVP


 Recomputing integrals since basis changed


 Using spherical harmonics

 Library entry H      S def2-SVP             selected for orbital group  1
 Library entry H      P def2-SVP             selected for orbital group  1
 Library entry C      S def2-SVP             selected for orbital group  2
 Library entry C      P def2-SVP             selected for orbital group  2
 Library entry C      D def2-SVP             selected for orbital group  2


 PROGRAM * SEWARD (Integral evaluation for generally contracted gaussian basis sets)     Author: Roland Lindh, 1990

 Geometry written to block  1 of record 700


 Point group  C1  



 ATOMIC COORDINATES

 NR  ATOM    CHARGE       X              Y              Z

   1  H       1.00   -2.143043912    3.329073822    0.000000000
   2  C       6.00   -2.511729478    1.269990442    0.000000000
   3  C       6.00   -0.120186582   -0.243453417    0.000000000
   4  C       6.00    1.274166737   -0.597833757    2.437179783
   5  C       6.00    1.274166737   -0.597833757   -2.437179783
   6  H       1.00   -3.666182065    0.883446963    1.679191737
   7  H       1.00   -3.666182065    0.883446963   -1.679191737
   8  H       1.00    2.425633556    1.074800631    2.939355603
   9  H       1.00   -0.022015309   -0.912567643    4.025475693
  10  H       1.00    2.584824085   -2.202834846    2.346227264
  11  H       1.00    2.425633556    1.074800631   -2.939355603
  12  H       1.00   -0.022015309   -0.912567643   -4.025475693
  13  H       1.00    2.584824085   -2.202834846   -2.346227264

 Bond lengths in Bohr (Angstrom)

 1-2  2.091830159  2-3  2.830192527  2-6  2.074092940  2-7  2.074092940  3-4  2.830132841
     ( 1.106948849)     ( 1.497673388)     ( 1.097562717)     ( 1.097562717)     ( 1.497641803)

  3- 5  2.830132841   4- 8  2.091832255   4- 9  2.074085151   4-10  2.074156104   5-11  2.091832255
       ( 1.497641803)       ( 1.106949959)       ( 1.097558596)       ( 1.097596142)       ( 1.106949959)

  5-12  2.074085151   5-13  2.074156104
       ( 1.097558596)       ( 1.097596142)

 Bond angles

  1-2-3  112.17549786   1-2-6  106.35284965   1-2-7  106.35284965   2-3-4  118.89987932

  2-3-5  118.89987932   3-2-6  111.75744418   3-2-7  111.75744418   3-4-8  112.19808176

  3- 4- 9  111.75014522   3- 4-10  111.74379558   3- 5-11  112.19808176   3- 5-12  111.75014522

  3- 5-13  111.74379558   4- 3- 5  118.89276928   6- 2- 7  108.11431090   8- 4- 9  106.34995457

  8- 4-10  106.34572146   9- 4-10  108.12296896  11- 5-12  106.34995457  11- 5-13  106.34572146

 12- 5-13  108.12296896

 NUCLEAR CHARGE:                   33
 NUMBER OF PRIMITIVE AOS:         163
 NUMBER OF SYMMETRY AOS:          159
 NUMBER OF CONTRACTIONS:          101   ( 101A   )
 NUMBER OF CORE ORBITALS:           4   (   4A   )
 NUMBER OF VALENCE ORBITALS:       25   (  25A   )


 NUCLEAR REPULSION ENERGY  124.92676597


 Eigenvalues of metric

         1 0.371E-02 0.424E-02 0.424E-02 0.242E-01 0.242E-01 0.268E-01 0.277E-01 0.371E-01


 Contracted 2-electron integrals neglected if value below      1.0D-11
 AO integral compression algorithm  1   Integral accuracy      1.0D-11

     53.477 MB (compressed) written to integral file ( 46.4%)


 NUMBER OF SORTED TWO-ELECTRON INTEGRALS:   13268976.     BUFFER LENGTH:  32768
 NUMBER OF SEGMENTS:   1  SEGMENT LENGTH:   13268976      RECORD LENGTH: 524288

 Memory used in sort:      13.83 MW

 SORT1 READ    14422061. AND WROTE    12225547. INTEGRALS IN     35 RECORDS. CPU TIME:     0.17 SEC, REAL TIME:     0.32 SEC
 SORT2 READ    12225547. AND WROTE    13268976. INTEGRALS IN    204 RECORDS. CPU TIME:     0.35 SEC, REAL TIME:     0.43 SEC

 FILE SIZES:   FILE 1:    84.0 MBYTE,  FILE 4:   146.8 MBYTE,   TOTAL:    230.9 MBYTE

 OPERATOR DM      FOR CENTER  0  COORDINATES:    0.000000    0.000000    0.000000


 **********************************************************************************************************************************
 DATASETS  * FILE   NREC   LENGTH (MB)   RECORD NAMES
              1      19       77.16       500      610      700      900      950      970     1000      129      960     1100   
                                          VAR    BASINP    GEOM    SYMINP    ZMAT    AOBASIS   BASIS     P2S    ABASIS      S 
                                         1400     1410     1200     1210     1080     1600     1650     1300     1700   
                                           T        V       H0       H01     AOSYM     SMH    MOLCAS    ERIS     OPER   

 PROGRAMS   *        TOTAL       INT
 CPU TIMES  *         2.40      2.26
 REAL TIME  *         3.08 SEC
 DISK USED  *       231.35 MB      
 **********************************************************************************************************************************

 Density functional group M05=XC-M05
 Functional: XC-M05(via MFM 1.6)                                               Gradient terms: 1
 Use grid at  1800.2


 Exact exchange will be calculated, factor:  0.2800

 Functional: XC-M05                    Factor:  1.0000

 Generated new metagrid on record  1800.2 with target accuracy 1.0D-06 and 45406 points in CPU time    1.4
 Computed new grid on record 1800.1 in CPU time    1.5
   84355 words reserved for DFT integration

 PROGRAM * UKS-SCF (Unrestricted Kohn-Sham)     Authors: W. Meyer, H.-J. Werner, P.J. Knowles, 1993

 NUMBER OF ELECTRONS:      17+   16-    SPACE SYMMETRY=1    SPIN SYMMETRY: Doublet 
 CONVERGENCE THRESHOLDS:    1.00E-05 (Density)    1.00E-06 (Energy)
 MAX. NUMBER OF ITERATIONS:       60
 INTERPOLATION TYPE:            DIIS
 INTERPOLATION STEPS:              2 (START)      1 (STEP)
 LEVEL SHIFTS:                 -0.20 (ALPHA)  -0.20 (BETA) 



 Use fine grid record 1800.2 for energy threshold  1.0D-06
 Orbital guess generated from atomic densities. Full valence occupancy:   17

 Molecular orbital dump at record        2200.2

 Initial alpha occupation  17
 Initial beta  occupation  16

 ITERATION    DDIFF          GRAD             ENERGY        2-EL.EN.            DIPOLE MOMENTS         DIIS
    1      0.000D+00      0.000D+00      -157.39524052    397.123045    0.13687    0.27676    0.00000    0
    2      0.103D-01      0.506D-02      -157.53770575    384.170239    0.06423    0.12782    0.00000    1
    3      0.291D-02      0.182D-02      -157.55334708    386.737506    0.06340    0.12594    0.00000    2
    4      0.158D-02      0.389D-03      -157.55537167    386.565622    0.05545    0.11003    0.00000    3
    5      0.662D-03      0.138D-03      -157.55582285    386.539264    0.05122    0.10182    0.00000    4
    6      0.175D-03      0.572D-04      -157.55588391    386.522286    0.04915    0.09780    0.00000    5
    7      0.700D-04      0.204D-04      -157.55591167    386.526329    0.04933    0.09817    0.00000    6
    8      0.160D-04      0.498D-05      -157.55591522    386.525532    0.04882    0.09715    0.00000    7
    9      0.455D-05      0.131D-05      -157.55591621    386.525602    0.04895    0.09742    0.00000    7
   10      0.311D-05      0.505D-06      -157.55591638    386.525412    0.04892    0.09735    0.00000    7

 Final alpha occupancy:  17
 Final beta  occupancy:  16

 !UKS STATE 1.1 Energy               -157.555916376481
 Nuclear energy                       124.92676597
 One-electron energy                 -457.53993007
 Two-electron energy                  193.26270624
 Density functional                   -18.20545852     XC-M05=-18.20545852
 Virial quotient                       -1.01209974
 !UKS STATE 1.1 Dipole moment           0.04891576     0.09734930     0.00000000
 Dipole moment /Debye                   0.12432331     0.24742103     0.00000000

 Orbital energies for positive spin:

         1.1          2.1          3.1          4.1          5.1          6.1          7.1          8.1          9.1         10.1
    -10.218368   -10.208666   -10.208411   -10.208394    -0.812610    -0.699779    -0.699612    -0.543306    -0.452902    -0.448494

        11.1         12.1         13.1         14.1         15.1         16.1         17.1         18.1         19.1
     -0.448381    -0.392908    -0.392880    -0.373803    -0.350574    -0.350522    -0.179210     0.058254     0.110941

 Orbital energies for negative spin:

         1.1          2.1          3.1          4.1          5.1          6.1          7.1          8.1          9.1         10.1
    -10.209419   -10.209168   -10.209164   -10.208628    -0.791826    -0.697254    -0.697146    -0.521429    -0.442493    -0.442353

        11.1         12.1         13.1         14.1         15.1         16.1         17.1         18.1         19.1
     -0.433032    -0.387876    -0.387858    -0.373029    -0.344671    -0.344636    -0.021948     0.058509     0.111255

 HOMO     17.1    -0.179210 =      -4.8766eV
 LUMO    -17.1    -0.021948 =      -0.5972eV
 LUMO-HOMO         0.157262 =       4.2793eV

 EXPECTATION VALUE OF S**2:             0.75581967

 Occupation number threshold for canonical orbitals:  1.999000 (occupied),  0.001000 (virtual)

 Number of pseudo-canonical orbitals per symmetry:   15
 Number of active natural orbitals per symmetry:      3

 Natural orbitals saved to record    2200.2 (Orbital set 3)

 Orbital spaces for UNO-CAS (Min. occupation: 0.020  Max. occupation: 1.980):

 Closed:       16
 Active:        1


 **********************************************************************************************************************************
 DATASETS  * FILE   NREC   LENGTH (MB)   RECORD NAMES
              1      20       78.61       500      610      700      900      950      970     1000      129      960     1100   
                                          VAR    BASINP    GEOM    SYMINP    ZMAT    AOBASIS   BASIS     P2S    ABASIS      S 
                                         1400     1410     1200     1210     1080     1600     1650     1300     1700     1800   
                                           T        V       H0       H01     AOSYM     SMH    MOLCAS    ERIS     OPER     GRID   

              2       5        3.39       700     1000      520     1800     2200   
                                         GEOM     BASIS   MCVARS    GRID      UKS  

 PROGRAMS   *        TOTAL       UKS       INT
 CPU TIMES  *        39.77     37.37      2.26
 REAL TIME  *        40.62 SEC
 DISK USED  *       231.35 MB      
 **********************************************************************************************************************************


 PROGRAM * Intrinsic Basis Bonding Analysis (IBBA)          Author: G. Knizia

 Molecular orbitals read from record     2200.2  Type=UKS/ALPHA (state 1.1)
 Fock matrix read from record            2200.2  Type=UKS/TOTAL (state 1.1)
 Orbital energies read from record       2200.2  Type=UKS/ALPHA (state 1.1)
 Density matrix read from record         2200.2  Type=UKS/CHARGE (state 1.1)

 Number of core orbitals:           4 (   4 )
 Number of closed-shell orbitals:  12 (  12 )
 Number of active  orbitals:        1 (   1 )

 Basis set MINAO-AUTO-PP generated.      Number of basis functions:   29 

 Polarized AO type:                A = (O Ot + (1-O)(1-Ot)) P12
 Orthogonalization method:         Symmetric (Loewdin)
 Localization functional:          L = sum[A,i] <i|n_A|i>^4 -> max

 Localization group 1:  16 orbitals, occupancy  2.000
 Iterative localization: IB/PM,    8 iter; Final gradient 0.22E-08

 Bond order analysis:       [THRPRINT= 0.020]

   CEN ATOM   CEN ATOM     WIBERG.BO      RENORM.BO
     1   H  -   2   C       0.878505       0.995857
     1   H  -   3   C       0.053147       0.170577

     2   C  -   3   C       1.133803       1.304899
     2   C  -   6   H       0.946736       0.986429
     2   C  -   7   H       0.946736       0.986429
     2   C  -   1   H       0.878505       0.995857

     3   C  -   2   C       1.133803       1.304899
     3   C  -   5   C       1.133712       1.304663
     3   C  -   4   C       1.133712       1.304663
     3   C  -   1   H       0.053147       0.170577
     3   C  -  11   H       0.053086       0.170363
     3   C  -   8   H       0.053086       0.170363

     4   C  -   3   C       1.133712       1.304663
     4   C  -   9   H       0.946751       0.986403
     4   C  -  10   H       0.946697       0.986452
     4   C  -   8   H       0.878595       0.995858

     5   C  -   3   C       1.133712       1.304663
     5   C  -  12   H       0.946751       0.986403
     5   C  -  13   H       0.946697       0.986452
     5   C  -  11   H       0.878595       0.995858

     6   H  -   2   C       0.946736       0.986429

     7   H  -   2   C       0.946736       0.986429

     8   H  -   4   C       0.878595       0.995858
     8   H  -   3   C       0.053086       0.170363

     9   H  -   4   C       0.946751       0.986403

    10   H  -   4   C       0.946697       0.986452

    11   H  -   5   C       0.878595       0.995858
    11   H  -   3   C       0.053086       0.170363

    12   H  -   5   C       0.946751       0.986403

    13   H  -   5   C       0.946697       0.986452


 Valency analysis:

   CEN ATOM   TOT.VALENCE
     1   H       0.960163
     2   C       3.949358
     3   C       3.623151
     4   C       3.949331
     5   C       3.949331
     6   H       0.978362
     7   H       0.978362
     8   H       0.960190
     9   H       0.978397
    10   H       0.978312
    11   H       0.960190
    12   H       0.978397
    13   H       0.978312
 Localization group 2:   1 orbitals, occupancy  1.000
 Iterative localization: IB/PM,    1 iter; Final gradient 0.00E+00

 Bond order analysis:       [THRPRINT= 0.020]

   CEN ATOM   CEN ATOM     WIBERG.BO      RENORM.BO
     1   H  -   3   C       0.091300       0.500000


     3   C  -   1   H       0.091300       0.500000
     3   C  -  11   H       0.091259       0.500000
     3   C  -   8   H       0.091259       0.500000





     8   H  -   3   C       0.091259       0.500000



    11   H  -   3   C       0.091259       0.500000




 Valency analysis:

   CEN ATOM   TOT.VALENCE
     1   H       0.119080
     2   C       0.015387
     3   C       0.404985
     4   C       0.015343
     5   C       0.015343
     6   H       0.022447
     7   H       0.022447
     8   H       0.119030
     9   H       0.022457
    10   H       0.022453
    11   H       0.119030
    12   H       0.022457
    13   H       0.022453

 Total charge composition:

   CEN ATOM         s          p       ELECTRONS ->P.CHARGE
     1   H       0.86399                 0.86399    0.13601
     2   C       3.01391    3.33607      6.34998   -0.34998
     3   C       3.01203    3.16031      6.17234   -0.17234
     4   C       3.01385    3.33624      6.35009   -0.35009
     5   C       3.01385    3.33624      6.35009   -0.35009
     6   H       0.86425                 0.86425    0.13575
     7   H       0.86425                 0.86425    0.13575
     8   H       0.86403                 0.86403    0.13597
     9   H       0.86438                 0.86438    0.13562
    10   H       0.86409                 0.86409    0.13591
    11   H       0.86403                 0.86403    0.13597
    12   H       0.86438                 0.86438    0.13562
    13   H       0.86409                 0.86409    0.13591

 Total charge composition, AO contributions:

   CEN ATOM SHL      SPHERICAL COMPONENTS
     1   H  1s       0.86399

     2   C  1s       1.99071
     2   C  2s       1.02321
     2   C  2p       1.07249    1.10287    1.16071

     3   C  1s       1.99236
     3   C  2s       1.01967
     3   C  2p       1.04457    1.08374    1.03200

     4   C  1s       1.99071
     4   C  2s       1.02314
     4   C  2p       1.12556    1.13777    1.07291

     5   C  1s       1.99071
     5   C  2s       1.02314
     5   C  2p       1.12556    1.13777    1.07291

     6   H  1s       0.86425

     7   H  1s       0.86425

     8   H  1s       0.86403

     9   H  1s       0.86438

    10   H  1s       0.86409

    11   H  1s       0.86403

    12   H  1s       0.86438

    13   H  1s       0.86409

 Active orbital charges:

   CEN ATOM         s          p       ELECTRONS ->SPIN.DEN
     1   H       0.06358                 0.06358    0.06358
     2   C       0.00021    0.00754      0.00775    0.00775
     3   C       0.00992    0.70805      0.71796    0.71796
     4   C       0.00021    0.00752      0.00773    0.00773
     5   C       0.00021    0.00752      0.00773    0.00773
     6   H       0.01135                 0.01135    0.01135
     7   H       0.01135                 0.01135    0.01135
     8   H       0.06355                 0.06355    0.06355
     9   H       0.01136                 0.01136    0.01136
    10   H       0.01136                 0.01136    0.01136
    11   H       0.06355                 0.06355    0.06355
    12   H       0.01136                 0.01136    0.01136
    13   H       0.01136                 0.01136    0.01136

 Active orbital charges, AO contributions:

   CEN ATOM SHL      SPHERICAL COMPONENTS
     1   H  1s       0.06358

     2   C  1s       0.00000
     2   C  2s       0.00021
     2   C  2p       0.00030    0.00724    0.00000

     3   C  1s       0.00002
     3   C  2s       0.00990
     3   C  2p       0.13871    0.56934    0.00000

     4   C  1s       0.00000
     4   C  2s       0.00021
     4   C  2p       0.00221    0.00495    0.00036

     5   C  1s       0.00000
     5   C  2s       0.00021
     5   C  2p       0.00221    0.00495    0.00036

     6   H  1s       0.01135

     7   H  1s       0.01135

     8   H  1s       0.06355

     9   H  1s       0.01136

    10   H  1s       0.01136

    11   H  1s       0.06355

    12   H  1s       0.01136

    13   H  1s       0.01136

 Summary of localized orbital composition:   [THRPRINT= 0.020]

   ORB  GRP  ORB.ENERGY      CENTERS/CHARGES
     1   1   -10.115313      C  3   2.000
     2   1   -10.093050      C  2   2.000
     3   1   -10.092803      C  4   2.000
     4   1   -10.092803      C  5   2.000
     5   1    -0.600748      C  3   1.013   C  4   0.974
     6   1    -0.600748      C  3   1.013   C  5   0.974
     7   1    -0.600617      C  3   1.013   C  2   0.974
     8   1    -0.509545      C  2   1.105   H  1   0.793   C  3   0.095
     9   1    -0.509529      C  4   1.105   H  8   0.793   C  3   0.095
    10   1    -0.509529      C  5   1.105   H 11   0.793   C  3   0.095
    11   1    -0.504026      C  2   1.127   H  6   0.846   C  3   0.022
    12   1    -0.504026      C  2   1.127   H  7   0.846   C  3   0.022
    13   1    -0.503865      C  5   1.127   H 13   0.846   C  3   0.022
    14   1    -0.503865      C  4   1.127   H 10   0.846   C  3   0.022
    15   1    -0.503628      C  5   1.127   H 12   0.846   C  3   0.022
    16   1    -0.503628      C  4   1.127   H  9   0.846   C  3   0.022
    17   2    -0.097939      C  3   0.718   H  1   0.064   H 11   0.064   H  8   0.064   (other: 0.091)

 Localized orbitals saved to record      2200.2  (orbital set 4)


 **********************************************************************************************************************************
 DATASETS  * FILE   NREC   LENGTH (MB)   RECORD NAMES
              1      20       78.61       500      610      700      900      950      970     1000      129      960     1100   
                                          VAR    BASINP    GEOM    SYMINP    ZMAT    AOBASIS   BASIS     P2S    ABASIS      S 
                                         1400     1410     1200     1210     1080     1600     1650     1300     1700     1800   
                                           T        V       H0       H01     AOSYM     SMH    MOLCAS    ERIS     OPER     GRID   

              2       5        3.47       700     1000      520     1800     2200   
                                         GEOM     BASIS   MCVARS    GRID      UKS  

 PROGRAMS   *        TOTAL      IBBA       UKS       INT
 CPU TIMES  *        39.81      0.04     37.37      2.26
 REAL TIME  *        40.74 SEC
 DISK USED  *       231.35 MB      
 **********************************************************************************************************************************
 Molecular orbitals read from record     2200.2  Type=UKS/LOCAL(IBO)  
 Occupation numbers read from record     2200.2  Type=UKS/LOCAL(IBO)  
 Orbital energies read from record       2200.2  Type=UKS/LOCAL(IBO)  
 Redundancy group numbers read from rec  2200.2  Type=UKS/BETA (state 1.1)

 IBBA/SVP energy=      0.000000000000

        UKS-SCF 
   -157.55591638
 **********************************************************************************************************************************
 Molpro calculation terminated
