
 Primary working directories    : /local
 Secondary working directories  : /local
 Wavefunction directory         : /local/
 Main file repository           : /local/

 SHA1      : b4a5b34a9e711420743f49e6833241d17c61fb3c
 NAME      : 2099.9.b4a5b34
 ARCHNAME  : linux/x86_64_openmp
 FC        : /cm/shared/languages/GCC-6.1/bin/gfortran
 BLASLIB   : -lblas
 id        : simonbennie

 Nodes     nprocs
 node34-015    1

 Using customized tuning parameters: mindgm=1; mindgv=20; mindgc=4; mindgr=1; noblas=0; minvec=7
 default implementation of scratch files=df  

 memory,500,m
 geomtyp=xyz
 nosym
 noorient
 geometry={
 C         -1.53233        0.02247        0.00000
 C         -0.00192        0.01421        0.00000
 O          0.37239        1.40356        0.00000
 H          1.34248        1.44036        0.00000
 H         -1.92991       -0.99819        0.00000
 H         -1.90797        0.54382       -0.88653
 H         -1.90797        0.54382        0.88653
 C          0.54303       -0.66466       -1.26580
 C          0.54303       -0.66466        1.26580
 H          0.17836       -0.14752       -2.15943
 H          0.17836       -0.14752        2.15943
 H          0.23752       -1.71600       -1.32280
 H          0.23752       -1.71600        1.32280
 H          1.64084       -0.63767       -1.28032
 H          1.64084       -0.63767        1.28032
 }
 basis={ default,tzvp }
 {ks,SOGGA,direct;wf,42,1,0}
 {ibba,bonds=1}

 Variables initialized (895), CPU time= 0.00 sec
 Commands  initialized (725), CPU time= 0.01 sec, 591 directives.
 Default parameters read. Elapsed time= 0.07 sec

 Checking input...
 Passed
1


                                         ***  PROGRAM SYSTEM MOLPRO  ***
                                       Copyright, TTI GmbH Stuttgart, 2015
                                    Version 2099.9 linked May 26 2017 16:03:21


 **********************************************************************************************************************************
 LABEL *                                                                                 
  64 bit serial version                                                                  DATE: 12-Jun-17          TIME: 19:31:37  
 **********************************************************************************************************************************

 SHA1:             b4a5b34a9e711420743f49e6833241d17c61fb3c
 **********************************************************************************************************************************
 SETTING GEOMTYP        =    XYZ

 Variable memory set to  500000000 words,  buffer space 

 ZSYMEL=NOSYM

 SETTING BASIS          =    TZVP


 Recomputing integrals since basis changed


 Using spherical harmonics

 Library entry C      S def2-TZVP            selected for orbital group  1
 Library entry C      P def2-TZVP            selected for orbital group  1
 Library entry C      D def2-TZVP            selected for orbital group  1
 Library entry C      F def2-TZVP            selected for orbital group  1
 Library entry O      S def2-TZVP            selected for orbital group  2
 Library entry O      P def2-TZVP            selected for orbital group  2
 Library entry O      D def2-TZVP            selected for orbital group  2
 Library entry O      F def2-TZVP            selected for orbital group  2
 Library entry H      S def2-TZVP            selected for orbital group  3
 Library entry H      P def2-TZVP            selected for orbital group  3


 PROGRAM * SEWARD (Integral evaluation for generally contracted gaussian basis sets)     Author: Roland Lindh, 1990

 Geometry written to block  1 of record 700


 Point group  C1  



 ATOMIC COORDINATES

 NR  ATOM    CHARGE       X              Y              Z

   1  C       6.00   -2.895684032    0.042462146    0.000000000
   2  C       6.00   -0.003628274    0.026853008    0.000000000
   3  O       8.00    0.703715112    2.652343999    0.000000000
   4  H       1.00    2.536919528    2.721885921    0.000000000
   5  H       1.00   -3.647001345   -1.886305720    0.000000000
   6  H       1.00   -3.605540754    1.027670861   -1.675298901
   7  H       1.00   -3.605540754    1.027670861    1.675298901
   8  C       6.00    1.026177977   -1.256025366   -2.392015328
   9  C       6.00    1.026177977   -1.256025366    2.392015328
  10  H       1.00    0.337051552   -0.278772398   -4.080731285
  11  H       1.00    0.337051552   -0.278772398    4.080731285
  12  H       1.00    0.448847749   -3.242770030   -2.499729718
  13  H       1.00    0.448847749   -3.242770030    2.499729718
  14  H       1.00    3.100738214   -1.205021658   -2.419454152
  15  H       1.00    3.100738214   -1.205021658    2.419454152

 Bond lengths in Bohr (Angstrom)

 1-2  2.892097881  1-5  2.069933136  1-6  2.069096224  1-7  2.069096224  2-3  2.719106031
     ( 1.530432290)     ( 1.095361444)     ( 1.094918569)     ( 1.094918569)     ( 1.438888946)

  2- 8  2.903104402   2- 9  2.903104402   3- 4  1.834522965   8-10  2.069222119   8-12  2.071730422
       ( 1.536256691)       ( 1.536256691)       ( 0.970787746)       ( 1.094985190)       ( 1.096312526)

  8-14  2.075368508   9-11  2.069222119   9-13  2.071730422   9-15  2.075368508
       ( 1.098237719)       ( 1.094985190)       ( 1.096312526)       ( 1.098237719)

 Bond angles

  1-2-3  104.76902697   1-2-8  110.92255387   1-2-9  110.92255387   2-1-5  110.97328220

  2- 1- 6  110.22090701   2- 1- 7  110.22090701   2- 3- 4  107.25071562   2- 8-10  110.21836376

  2- 8-12  111.57747468   2- 8-14  110.77023896   2- 9-11  110.21836376   2- 9-13  111.57747468

  2- 9-15  110.77023896   3- 2- 8  109.53648747   3- 2- 9  109.53648747   5- 1- 6  108.61190457

  5- 1- 7  108.61190457   6- 1- 7  108.12870271   8- 2- 9  110.96453384  10- 8-12  108.52192632

 10- 8-14  108.08997829  11- 9-13  108.52192632  11- 9-15  108.08997829  12- 8-14  107.54424578

 13- 9-15  107.54424578

 NUCLEAR CHARGE:                   42
 NUMBER OF PRIMITIVE AOS:         335
 NUMBER OF SYMMETRY AOS:          310
 NUMBER OF CONTRACTIONS:          215   ( 215A   )
 NUMBER OF CORE ORBITALS:           5   (   5A   )
 NUMBER OF VALENCE ORBITALS:       30   (  30A   )


 NUCLEAR REPULSION ENERGY  198.77359127


 Eigenvalues of metric

         1 0.262E-03 0.510E-03 0.539E-03 0.594E-03 0.697E-03 0.755E-03 0.210E-02 0.239E-02


 Contracted 2-electron integrals neglected if value below      1.0D-11
 AO integral compression algorithm  1   Integral accuracy      1.0D-11

     977.797 MB (compressed) written to integral file ( 41.7%)


 NUMBER OF SORTED TWO-ELECTRON INTEGRALS:  269595810.     BUFFER LENGTH:  32768
 NUMBER OF SEGMENTS:  17  SEGMENT LENGTH:   15999762      RECORD LENGTH: 524288

 Memory used in sort:      16.56 MW

 SORT1 READ   292827432. AND WROTE   238500613. INTEGRALS IN    690 RECORDS. CPU TIME:     3.40 SEC, REAL TIME:     7.20 SEC
 SORT2 READ   238500613. AND WROTE   269595810. INTEGRALS IN   3730 RECORDS. CPU TIME:     5.37 SEC, REAL TIME:     7.04 SEC

 FILE SIZES:   FILE 1:  1009.7 MBYTE,  FILE 4:  2894.1 MBYTE,   TOTAL:   3903.8 MBYTE

 OPERATOR DM      FOR CENTER  0  COORDINATES:    0.000000    0.000000    0.000000


 **********************************************************************************************************************************
 DATASETS  * FILE   NREC   LENGTH (MB)   RECORD NAMES
              1      19      926.27       500      610      700      900      950      970     1000      129      960     1100   
                                          VAR    BASINP    GEOM    SYMINP    ZMAT    AOBASIS   BASIS     P2S    ABASIS      S 
                                         1400     1410     1200     1210     1080     1600     1650     1300     1700   
                                           T        V       H0       H01     AOSYM     SMH    MOLCAS    ERIS     OPER   

 PROGRAMS   *        TOTAL       INT
 CPU TIMES  *        24.98     24.83
 REAL TIME  *        52.50 SEC
 DISK USED  *         3.90 GB      
 **********************************************************************************************************************************

 Density functional group SOGGA=XC-SOGGA
 Functional: XC-SOGGA(via MFM 1.6)                                             Gradient terms: 1
 Use grid at  1800.2

 Functional: XC-SOGGA                  Factor:  1.0000

 Generated new metagrid on record  1800.2 with target accuracy 1.0D-06 and 54596 points in CPU time    1.6
 Computed new grid on record 1800.1 in CPU time    1.8
  175219 words reserved for DFT integration

 PROGRAM * RKS-SCF (Restricted closed shell Kohn-Sham)     Authors: W. Meyer, H.-J. Werner, P.J. Knowles, 1993

 NUMBER OF ELECTRONS:      21+   21-    SPACE SYMMETRY=1    SPIN SYMMETRY: Singlet 
 CONVERGENCE THRESHOLDS:    1.00E-05 (Density)    1.00E-06 (Energy)
 MAX. NUMBER OF ITERATIONS:       60
 INTERPOLATION TYPE:            DIIS
 INTERPOLATION STEPS:              2 (START)      1 (STEP)
 LEVEL SHIFTS:                  0.00 (CLOSED)  0.00 (OPEN) 



 Use fine grid record 1800.2 for energy threshold  1.0D-06
 Orbital guess generated from atomic densities. Full valence occupancy:   21

 Molecular orbital dump at record        2100.2

 Initial occupancy:  21

 ITERATION    DDIFF          GRAD             ENERGY        2-EL.EN.            DIPOLE MOMENTS         DIIS   ORB.
    1      0.000D+00      0.000D+00      -231.97375610    639.760965    0.70342   -0.75782    0.00000    0    start
    2      0.000D+00      0.853D-02      -231.46112692    590.225652   -0.51272    0.25641    0.00000    1    diag
    3      0.190D-01      0.138D-01      -232.26273607    623.551344    0.43575   -0.65565    0.00000    2    diag
    4      0.161D-01      0.170D-02      -232.27071894    621.437110    0.34435   -0.37562    0.00000    3    diag
    5      0.125D-02      0.773D-03      -232.27256466    621.420070    0.33862   -0.50652    0.00000    4    diag
    6      0.437D-03      0.220D-03      -232.27271220    621.547599    0.34549   -0.47260    0.00000    5    diag
    7      0.126D-03      0.764D-04      -232.27272981    621.533317    0.34849   -0.47305    0.00000    6    diag
    8      0.303D-04      0.911D-05      -232.27273015    621.547444    0.34684   -0.47745    0.00000    7    diag
    9      0.978D-05      0.331D-05      -232.27273013    621.543637    0.34802   -0.47450    0.00000    0    orth

 Final occupancy:  21

 !RKS STATE 1.1 Energy               -232.272730134844
 Nuclear energy                       198.77359127
 One-electron energy                 -709.35190084
 Two-electron energy                  310.77181865
 Density functional                   -32.46623922     XC-SOGGA=-32.46623922
 Virial quotient                       -1.00481624
 !RKS STATE 1.1 Dipole moment           0.34802076    -0.47450220     0.00000000
 Dipole moment /Debye                   0.88452261    -1.20598529     0.00000000

 Orbital energies:

         1.1          2.1          3.1          4.1          5.1          6.1          7.1          8.1          9.1         10.1
    -18.666358    -9.881352    -9.810839    -9.810834    -9.805993    -0.923698    -0.709544    -0.618258    -0.617660    -0.507677

        11.1         12.1         13.1         14.1         15.1         16.1         17.1         18.1         19.1         20.1
     -0.434463    -0.399230    -0.396548    -0.359373    -0.345927    -0.329143    -0.314776    -0.305040    -0.298378    -0.271954

        21.1         22.1         23.1
     -0.218760     0.005175     0.051197

 HOMO     21.1    -0.218760 =      -5.9528eV
 LUMO     22.1     0.005175 =       0.1408eV
 LUMO-HOMO         0.223936 =       6.0936eV


 **********************************************************************************************************************************
 DATASETS  * FILE   NREC   LENGTH (MB)   RECORD NAMES
              1      20      928.02       500      610      700      900      950      970     1000      129      960     1100   
                                          VAR    BASINP    GEOM    SYMINP    ZMAT    AOBASIS   BASIS     P2S    ABASIS      S 
                                         1400     1410     1200     1210     1080     1600     1650     1300     1700     1800   
                                           T        V       H0       H01     AOSYM     SMH    MOLCAS    ERIS     OPER     GRID   

              2       5        3.96       700     1000      520     1800     2100   
                                         GEOM     BASIS   MCVARS    GRID      RKS  

 PROGRAMS   *        TOTAL        KS       INT
 CPU TIMES  *        67.15     42.17     24.83
 REAL TIME  *       102.88 SEC
 DISK USED  *         3.90 GB      
 **********************************************************************************************************************************


 PROGRAM * Intrinsic Basis Bonding Analysis (IBBA)          Author: G. Knizia

 Molecular orbitals read from record     2100.2  Type=RKS/CANONICAL (state 1.1)
 Fock matrix read from record            2100.2  Type=RKS/TOTAL (state 1.1)
 Orbital energies read from record       2100.2  Type=RKS/CANONICAL (state 1.1)
 Density matrix read from record         2100.2  Type=RKS/CHARGE (state 1.1)

 Number of core orbitals:           5 (   5 )
 Number of closed-shell orbitals:  16 (  16 )

 Basis set MINAO-AUTO-PP generated.      Number of basis functions:   35 

 Polarized AO type:                A = (O Ot + (1-O)(1-Ot)) P12
 Orthogonalization method:         Symmetric (Loewdin)
 Localization functional:          L = sum[A,i] <i|n_A|i>^4 -> max

 Localization group 1:  21 orbitals, occupancy  2.000
 Iterative localization: IB/PM,    7 iter; Final gradient 0.67E-08

 Bond order analysis:       [THRPRINT= 0.020]

   CEN ATOM   CEN ATOM     WIBERG.BO      RENORM.BO
     1   C  -   2   C       0.996348       0.991918
     1   C  -   5   H       0.956595       0.985664
     1   C  -   6   H       0.951599       0.979123
     1   C  -   7   H       0.951599       0.979123

     2   C  -   1   C       0.996348       0.991918
     2   C  -   9   C       0.994935       0.972403
     2   C  -   8   C       0.994935       0.972403
     2   C  -   3   O       0.939787       0.941334

     3   O  -   2   C       0.939787       0.941334
     3   O  -   4   H       0.858576       0.972706
     3   O  -   9   C       0.031427       0.016094
     3   O  -   8   C       0.031427       0.016094

     4   H  -   3   O       0.858576       0.972706

     5   H  -   1   C       0.956595       0.985664

     6   H  -   1   C       0.951599       0.979123

     7   H  -   1   C       0.951599       0.979123

     8   C  -   2   C       0.994935       0.972403
     8   C  -  14   H       0.956100       0.979925
     8   C  -  10   H       0.952267       0.979007
     8   C  -  12   H       0.951581       0.978358
     8   C  -   3   O       0.031427       0.016094

     9   C  -   2   C       0.994935       0.972403
     9   C  -  15   H       0.956100       0.979925
     9   C  -  11   H       0.952267       0.979007
     9   C  -  13   H       0.951581       0.978358
     9   C  -   3   O       0.031427       0.016094

    10   H  -   8   C       0.952267       0.979007

    11   H  -   9   C       0.952267       0.979007

    12   H  -   8   C       0.951581       0.978358

    13   H  -   9   C       0.951581       0.978358

    14   H  -   8   C       0.956100       0.979925

    15   H  -   9   C       0.956100       0.979925


 Valency analysis:

   CEN ATOM   TOT.VALENCE
     1   C       3.924177
     2   C       3.937973
     3   O       1.938889
     4   H       0.880797
     5   H       0.977864
     6   H       0.975275
     7   H       0.975275
     8   C       3.927066
     9   C       3.927066
    10   H       0.975338
    11   H       0.975338
    12   H       0.977187
    13   H       0.977187
    14   H       0.979805
    15   H       0.979805

 Total charge composition:

   CEN ATOM         s          p       ELECTRONS ->P.CHARGE
     1   C       3.04540    3.41037      6.45576   -0.45576
     2   C       2.93680    2.82183      5.75863    0.24137
     3   O       3.64950    4.90635      8.55585   -0.55585
     4   H       0.65474                 0.65474    0.34526
     5   H       0.85122                 0.85122    0.14878
     6   H       0.84276                 0.84276    0.15724
     7   H       0.84276                 0.84276    0.15724
     8   C       3.05223    3.41710      6.46933   -0.46933
     9   C       3.05223    3.41710      6.46933   -0.46933
    10   H       0.84296                 0.84296    0.15704
    11   H       0.84296                 0.84296    0.15704
    12   H       0.84896                 0.84896    0.15104
    13   H       0.84896                 0.84896    0.15104
    14   H       0.85789                 0.85789    0.14211
    15   H       0.85789                 0.85789    0.14211

 Total charge composition, AO contributions:

   CEN ATOM SHL      SPHERICAL COMPONENTS
     1   C  1s       1.99166
     1   C  2s       1.05374
     1   C  2p       1.04581    1.17602    1.18854

     2   C  1s       1.99325
     2   C  2s       0.94355
     2   C  2p       1.00986    0.79931    1.01266

     3   O  1s       1.99728
     3   O  2s       1.65222
     3   O  2p       1.47389    1.48265    1.94982

     4   H  1s       0.65474

     5   H  1s       0.85122

     6   H  1s       0.84276

     7   H  1s       0.84276

     8   C  1s       1.99176
     8   C  2s       1.06047
     8   C  2p       1.15707    1.15664    1.10339

     9   C  1s       1.99176
     9   C  2s       1.06047
     9   C  2p       1.15707    1.15664    1.10339

    10   H  1s       0.84296

    11   H  1s       0.84296

    12   H  1s       0.84896

    13   H  1s       0.84896

    14   H  1s       0.85789

    15   H  1s       0.85789

 Summary of localized orbital composition:   [THRPRINT= 0.020]

   ORB  GRP  ORB.ENERGY      CENTERS/CHARGES
     1   1   -18.515333      O  3   2.000
     2   1    -9.792878      C  2   2.000
     3   1    -9.699659      C  9   2.000
     4   1    -9.699659      C  8   2.000
     5   1    -9.694044      C  1   2.000
     6   1    -0.690956      O  3   1.348   H  4   0.641
     7   1    -0.651133      O  3   1.274   C  2   0.706
     8   1    -0.515379      C  9   1.008   C  2   0.975
     9   1    -0.515379      C  8   1.008   C  2   0.975
    10   1    -0.515142      C  1   0.991   C  2   0.983   (other: 0.026)
    11   1    -0.502238      O  3   1.980   (other: 0.020)
    12   1    -0.447312      C  8   1.146   H 12   0.838
    13   1    -0.447312      C  9   1.146   H 13   0.838
    14   1    -0.446166      C  8   1.137   H 14   0.850
    15   1    -0.446166      C  9   1.137   H 15   0.850
    16   1    -0.443368      C  1   1.141   H  5   0.843
    17   1    -0.441433      C  9   1.154   H 11   0.834
    18   1    -0.441433      C  8   1.154   H 10   0.834
    19   1    -0.437153      C  1   1.154   H  6   0.833
    20   1    -0.437153      C  1   1.154   H  7   0.833
    21   1    -0.246515      O  3   1.950   (other: 0.050)

 Localized orbitals saved to record      2100.2  (orbital set 2)


 **********************************************************************************************************************************
 DATASETS  * FILE   NREC   LENGTH (MB)   RECORD NAMES
              1      20      928.02       500      610      700      900      950      970     1000      129      960     1100   
                                          VAR    BASINP    GEOM    SYMINP    ZMAT    AOBASIS   BASIS     P2S    ABASIS      S 
                                         1400     1410     1200     1210     1080     1600     1650     1300     1700     1800   
                                           T        V       H0       H01     AOSYM     SMH    MOLCAS    ERIS     OPER     GRID   

              2       5        4.33       700     1000      520     1800     2100   
                                         GEOM     BASIS   MCVARS    GRID      RKS  

 PROGRAMS   *        TOTAL      IBBA        KS       INT
 CPU TIMES  *        67.22      0.07     42.17     24.83
 REAL TIME  *       103.14 SEC
 DISK USED  *         3.90 GB      
 **********************************************************************************************************************************
 Molecular orbitals read from record     2100.2  Type=RKS/LOCAL(IBO)  
 Occupation numbers read from record     2100.2  Type=RKS/LOCAL(IBO)  
 Orbital energies read from record       2100.2  Type=RKS/LOCAL(IBO)  
 Redundancy group numbers read from rec  2100.2  Type=RKS/LOCAL(IBO)  

 IBBA/TZVP energy=      0.000000000000

        KS-SCF  
   -232.27273013
 **********************************************************************************************************************************
 Molpro calculation terminated
