
 Primary working directories    : /tmp/sb13343
 Secondary working directories  : /tmp/sb13343
 Wavefunction directory         : /panfs/panasas01/chem/sb13343/wfu/
 Main file repository           : /tmp/sb13343/

 SHA1      : b4a5b34a9e711420743f49e6833241d17c61fb3c
 NAME      : 2099.9.b4a5b34
 ARCHNAME  : linux/x86_64_openmp
 FC        : /cm/shared/languages/GCC-6.1/bin/gfortran
 BLASLIB   : -lblas
 id        : simonbennie

 Nodes     nprocs
 node32-002    1

 Using customized tuning parameters: mindgm=1; mindgv=20; mindgc=4; mindgr=1; noblas=0; minvec=7
 default implementation of scratch files=df  

 memory,500,m
 geomtyp=xyz
 nosym
 noorient
 geometry={
 C          0.00000        0.00000        0.00000
 C          0.00000        0.00000        1.53307
 O          1.40344        0.00000        1.86307
 C          1.76314        0.00000        3.22887
 H         -1.02289        0.00000       -0.39176
 H          0.51995       -0.88625       -0.37815
 H          0.51995        0.88625       -0.37815
 H          2.85677        0.00000        3.25413
 H          1.40708       -0.89217        3.76475
 H          1.40708        0.89217        3.76475
 C         -0.69252       -1.26694        2.06222
 C         -0.69252        1.26694        2.06222
 H         -0.15366       -2.16088        1.72982
 H         -0.15366        2.16088        1.72982
 H         -1.72011       -1.32515        1.68649
 H         -1.72011        1.32515        1.68649
 H         -0.74365       -1.28188        3.15638
 H         -0.74365        1.28188        3.15638
 }
 basis={ default,sto-3g }
 {uks,SOGGA11-X,direct;wf,50,1,0}
 {ibba,bonds=1}

 Variables initialized (895), CPU time= 0.01 sec
 Commands  initialized (725), CPU time= 0.01 sec, 591 directives.
 Default parameters read. Elapsed time= 0.11 sec

 Checking input...
 Passed
1


                                         ***  PROGRAM SYSTEM MOLPRO  ***
                                       Copyright, TTI GmbH Stuttgart, 2015
                                    Version 2099.9 linked May 26 2017 16:03:21


 **********************************************************************************************************************************
 LABEL *                                                                                 
  64 bit serial version                                                                  DATE: 09-Jun-17          TIME: 01:48:45  
 **********************************************************************************************************************************

 SHA1:             b4a5b34a9e711420743f49e6833241d17c61fb3c
 **********************************************************************************************************************************
 SETTING GEOMTYP        =    XYZ

 Variable memory set to  500000000 words,  buffer space 

 ZSYMEL=NOSYM

 SETTING BASIS          =    STO-3G


 Recomputing integrals since basis changed


 Using spherical harmonics

 Library entry C      S STO-3G               selected for orbital group  1
 Library entry C      P STO-3G               selected for orbital group  1
 Library entry O      S STO-3G               selected for orbital group  2
 Library entry O      P STO-3G               selected for orbital group  2
 Library entry H      S STO-3G               selected for orbital group  4


 PROGRAM * SEWARD (Integral evaluation for generally contracted gaussian basis sets)     Author: Roland Lindh, 1990

 Geometry written to block  1 of record 700


 Point group  C1  



 ATOMIC COORDINATES

 NR  ATOM    CHARGE       X              Y              Z

   1  C       6.00    0.000000000    0.000000000    0.000000000
   2  C       6.00    0.000000000    0.000000000    2.897082430
   3  O       8.00    2.652117232    0.000000000    3.520692051
   4  C       6.00    3.331851719    0.000000000    6.101679992
   5  H       1.00   -1.932981956    0.000000000   -0.740319107
   6  H       1.00    0.982563098   -1.674769778   -0.714599934
   7  H       1.00    0.982563098    1.674769778   -0.714599934
   8  H       1.00    5.398512901    0.000000000    6.149414474
   9  H       1.00    2.658995835   -1.685956957    7.114346427
  10  H       1.00    2.658995835    1.685956957    7.114346427
  11  C       6.00   -1.308673136   -2.394169616    3.897031009
  12  C       6.00   -1.308673136    2.394169616    3.897031009
  13  H       1.00   -0.290375316   -4.083471388    3.268886045
  14  H       1.00   -0.290375316    4.083471388    3.268886045
  15  H       1.00   -3.250536804   -2.504170574    3.187004212
  16  H       1.00   -3.250536804    2.504170574    3.187004212
  17  H       1.00   -1.405294833   -2.422402125    5.964693745
  18  H       1.00   -1.405294833    2.422402125    5.964693745

 Bond lengths in Bohr (Angstrom)

 1-2  2.897082430  1-5  2.069901355  1-6  2.069042560  1-7  2.069042560  2-3  2.724447609
     ( 1.533070000)     ( 1.095344626)     ( 1.094890171)     ( 1.094890171)     ( 1.441715587)

  2-11  2.905954351   2-12  2.905954351   3- 4  2.668995640   4- 8  2.067212379   4- 9  2.078624355
       ( 1.537764818)       ( 1.537764818)       ( 1.412371669)       ( 1.093921681)       ( 1.099960639)

  4-10  2.078624355  11-13  2.070081404  11-15  2.070524757  11-17  2.070111596  12-14  2.070081404
       ( 1.099960639)       ( 1.095439904)       ( 1.095674516)       ( 1.095455880)       ( 1.095439904)

 12-16  2.070524757  12-18  2.070111596
       ( 1.095674516)       ( 1.095455880)

 Bond angles

  1- 2- 3  103.23196371   1- 2-11  110.12706952   1- 2-12  110.12706952   2- 1- 5  110.95650426

  2- 1- 6  110.20481748   2- 1- 7  110.20481748   2- 3- 4  117.98647004   2-11-13  110.26679927

  2-11-15  110.37287188   2-11-17  112.08316935   2-12-14  110.26679927   2-12-16  110.37287188

  2-12-18  112.08316935   3- 2-11  111.07703285   3- 2-12  111.07703285   3- 4- 8  106.07765410

  3- 4- 9  112.87219182   3- 4-10  112.87219182   5- 1- 6  108.65976572   5- 1- 7  108.65976572

  6- 1- 7  108.08288210   8- 4- 9  108.20190897   8- 4-10  108.20190897   9- 4-10  108.40564999

 11- 2-12  110.95103964  13-11-15  108.29648994  13-11-17  108.35544687  14-12-16  108.29648994

 14-12-18  108.35544687  15-11-17  107.33851825  16-12-18  107.33851825

 NUCLEAR CHARGE:                   50
 NUMBER OF PRIMITIVE AOS:         126
 NUMBER OF SYMMETRY AOS:          126
 NUMBER OF CONTRACTIONS:           42   (  42A   )
 NUMBER OF CORE ORBITALS:           6   (   6A   )
 NUMBER OF VALENCE ORBITALS:       36   (  36A   )


 NUCLEAR REPULSION ENERGY  270.15500869


 Eigenvalues of metric

         1 0.207E+00 0.226E+00 0.228E+00 0.234E+00 0.307E+00 0.355E+00 0.359E+00 0.362E+00


 Contracted 2-electron integrals neglected if value below      1.0D-11
 AO integral compression algorithm  1   Integral accuracy      1.0D-11

     2.884 MB (compressed) written to integral file ( 84.3%)


 NUMBER OF SORTED TWO-ELECTRON INTEGRALS:     408156.     BUFFER LENGTH:  32768
 NUMBER OF SEGMENTS:   1  SEGMENT LENGTH:     408156      RECORD LENGTH: 524288

 Memory used in sort:       0.97 MW

 SORT1 READ      453477. AND WROTE      382834. INTEGRALS IN      2 RECORDS. CPU TIME:     0.01 SEC, REAL TIME:     0.02 SEC
 SORT2 READ      382834. AND WROTE      408156. INTEGRALS IN     11 RECORDS. CPU TIME:     0.03 SEC, REAL TIME:     0.06 SEC

 FILE SIZES:   FILE 1:    33.2 MBYTE,  FILE 4:     8.4 MBYTE,   TOTAL:     41.6 MBYTE

 OPERATOR DM      FOR CENTER  0  COORDINATES:    0.000000    0.000000    0.000000


 **********************************************************************************************************************************
 DATASETS  * FILE   NREC   LENGTH (MB)   RECORD NAMES
              1      19       31.98       500      610      700      900      950      970     1000      129      960     1100   
                                          VAR    BASINP    GEOM    SYMINP    ZMAT    AOBASIS   BASIS     P2S    ABASIS      S 
                                         1400     1410     1200     1210     1080     1600     1650     1300     1700   
                                           T        V       H0       H01     AOSYM     SMH    MOLCAS    ERIS     OPER   

 PROGRAMS   *        TOTAL       INT
 CPU TIMES  *         0.84      0.69
 REAL TIME  *         2.57 SEC
 DISK USED  *        42.19 MB      
 **********************************************************************************************************************************

 Density functional group SOGGA11-X=XC-SOGGA11-X
 Functional: XC-SOGGA11-X(via MFM 1.6)                                         Gradient terms: 1
 Use grid at  1800.2


 Exact exchange will be calculated, factor:  0.4015

 Functional: XC-SOGGA11-X              Factor:  1.0000

 Generated new metagrid on record  1800.2 with target accuracy 1.0D-06 and 66012 points in CPU time    2.0
 Computed new grid on record 1800.1 in CPU time    2.3
   38106 words reserved for DFT integration

 PROGRAM * UKS-SCF (Unrestricted Kohn-Sham)     Authors: W. Meyer, H.-J. Werner, P.J. Knowles, 1993

 NUMBER OF ELECTRONS:      25+   25-    SPACE SYMMETRY=1    SPIN SYMMETRY: Singlet 
 CONVERGENCE THRESHOLDS:    1.00E-05 (Density)    1.00E-06 (Energy)
 MAX. NUMBER OF ITERATIONS:       60
 INTERPOLATION TYPE:            DIIS
 INTERPOLATION STEPS:              2 (START)      1 (STEP)
 LEVEL SHIFTS:                 -0.20 (ALPHA)  -0.20 (BETA) 



 Use fine grid record 1800.2 for energy threshold  1.0D-06
 Orbital guess generated from atomic densities. Full valence occupancy:   25

 Molecular orbital dump at record        2200.2

 Initial alpha occupation  25
 Initial beta  occupation  25

 ITERATION    DDIFF          GRAD             ENERGY        2-EL.EN.            DIPOLE MOMENTS         DIIS
    1      0.000D+00      0.000D+00      -269.27274699    789.685742   -0.94244    0.00000    0.80082    0
    2      0.413D-01      0.157D-01      -269.58714909    772.340303   -0.33368    0.00000    0.19318    1
    3      0.290D-02      0.134D-02      -269.58938971    772.506789   -0.34612    0.00000    0.22866    2
    4      0.126D-02      0.415D-03      -269.58972368    772.450339   -0.35367    0.00000    0.23738    3
    5      0.518D-03      0.130D-03      -269.58976228    772.446800   -0.35474    0.00000    0.24026    4
    6      0.180D-03      0.349D-04      -269.58976576    772.447210   -0.35333    0.00000    0.23999    5
    7      0.366D-04      0.882D-05      -269.58976593    772.446175   -0.35353    0.00000    0.24020    5
    8      0.910D-05      0.251D-05      -269.58976594    772.446780   -0.35344    0.00000    0.24016    6
    9      0.206D-05      0.532D-06      -269.58976594    772.446624   -0.35345    0.00000    0.24016    6

 Final alpha occupancy:  25
 Final beta  occupancy:  25

 !UKS STATE 1.1 Energy               -269.589765937084
 Nuclear energy                       270.15500869
 One-electron energy                 -901.15362443
 Two-electron energy                  386.22331214
 Density functional                   -24.81446234     XC-SOGGA11-X=-24.81446234
 Virial quotient                       -1.01588215
 !UKS STATE 1.1 Dipole moment          -0.35345011     0.00000000     0.24015556
 Dipole moment /Debye                  -0.89832174     0.00000000     0.61037457

 Orbital energies for positive spin:

         1.1          2.1          3.1          4.1          5.1          6.1          7.1          8.1          9.1         10.1
    -19.206600   -10.319900   -10.297699   -10.254075   -10.254009   -10.253633    -1.057508    -0.837956    -0.733093    -0.730568

        11.1         12.1         13.1         14.1         15.1         16.1         17.1         18.1         19.1         20.1
     -0.702101    -0.565074    -0.491930    -0.468735    -0.466944    -0.444747    -0.422227    -0.405396    -0.395236    -0.379302

        21.1         22.1         23.1         24.1         25.1         26.1         27.1
     -0.376219    -0.344124    -0.336270    -0.239827    -0.179756     0.331869     0.417100

 Orbital energies for negative spin:

         1.1          2.1          3.1          4.1          5.1          6.1          7.1          8.1          9.1         10.1
    -19.206599   -10.319901   -10.297700   -10.254074   -10.254009   -10.253632    -1.057507    -0.837957    -0.733093    -0.730567

        11.1         12.1         13.1         14.1         15.1         16.1         17.1         18.1         19.1         20.1
     -0.702101    -0.565075    -0.491930    -0.468735    -0.466944    -0.444747    -0.422227    -0.405396    -0.395236    -0.379302

        21.1         22.1         23.1         24.1         25.1         26.1         27.1
     -0.376219    -0.344124    -0.336269    -0.239825    -0.179755     0.331869     0.417100

 HOMO    -25.1    -0.179755 =      -4.8914eV
 LUMO     26.1     0.331869 =       9.0306eV
 LUMO-HOMO         0.511624 =      13.9220eV

 EXPECTATION VALUE OF S**2:             0.00000000

 Occupation number threshold for canonical orbitals:  1.999000 (occupied),  0.001000 (virtual)

 Number of pseudo-canonical orbitals per symmetry:   25
 Number of active natural orbitals per symmetry:      0

 Natural orbitals saved to record    2200.2 (Orbital set 3)

 Orbital spaces for UNO-CAS (Min. occupation: 0.020  Max. occupation: 1.980):

 Closed:       25
 Active:        0


 **********************************************************************************************************************************
 DATASETS  * FILE   NREC   LENGTH (MB)   RECORD NAMES
              1      20       34.09       500      610      700      900      950      970     1000      129      960     1100   
                                          VAR    BASINP    GEOM    SYMINP    ZMAT    AOBASIS   BASIS     P2S    ABASIS      S 
                                         1400     1410     1200     1210     1080     1600     1650     1300     1700     1800   
                                           T        V       H0       H01     AOSYM     SMH    MOLCAS    ERIS     OPER     GRID   

              2       5        3.13       700     1000      520     1800     2200   
                                         GEOM     BASIS   MCVARS    GRID      UKS  

 PROGRAMS   *        TOTAL       UKS       INT
 CPU TIMES  *        10.71      9.87      0.69
 REAL TIME  *        17.52 SEC
 DISK USED  *        42.19 MB      
 **********************************************************************************************************************************


 PROGRAM * Intrinsic Basis Bonding Analysis (IBBA)          Author: G. Knizia

 Molecular orbitals read from record     2200.2  Type=UKS/ALPHA (state 1.1)
 Fock matrix read from record            2200.2  Type=UKS/TOTAL (state 1.1)
 Orbital energies read from record       2200.2  Type=UKS/ALPHA (state 1.1)
 Density matrix read from record         2200.2  Type=UKS/CHARGE (state 1.1)

 Number of core orbitals:           6 (   6 )
 Number of closed-shell orbitals:  19 (  19 )

 Basis set MINAO-AUTO-PP generated.      Number of basis functions:   42 

 Polarized AO type:                A = (O Ot + (1-O)(1-Ot)) P12
 Orthogonalization method:         Symmetric (Loewdin)
 Localization functional:          L = sum[A,i] <i|n_A|i>^4 -> max

 Localization group 1:  25 orbitals, occupancy  2.000
 Iterative localization: IB/PM,    7 iter; Final gradient 0.21E-08

 Bond order analysis:       [THRPRINT= 0.020]

   CEN ATOM   CEN ATOM     WIBERG.BO      RENORM.BO
     1   C  -   2   C       0.991979       0.990579
     1   C  -   5   H       0.968704       0.990421
     1   C  -   6   H       0.965392       0.987887
     1   C  -   7   H       0.965392       0.987887

     2   C  -   1   C       0.991979       0.990579
     2   C  -  12   C       0.989649       0.969171
     2   C  -  11   C       0.989649       0.969171
     2   C  -   3   O       0.973196       0.961539

     3   O  -   4   C       1.016297       1.012430
     3   O  -   2   C       0.973196       0.961539
     3   O  -   9   H       0.026394       0.015503
     3   O  -  10   H       0.026394       0.015503
     3   O  -  11   C       0.021982       0.011622
     3   O  -  12   C       0.021982       0.011622

     4   C  -   3   O       1.016297       1.012430
     4   C  -   9   H       0.958136       0.952133
     4   C  -  10   H       0.958136       0.952133
     4   C  -   8   H       0.957735       0.977125

     5   H  -   1   C       0.968704       0.990421

     6   H  -   1   C       0.965392       0.987887

     7   H  -   1   C       0.965392       0.987887

     8   H  -   4   C       0.957735       0.977125

     9   H  -   4   C       0.958136       0.952133
     9   H  -   3   O       0.026394       0.015503

    10   H  -   4   C       0.958136       0.952133
    10   H  -   3   O       0.026394       0.015503

    11   C  -   2   C       0.989649       0.969171
    11   C  -  17   H       0.967554       0.986932
    11   C  -  15   H       0.966460       0.990443
    11   C  -  13   H       0.965952       0.987825
    11   C  -   3   O       0.021982       0.011622

    12   C  -   2   C       0.989649       0.969171
    12   C  -  18   H       0.967554       0.986932
    12   C  -  16   H       0.966460       0.990443
    12   C  -  14   H       0.965952       0.987825
    12   C  -   3   O       0.021982       0.011622

    13   H  -  11   C       0.965952       0.987825

    14   H  -  12   C       0.965952       0.987825

    15   H  -  11   C       0.966460       0.990443

    16   H  -  12   C       0.966460       0.990443

    17   H  -  11   C       0.967554       0.986932

    18   H  -  12   C       0.967554       0.986932


 Valency analysis:

   CEN ATOM   TOT.VALENCE
     1   C       3.937466
     2   C       3.971589
     3   O       2.135908
     4   C       3.910858
     5   H       0.983957
     6   H       0.982163
     7   H       0.982163
     8   H       0.981067
     9   H       0.988128
    10   H       0.988128
    11   C       3.938845
    12   C       3.938845
    13   H       0.982728
    14   H       0.982728
    15   H       0.982936
    16   H       0.982936
    17   H       0.984600
    18   H       0.984600

 Total charge composition:

   CEN ATOM         s          p       ELECTRONS ->P.CHARGE
     1   C       3.00110    3.37924      6.38034   -0.38034
     2   C       2.94906    2.92337      5.87243    0.12757
     3   O       3.65458    4.57828      8.23286   -0.23286
     4   C       3.00617    3.24368      6.24986   -0.24986
     5   H       0.87334                 0.87334    0.12666
     6   H       0.86644                 0.86644    0.13356
     7   H       0.86644                 0.86644    0.13356
     8   H       0.86240                 0.86240    0.13760
     9   H       0.89104                 0.89104    0.10896
    10   H       0.89104                 0.89104    0.10896
    11   C       3.00185    3.39120      6.39305   -0.39305
    12   C       3.00185    3.39120      6.39305   -0.39305
    13   H       0.86858                 0.86858    0.13142
    14   H       0.86858                 0.86858    0.13142
    15   H       0.86937                 0.86937    0.13063
    16   H       0.86937                 0.86937    0.13063
    17   H       0.87590                 0.87590    0.12410
    18   H       0.87590                 0.87590    0.12410

 Total charge composition, AO contributions:

   CEN ATOM SHL      SPHERICAL COMPONENTS
     1   C  1s       1.99138
     1   C  2s       1.00973
     1   C  2p       1.16261    1.17110    1.04553

     2   C  1s       1.99290
     2   C  2s       0.95617
     2   C  2p       0.86832    1.02672    1.02832

     3   O  1s       1.99735
     3   O  2s       1.65723
     3   O  2p       1.31714    1.92653    1.33461

     4   C  1s       1.99196
     4   C  2s       1.01421
     4   C  2p       1.16054    1.16618    0.91696

     5   H  1s       0.87334

     6   H  1s       0.86644

     7   H  1s       0.86644

     8   H  1s       0.86240

     9   H  1s       0.89104

    10   H  1s       0.89104

    11   C  1s       1.99143
    11   C  2s       1.01042
    11   C  2p       1.14584    1.09518    1.15019

    12   C  1s       1.99143
    12   C  2s       1.01042
    12   C  2p       1.14584    1.09518    1.15019

    13   H  1s       0.86858

    14   H  1s       0.86858

    15   H  1s       0.86937

    16   H  1s       0.86937

    17   H  1s       0.87590

    18   H  1s       0.87590

 Summary of localized orbital composition:   [THRPRINT= 0.020]

   ORB  GRP  ORB.ENERGY      CENTERS/CHARGES
     1   1   -19.031321      O  3   2.000
     2   1   -10.224504      C  2   2.000
     3   1   -10.186821      C  4   2.000
     4   1   -10.138733      C 12   2.000
     5   1   -10.138733      C 11   2.000
     6   1   -10.137685      C  1   2.000
     7   1    -0.724831      O  3   1.157   C  4   0.835
     8   1    -0.689605      O  3   1.167   C  2   0.810   (other: 0.023)
     9   1    -0.588708      O  3   1.973   (other: 0.027)
    10   1    -0.586609      C 12   0.996   C  2   0.991
    11   1    -0.586609      C 11   0.996   C  2   0.991
    12   1    -0.585573      C  2   0.996   C  1   0.982   (other: 0.022)
    13   1    -0.540078      C  4   1.123   H  9   0.875
    14   1    -0.540078      C  4   1.123   H 10   0.875
    15   1    -0.539095      C  4   1.137   H  8   0.854
    16   1    -0.525392      C 11   1.122   H 17   0.870
    17   1    -0.525392      C 12   1.122   H 18   0.870
    18   1    -0.524799      C 11   1.127   H 15   0.863
    19   1    -0.524799      C 12   1.127   H 16   0.863
    20   1    -0.524083      C  1   1.123   H  5   0.867
    21   1    -0.521134      C 11   1.129   H 13   0.862
    22   1    -0.521134      C 12   1.129   H 14   0.862
    23   1    -0.517248      C  1   1.131   H  7   0.860
    24   1    -0.517248      C  1   1.131   H  6   0.860
    25   1    -0.222740      O  3   1.926   (other: 0.074)

 Localized orbitals saved to record      2200.2  (orbital set 4)


 **********************************************************************************************************************************
 DATASETS  * FILE   NREC   LENGTH (MB)   RECORD NAMES
              1      20       34.09       500      610      700      900      950      970     1000      129      960     1100   
                                          VAR    BASINP    GEOM    SYMINP    ZMAT    AOBASIS   BASIS     P2S    ABASIS      S 
                                         1400     1410     1200     1210     1080     1600     1650     1300     1700     1800   
                                           T        V       H0       H01     AOSYM     SMH    MOLCAS    ERIS     OPER     GRID   

              2       5        3.15       700     1000      520     1800     2200   
                                         GEOM     BASIS   MCVARS    GRID      UKS  

 PROGRAMS   *        TOTAL      IBBA       UKS       INT
 CPU TIMES  *        10.75      0.04      9.87      0.69
 REAL TIME  *        17.70 SEC
 DISK USED  *        42.19 MB      
 **********************************************************************************************************************************
 Molecular orbitals read from record     2200.2  Type=UKS/LOCAL(IBO)  
 Occupation numbers read from record     2200.2  Type=UKS/LOCAL(IBO)  
 Orbital energies read from record       2200.2  Type=UKS/LOCAL(IBO)  
 Redundancy group numbers read from rec  2200.2  Type=UKS/BETA (state 1.1)

 IBBA/STO-3G energy=      0.000000000000

        UKS-SCF 
   -269.58976594
 **********************************************************************************************************************************
 Molpro calculation terminated
