
 Primary working directories    : /tmp/sb13343
 Secondary working directories  : /tmp/sb13343
 Wavefunction directory         : /panfs/panasas01/chem/sb13343/wfu/
 Main file repository           : /tmp/sb13343/

 SHA1      : b4a5b34a9e711420743f49e6833241d17c61fb3c
 NAME      : 2099.9.b4a5b34
 ARCHNAME  : linux/x86_64_openmp
 FC        : /cm/shared/languages/GCC-6.1/bin/gfortran
 BLASLIB   : -lblas
 id        : simonbennie

 Nodes     nprocs
 node32-038    1

 Using customized tuning parameters: mindgm=1; mindgv=20; mindgc=4; mindgr=1; noblas=0; minvec=7
 default implementation of scratch files=df  

 memory,500,m
 geomtyp=xyz
 nosym
 noorient
 geometry={
 C          0.00000        0.00000        0.00000
 C          0.00000        0.00000        1.53307
 O          1.40344        0.00000        1.86307
 C          1.76314        0.00000        3.22887
 H         -1.02289        0.00000       -0.39176
 H          0.51995       -0.88625       -0.37815
 H          0.51995        0.88625       -0.37815
 H          2.85677        0.00000        3.25413
 H          1.40708       -0.89217        3.76475
 H          1.40708        0.89217        3.76475
 C         -0.69252       -1.26694        2.06222
 C         -0.69252        1.26694        2.06222
 H         -0.15366       -2.16088        1.72982
 H         -0.15366        2.16088        1.72982
 H         -1.72011       -1.32515        1.68649
 H         -1.72011        1.32515        1.68649
 H         -0.74365       -1.28188        3.15638
 H         -0.74365        1.28188        3.15638
 }
 basis={ default,svp }
 {ks,MM05,direct;wf,50,1,0}
 {ibba,bonds=1}

 Variables initialized (895), CPU time= 0.00 sec
 Commands  initialized (725), CPU time= 0.01 sec, 591 directives.
 Default parameters read. Elapsed time= 0.08 sec

 Checking input...
 Passed
1


                                         ***  PROGRAM SYSTEM MOLPRO  ***
                                       Copyright, TTI GmbH Stuttgart, 2015
                                    Version 2099.9 linked May 26 2017 16:03:21


 **********************************************************************************************************************************
 LABEL *                                                                                 
  64 bit serial version                                                                  DATE: 09-Jun-17          TIME: 01:56:13  
 **********************************************************************************************************************************

 SHA1:             b4a5b34a9e711420743f49e6833241d17c61fb3c
 **********************************************************************************************************************************
 SETTING GEOMTYP        =    XYZ

 Variable memory set to  500000000 words,  buffer space 

 ZSYMEL=NOSYM

 SETTING BASIS          =    SVP


 Recomputing integrals since basis changed


 Using spherical harmonics

 Library entry C      S def2-SVP             selected for orbital group  1
 Library entry C      P def2-SVP             selected for orbital group  1
 Library entry C      D def2-SVP             selected for orbital group  1
 Library entry O      S def2-SVP             selected for orbital group  2
 Library entry O      P def2-SVP             selected for orbital group  2
 Library entry O      D def2-SVP             selected for orbital group  2
 Library entry H      S def2-SVP             selected for orbital group  4
 Library entry H      P def2-SVP             selected for orbital group  4


 PROGRAM * SEWARD (Integral evaluation for generally contracted gaussian basis sets)     Author: Roland Lindh, 1990

 Geometry written to block  1 of record 700


 Point group  C1  



 ATOMIC COORDINATES

 NR  ATOM    CHARGE       X              Y              Z

   1  C       6.00    0.000000000    0.000000000    0.000000000
   2  C       6.00    0.000000000    0.000000000    2.897082430
   3  O       8.00    2.652117232    0.000000000    3.520692051
   4  C       6.00    3.331851719    0.000000000    6.101679992
   5  H       1.00   -1.932981956    0.000000000   -0.740319107
   6  H       1.00    0.982563098   -1.674769778   -0.714599934
   7  H       1.00    0.982563098    1.674769778   -0.714599934
   8  H       1.00    5.398512901    0.000000000    6.149414474
   9  H       1.00    2.658995835   -1.685956957    7.114346427
  10  H       1.00    2.658995835    1.685956957    7.114346427
  11  C       6.00   -1.308673136   -2.394169616    3.897031009
  12  C       6.00   -1.308673136    2.394169616    3.897031009
  13  H       1.00   -0.290375316   -4.083471388    3.268886045
  14  H       1.00   -0.290375316    4.083471388    3.268886045
  15  H       1.00   -3.250536804   -2.504170574    3.187004212
  16  H       1.00   -3.250536804    2.504170574    3.187004212
  17  H       1.00   -1.405294833   -2.422402125    5.964693745
  18  H       1.00   -1.405294833    2.422402125    5.964693745

 Bond lengths in Bohr (Angstrom)

 1-2  2.897082430  1-5  2.069901355  1-6  2.069042560  1-7  2.069042560  2-3  2.724447609
     ( 1.533070000)     ( 1.095344626)     ( 1.094890171)     ( 1.094890171)     ( 1.441715587)

  2-11  2.905954351   2-12  2.905954351   3- 4  2.668995640   4- 8  2.067212379   4- 9  2.078624355
       ( 1.537764818)       ( 1.537764818)       ( 1.412371669)       ( 1.093921681)       ( 1.099960639)

  4-10  2.078624355  11-13  2.070081404  11-15  2.070524757  11-17  2.070111596  12-14  2.070081404
       ( 1.099960639)       ( 1.095439904)       ( 1.095674516)       ( 1.095455880)       ( 1.095439904)

 12-16  2.070524757  12-18  2.070111596
       ( 1.095674516)       ( 1.095455880)

 Bond angles

  1- 2- 3  103.23196371   1- 2-11  110.12706952   1- 2-12  110.12706952   2- 1- 5  110.95650426

  2- 1- 6  110.20481748   2- 1- 7  110.20481748   2- 3- 4  117.98647004   2-11-13  110.26679927

  2-11-15  110.37287188   2-11-17  112.08316935   2-12-14  110.26679927   2-12-16  110.37287188

  2-12-18  112.08316935   3- 2-11  111.07703285   3- 2-12  111.07703285   3- 4- 8  106.07765410

  3- 4- 9  112.87219182   3- 4-10  112.87219182   5- 1- 6  108.65976572   5- 1- 7  108.65976572

  6- 1- 7  108.08288210   8- 4- 9  108.20190897   8- 4-10  108.20190897   9- 4-10  108.40564999

 11- 2-12  110.95103964  13-11-15  108.29648994  13-11-17  108.35544687  14-12-16  108.29648994

 14-12-18  108.35544687  15-11-17  107.33851825  16-12-18  107.33851825

 NUCLEAR CHARGE:                   50
 NUMBER OF PRIMITIVE AOS:         234
 NUMBER OF SYMMETRY AOS:          228
 NUMBER OF CONTRACTIONS:          144   ( 144A   )
 NUMBER OF CORE ORBITALS:           6   (   6A   )
 NUMBER OF VALENCE ORBITALS:       36   (  36A   )


 NUCLEAR REPULSION ENERGY  270.15500869


 Eigenvalues of metric

         1 0.176E-02 0.508E-02 0.513E-02 0.102E-01 0.124E-01 0.215E-01 0.221E-01 0.252E-01


 Contracted 2-electron integrals neglected if value below      1.0D-11
 AO integral compression algorithm  1   Integral accuracy      1.0D-11

     186.384 MB (compressed) written to integral file ( 41.3%)


 NUMBER OF SORTED TWO-ELECTRON INTEGRALS:   54502020.     BUFFER LENGTH:  32768
 NUMBER OF SEGMENTS:   4  SEGMENT LENGTH:   15999503      RECORD LENGTH: 524288

 Memory used in sort:      16.56 MW

 SORT1 READ    56333432. AND WROTE    45703433. INTEGRALS IN    132 RECORDS. CPU TIME:     0.71 SEC, REAL TIME:     1.35 SEC
 SORT2 READ    45703433. AND WROTE    54502020. INTEGRALS IN    711 RECORDS. CPU TIME:     1.06 SEC, REAL TIME:     1.34 SEC

 FILE SIZES:   FILE 1:   217.4 MBYTE,  FILE 4:   553.7 MBYTE,   TOTAL:    771.1 MBYTE

 OPERATOR DM      FOR CENTER  0  COORDINATES:    0.000000    0.000000    0.000000


 **********************************************************************************************************************************
 DATASETS  * FILE   NREC   LENGTH (MB)   RECORD NAMES
              1      19      194.45       500      610      700      900      950      970     1000      129      960     1100   
                                          VAR    BASINP    GEOM    SYMINP    ZMAT    AOBASIS   BASIS     P2S    ABASIS      S 
                                         1400     1410     1200     1210     1080     1600     1650     1300     1700   
                                           T        V       H0       H01     AOSYM     SMH    MOLCAS    ERIS     OPER   

 PROGRAMS   *        TOTAL       INT
 CPU TIMES  *         6.91      6.77
 REAL TIME  *         9.23 SEC
 DISK USED  *       771.70 MB      
 **********************************************************************************************************************************

 Density functional group MM05=M05X+M05C
 Functional: M05X(Automatically generated (new) M05X)                          Gradient terms: 2
 Functional: M05C(Automatically generated (new) M05C)                          Gradient terms: 2
 Use grid at  1800.2


 Exact exchange will be calculated, factor:  0.2800

 Functional: M05X                      Factor:  0.7200
 Functional: M05C                      Factor:  1.0000

 Generated new metagrid on record  1800.2 with target accuracy 1.0D-06 and 66012 points in CPU time    1.8
 Computed new grid on record 1800.1 in CPU time    2.1
  228438 words reserved for DFT integration

 PROGRAM * RKS-SCF (Restricted closed shell Kohn-Sham)     Authors: W. Meyer, H.-J. Werner, P.J. Knowles, 1993

 NUMBER OF ELECTRONS:      25+   25-    SPACE SYMMETRY=1    SPIN SYMMETRY: Singlet 
 CONVERGENCE THRESHOLDS:    1.00E-05 (Density)    1.00E-06 (Energy)
 MAX. NUMBER OF ITERATIONS:       60
 INTERPOLATION TYPE:            DIIS
 INTERPOLATION STEPS:              2 (START)      1 (STEP)
 LEVEL SHIFTS:                  0.00 (CLOSED)  0.00 (OPEN) 



 Use fine grid record 1800.2 for energy threshold  1.0D-06
 Orbital guess generated from atomic densities. Full valence occupancy:   25

 Molecular orbital dump at record        2100.2

 Initial occupancy:  25

 ITERATION    DDIFF          GRAD             ENERGY        2-EL.EN.            DIPOLE MOMENTS         DIIS   ORB.
    1      0.000D+00      0.000D+00      -272.36667713    794.995404   -0.72756    0.00000    0.63193    0    start
    2      0.000D+00      0.746D-02      -272.32805317    763.145404    0.01844    0.00000   -0.10694    1    diag
    3      0.172D-01      0.860D-02      -272.55599837    780.773081   -0.41522    0.00000    0.37109    2    diag
    4      0.994D-02      0.838D-03      -272.55739420    779.998974   -0.35006    0.00000    0.30967    3    diag
    5      0.886D-03      0.371D-03      -272.55770685    780.191438   -0.39006    0.00000    0.33063    4    diag
    6      0.340D-03      0.810D-04      -272.55771978    780.265071   -0.38019    0.00000    0.32808    5    diag
    7      0.904D-04      0.385D-04      -272.55772373    780.247263   -0.38171    0.00000    0.32900    6    diag
    8      0.334D-04      0.591D-05      -272.55772381    780.247844   -0.38215    0.00000    0.32933    7    diag
    9      0.536D-05      0.113D-05      -272.55772381    780.247684   -0.38194    0.00000    0.32900    0    orth

 Final occupancy:  25

 !RKS STATE 1.1 Energy               -272.557723814907
 Nuclear energy                       270.15500869
 One-electron energy                 -903.59969559
 Two-electron energy                  390.12384207
 SCF exchange energy                  -38.37003104     Factor= 0.2800
 Density functional                   -29.23687900     M05X=-38.34273977 M05C= -1.63010636
 Virial quotient                       -1.01038128
 !RKS STATE 1.1 Dipole moment          -0.38193522     0.00000000     0.32900430
 Dipole moment /Debye                  -0.97071891     0.00000000     0.83619075

 Orbital energies:

         1.1          2.1          3.1          4.1          5.1          6.1          7.1          8.1          9.1         10.1
    -19.165203   -10.276583   -10.255678   -10.207663   -10.207651   -10.202000    -1.035131    -0.810353    -0.706981    -0.702293

        11.1         12.1         13.1         14.1         15.1         16.1         17.1         18.1         19.1         20.1
     -0.678597    -0.557702    -0.493366    -0.471865    -0.469267    -0.438340    -0.421608    -0.406856    -0.390670    -0.381956

        21.1         22.1         23.1         24.1         25.1         26.1         27.1
     -0.373282    -0.352291    -0.351694    -0.306751    -0.261438     0.054516     0.086623

 HOMO     25.1    -0.261438 =      -7.1141eV
 LUMO     26.1     0.054516 =       1.4835eV
 LUMO-HOMO         0.315953 =       8.5975eV


 **********************************************************************************************************************************
 DATASETS  * FILE   NREC   LENGTH (MB)   RECORD NAMES
              1      20      196.57       500      610      700      900      950      970     1000      129      960     1100   
                                          VAR    BASINP    GEOM    SYMINP    ZMAT    AOBASIS   BASIS     P2S    ABASIS      S 
                                         1400     1410     1200     1210     1080     1600     1650     1300     1700     1800   
                                           T        V       H0       H01     AOSYM     SMH    MOLCAS    ERIS     OPER     GRID   

              2       5        3.48       700     1000      520     1800     2100   
                                         GEOM     BASIS   MCVARS    GRID      RKS  

 PROGRAMS   *        TOTAL        KS       INT
 CPU TIMES  *        71.68     64.76      6.77
 REAL TIME  *        74.94 SEC
 DISK USED  *       771.70 MB      
 **********************************************************************************************************************************


 PROGRAM * Intrinsic Basis Bonding Analysis (IBBA)          Author: G. Knizia

 Molecular orbitals read from record     2100.2  Type=RKS/CANONICAL (state 1.1)
 Fock matrix read from record            2100.2  Type=RKS/TOTAL (state 1.1)
 Orbital energies read from record       2100.2  Type=RKS/CANONICAL (state 1.1)
 Density matrix read from record         2100.2  Type=RKS/CHARGE (state 1.1)

 Number of core orbitals:           6 (   6 )
 Number of closed-shell orbitals:  19 (  19 )

 Basis set MINAO-AUTO-PP generated.      Number of basis functions:   42 

 Polarized AO type:                A = (O Ot + (1-O)(1-Ot)) P12
 Orthogonalization method:         Symmetric (Loewdin)
 Localization functional:          L = sum[A,i] <i|n_A|i>^4 -> max

 Localization group 1:  25 orbitals, occupancy  2.000
 Iterative localization: IB/PM,    7 iter; Final gradient 0.54E-08

 Bond order analysis:       [THRPRINT= 0.020]

   CEN ATOM   CEN ATOM     WIBERG.BO      RENORM.BO
     1   C  -   2   C       0.996082       0.995167
     1   C  -   5   H       0.965147       0.986353
     1   C  -   7   H       0.960970       0.982190
     1   C  -   6   H       0.960970       0.982190

     2   C  -   1   C       0.996082       0.995167
     2   C  -  12   C       0.992100       0.972811
     2   C  -  11   C       0.992100       0.972811
     2   C  -   3   O       0.922190       0.937902

     3   O  -   4   C       0.987077       1.015680
     3   O  -   2   C       0.922190       0.937902
     3   O  -   9   H       0.033773       0.019950
     3   O  -  10   H       0.033773       0.019950
     3   O  -  12   C       0.025514       0.013276
     3   O  -  11   C       0.025514       0.013276

     4   C  -   3   O       0.987077       1.015680
     4   C  -   8   H       0.957065       0.977801
     4   C  -   9   H       0.949815       0.936890
     4   C  -  10   H       0.949815       0.936890

     5   H  -   1   C       0.965147       0.986353

     6   H  -   1   C       0.960970       0.982190

     7   H  -   1   C       0.960970       0.982190

     8   H  -   4   C       0.957065       0.977801

     9   H  -   4   C       0.949815       0.936890
     9   H  -   3   O       0.033773       0.019950

    10   H  -   4   C       0.949815       0.936890
    10   H  -   3   O       0.033773       0.019950

    11   C  -   2   C       0.992100       0.972811
    11   C  -  17   H       0.963484       0.982082
    11   C  -  15   H       0.961527       0.987160
    11   C  -  13   H       0.961119       0.982089
    11   C  -   3   O       0.025514       0.013276

    12   C  -   2   C       0.992100       0.972811
    12   C  -  18   H       0.963484       0.982082
    12   C  -  16   H       0.961527       0.987160
    12   C  -  14   H       0.961119       0.982089
    12   C  -   3   O       0.025514       0.013276

    13   H  -  11   C       0.961119       0.982089

    14   H  -  12   C       0.961119       0.982089

    15   H  -  11   C       0.961527       0.987160

    16   H  -  12   C       0.961527       0.987160

    17   H  -  11   C       0.963484       0.982082

    18   H  -  12   C       0.963484       0.982082


 Valency analysis:

   CEN ATOM   TOT.VALENCE
     1   C       3.940775
     2   C       3.930358
     3   O       2.093807
     4   C       3.866470
     5   H       0.983758
     6   H       0.981133
     7   H       0.981133
     8   H       0.978124
     9   H       0.987836
    10   H       0.987836
    11   C       3.940497
    12   C       3.940497
    13   H       0.981317
    14   H       0.981317
    15   H       0.981609
    16   H       0.981609
    17   H       0.983583
    18   H       0.983583

 Total charge composition:

   CEN ATOM         s          p       ELECTRONS ->P.CHARGE
     1   C       3.03187    3.36559      6.39746   -0.39746
     2   C       2.92759    2.81497      5.74257    0.25743
     3   O       3.60547    4.81155      8.41702   -0.41702
     4   C       3.01851    3.16098      6.17949   -0.17949
     5   H       0.87256                 0.87256    0.12744
     6   H       0.86264                 0.86264    0.13736
     7   H       0.86264                 0.86264    0.13736
     8   H       0.85210                 0.85210    0.14790
     9   H       0.88971                 0.88971    0.11029
    10   H       0.88971                 0.88971    0.11029
    11   C       3.03187    3.38561      6.41749   -0.41749
    12   C       3.03187    3.38561      6.41749   -0.41749
    13   H       0.86331                 0.86331    0.13669
    14   H       0.86331                 0.86331    0.13669
    15   H       0.86439                 0.86439    0.13561
    16   H       0.86439                 0.86439    0.13561
    17   H       0.87187                 0.87187    0.12813
    18   H       0.87187                 0.87187    0.12813

 Total charge composition, AO contributions:

   CEN ATOM SHL      SPHERICAL COMPONENTS
     1   C  1s       1.99085
     1   C  2s       1.04102
     1   C  2p       1.15624    1.16847    1.04088

     2   C  1s       1.99254
     2   C  2s       0.93505
     2   C  2p       0.78775    1.01382    1.01340

     3   O  1s       1.99722
     3   O  2s       1.60824
     3   O  2p       1.44423    1.91165    1.45568

     4   C  1s       1.99150
     4   C  2s       1.02700
     4   C  2p       1.15514    1.16359    0.84225

     5   H  1s       0.87256

     6   H  1s       0.86264

     7   H  1s       0.86264

     8   H  1s       0.85210

     9   H  1s       0.88971

    10   H  1s       0.88971

    11   C  1s       1.99090
    11   C  2s       1.04097
    11   C  2p       1.14178    1.09489    1.14894

    12   C  1s       1.99090
    12   C  2s       1.04097
    12   C  2p       1.14178    1.09489    1.14894

    13   H  1s       0.86331

    14   H  1s       0.86331

    15   H  1s       0.86439

    16   H  1s       0.86439

    17   H  1s       0.87187

    18   H  1s       0.87187

 Summary of localized orbital composition:   [THRPRINT= 0.020]

   ORB  GRP  ORB.ENERGY      CENTERS/CHARGES
     1   1   -19.018585      O  3   2.000
     2   1   -10.185184      C  2   2.000
     3   1   -10.145174      C  4   2.000
     4   1   -10.092216      C 12   2.000
     5   1   -10.092216      C 11   2.000
     6   1   -10.085883      C  1   2.000
     7   1    -0.770416      O  3   1.256   C  4   0.736
     8   1    -0.745860      O  3   1.283   C  2   0.693   (other: 0.024)
     9   1    -0.587655      C 11   1.008   C  2   0.977
    10   1    -0.587655      C 12   1.008   C  2   0.977
    11   1    -0.584568      C  1   0.991   C  2   0.986   (other: 0.022)
    12   1    -0.560052      O  3   1.961   (other: 0.039)
    13   1    -0.527815      C  4   1.129   H  9   0.869
    14   1    -0.527815      C  4   1.129   H 10   0.869
    15   1    -0.525070      C  4   1.146   H  8   0.845
    16   1    -0.513824      C 11   1.129   H 15   0.857
    17   1    -0.513824      C 12   1.129   H 16   0.857
    18   1    -0.511658      C 12   1.126   H 18   0.864
    19   1    -0.511658      C 11   1.126   H 17   0.864
    20   1    -0.509779      C  1   1.122   H  5   0.865
    21   1    -0.506659      C 12   1.134   H 14   0.855
    22   1    -0.506659      C 11   1.134   H 13   0.855
    23   1    -0.501008      C  1   1.135   H  7   0.855
    24   1    -0.501008      C  1   1.135   H  6   0.855
    25   1    -0.312981      O  3   1.911   (other: 0.089)

 Localized orbitals saved to record      2100.2  (orbital set 2)


 **********************************************************************************************************************************
 DATASETS  * FILE   NREC   LENGTH (MB)   RECORD NAMES
              1      20      196.57       500      610      700      900      950      970     1000      129      960     1100   
                                          VAR    BASINP    GEOM    SYMINP    ZMAT    AOBASIS   BASIS     P2S    ABASIS      S 
                                         1400     1410     1200     1210     1080     1600     1650     1300     1700     1800   
                                           T        V       H0       H01     AOSYM     SMH    MOLCAS    ERIS     OPER     GRID   

              2       5        3.65       700     1000      520     1800     2100   
                                         GEOM     BASIS   MCVARS    GRID      RKS  

 PROGRAMS   *        TOTAL      IBBA        KS       INT
 CPU TIMES  *        71.74      0.05     64.76      6.77
 REAL TIME  *        75.11 SEC
 DISK USED  *       771.70 MB      
 **********************************************************************************************************************************
 Molecular orbitals read from record     2100.2  Type=RKS/LOCAL(IBO)  
 Occupation numbers read from record     2100.2  Type=RKS/LOCAL(IBO)  
 Orbital energies read from record       2100.2  Type=RKS/LOCAL(IBO)  
 Redundancy group numbers read from rec  2100.2  Type=RKS/LOCAL(IBO)  

 IBBA/SVP energy=      0.000000000000

        KS-SCF  
   -272.55772381
 **********************************************************************************************************************************
 Molpro calculation terminated
