
 Primary working directories    : /tmp/sb13343
 Secondary working directories  : /tmp/sb13343
 Wavefunction directory         : /tmp/sb13343/
 Main file repository           : /tmp/sb13343/

 SHA1      : b4a5b34a9e711420743f49e6833241d17c61fb3c
 NAME      : 2099.9.b4a5b34
 ARCHNAME  : linux/x86_64_openmp
 FC        : /cm/shared/languages/GCC-6.1/bin/gfortran
 BLASLIB   : -lblas
 id        : simonbennie

 Nodes     nprocs
 node35-028    1

 Using customized tuning parameters: mindgm=1; mindgv=20; mindgc=4; mindgr=1; noblas=0; minvec=7
 default implementation of scratch files=df  

 memory,500,m
 geomtyp=xyz
 nosym
 noorient
 geometry={
 C         -1.53233        0.02247        0.00000
 C         -0.00192        0.01421        0.00000
 O          0.37239        1.40356        0.00000
 H          1.34248        1.44036        0.00000
 H         -1.92991       -0.99819        0.00000
 H         -1.90797        0.54382       -0.88653
 H         -1.90797        0.54382        0.88653
 C          0.54303       -0.66466       -1.26580
 C          0.54303       -0.66466        1.26580
 H          0.17836       -0.14752       -2.15943
 H          0.17836       -0.14752        2.15943
 H          0.23752       -1.71600       -1.32280
 H          0.23752       -1.71600        1.32280
 H          1.64084       -0.63767       -1.28032
 H          1.64084       -0.63767        1.28032
 }
 basis={ default,SV(P) }
 {ks,CS,direct;wf,42,1,0}
 {ibba,bonds=1}

 Variables initialized (895), CPU time= 0.00 sec
 Commands  initialized (725), CPU time= 0.01 sec, 591 directives.
 Default parameters read. Elapsed time= 1.91 sec

 Checking input...
 Passed
1


                                         ***  PROGRAM SYSTEM MOLPRO  ***
                                       Copyright, TTI GmbH Stuttgart, 2015
                                    Version 2099.9 linked May 26 2017 16:03:21


 **********************************************************************************************************************************
 LABEL *                                                                                 
  64 bit serial version                                                                  DATE: 12-Jun-17          TIME: 13:14:30  
 **********************************************************************************************************************************

 SHA1:             b4a5b34a9e711420743f49e6833241d17c61fb3c
 **********************************************************************************************************************************
 SETTING GEOMTYP        =    XYZ

 Variable memory set to  500000000 words,  buffer space 

 ZSYMEL=NOSYM

 SETTING BASIS          =    SV(P)


 Recomputing integrals since basis changed


 Using spherical harmonics

 Library entry C      S def2-SV(P)           selected for orbital group  1
 Library entry C      P def2-SV(P)           selected for orbital group  1
 Library entry C      D def2-SV(P)           selected for orbital group  1
 Library entry O      S def2-SV(P)           selected for orbital group  2
 Library entry O      P def2-SV(P)           selected for orbital group  2
 Library entry O      D def2-SV(P)           selected for orbital group  2
 Library entry H      S def2-SV(P)           selected for orbital group  3


 PROGRAM * SEWARD (Integral evaluation for generally contracted gaussian basis sets)     Author: Roland Lindh, 1990

 Geometry written to block  1 of record 700


 Point group  C1  



 ATOMIC COORDINATES

 NR  ATOM    CHARGE       X              Y              Z

   1  C       6.00   -2.895684032    0.042462146    0.000000000
   2  C       6.00   -0.003628274    0.026853008    0.000000000
   3  O       8.00    0.703715112    2.652343999    0.000000000
   4  H       1.00    2.536919528    2.721885921    0.000000000
   5  H       1.00   -3.647001345   -1.886305720    0.000000000
   6  H       1.00   -3.605540754    1.027670861   -1.675298901
   7  H       1.00   -3.605540754    1.027670861    1.675298901
   8  C       6.00    1.026177977   -1.256025366   -2.392015328
   9  C       6.00    1.026177977   -1.256025366    2.392015328
  10  H       1.00    0.337051552   -0.278772398   -4.080731285
  11  H       1.00    0.337051552   -0.278772398    4.080731285
  12  H       1.00    0.448847749   -3.242770030   -2.499729718
  13  H       1.00    0.448847749   -3.242770030    2.499729718
  14  H       1.00    3.100738214   -1.205021658   -2.419454152
  15  H       1.00    3.100738214   -1.205021658    2.419454152

 Bond lengths in Bohr (Angstrom)

 1-2  2.892097881  1-5  2.069933136  1-6  2.069096224  1-7  2.069096224  2-3  2.719106031
     ( 1.530432290)     ( 1.095361444)     ( 1.094918569)     ( 1.094918569)     ( 1.438888946)

  2- 8  2.903104402   2- 9  2.903104402   3- 4  1.834522965   8-10  2.069222119   8-12  2.071730422
       ( 1.536256691)       ( 1.536256691)       ( 0.970787746)       ( 1.094985190)       ( 1.096312526)

  8-14  2.075368508   9-11  2.069222119   9-13  2.071730422   9-15  2.075368508
       ( 1.098237719)       ( 1.094985190)       ( 1.096312526)       ( 1.098237719)

 Bond angles

  1-2-3  104.76902697   1-2-8  110.92255387   1-2-9  110.92255387   2-1-5  110.97328220

  2- 1- 6  110.22090701   2- 1- 7  110.22090701   2- 3- 4  107.25071562   2- 8-10  110.21836376

  2- 8-12  111.57747468   2- 8-14  110.77023896   2- 9-11  110.21836376   2- 9-13  111.57747468

  2- 9-15  110.77023896   3- 2- 8  109.53648747   3- 2- 9  109.53648747   5- 1- 6  108.61190457

  5- 1- 7  108.61190457   6- 1- 7  108.12870271   8- 2- 9  110.96453384  10- 8-12  108.52192632

 10- 8-14  108.08997829  11- 9-13  108.52192632  11- 9-15  108.08997829  12- 8-14  107.54424578

 13- 9-15  107.54424578

 NUCLEAR CHARGE:                   42
 NUMBER OF PRIMITIVE AOS:         165
 NUMBER OF SYMMETRY AOS:          160
 NUMBER OF CONTRACTIONS:           90   (  90A   )
 NUMBER OF CORE ORBITALS:           5   (   5A   )
 NUMBER OF VALENCE ORBITALS:       30   (  30A   )


 NUCLEAR REPULSION ENERGY  198.77359127


 Eigenvalues of metric

         1 0.179E-02 0.600E-02 0.603E-02 0.144E-01 0.286E-01 0.297E-01 0.300E-01 0.361E-01


 Contracted 2-electron integrals neglected if value below      1.0D-11
 AO integral compression algorithm  1   Integral accuracy      1.0D-11

     37.487 MB (compressed) written to integral file ( 49.6%)


 NUMBER OF SORTED TWO-ELECTRON INTEGRALS:    8386560.     BUFFER LENGTH:  32768
 NUMBER OF SEGMENTS:   1  SEGMENT LENGTH:    8386560      RECORD LENGTH: 524288

 Memory used in sort:       8.94 MW

 SORT1 READ     9478508. AND WROTE     7931434. INTEGRALS IN     23 RECORDS. CPU TIME:     0.10 SEC, REAL TIME:     0.21 SEC
 SORT2 READ     7931434. AND WROTE     8386560. INTEGRALS IN    143 RECORDS. CPU TIME:     0.22 SEC, REAL TIME:     0.28 SEC

 FILE SIZES:   FILE 1:    68.0 MBYTE,  FILE 4:    96.5 MBYTE,   TOTAL:    164.5 MBYTE

 OPERATOR DM      FOR CENTER  0  COORDINATES:    0.000000    0.000000    0.000000


 **********************************************************************************************************************************
 DATASETS  * FILE   NREC   LENGTH (MB)   RECORD NAMES
              1      19       63.39       500      610      700      900      950      970     1000      129      960     1100   
                                          VAR    BASINP    GEOM    SYMINP    ZMAT    AOBASIS   BASIS     P2S    ABASIS      S 
                                         1400     1410     1200     1210     1080     1600     1650     1300     1700   
                                           T        V       H0       H01     AOSYM     SMH    MOLCAS    ERIS     OPER   

 PROGRAMS   *        TOTAL       INT
 CPU TIMES  *         1.68      1.54
 REAL TIME  *         4.27 SEC
 DISK USED  *       165.03 MB      
 **********************************************************************************************************************************

 Density functional group CS=CS1
 Functional: CS1(Colle-Salvetti (Gradient form))                               Gradient terms: 1
 Use grid at  1800.2

 Functional: CS1                       Factor:  1.0000

 Generated new metagrid on record  1800.2 with target accuracy 1.0D-06 and 53396 points in CPU time    1.5
 Computed new grid on record 1800.1 in CPU time    1.7
   75909 words reserved for DFT integration

 PROGRAM * RKS-SCF (Restricted closed shell Kohn-Sham)     Authors: W. Meyer, H.-J. Werner, P.J. Knowles, 1993

 NUMBER OF ELECTRONS:      21+   21-    SPACE SYMMETRY=1    SPIN SYMMETRY: Singlet 
 CONVERGENCE THRESHOLDS:    1.00E-05 (Density)    1.00E-06 (Energy)
 MAX. NUMBER OF ITERATIONS:       60
 INTERPOLATION TYPE:            DIIS
 INTERPOLATION STEPS:              2 (START)      1 (STEP)
 LEVEL SHIFTS:                  0.00 (CLOSED)  0.00 (OPEN) 



 Use fine grid record 1800.2 for energy threshold  1.0D-06
 Orbital guess generated from atomic densities. Full valence occupancy:   21

 Molecular orbital dump at record        2100.2

 Initial occupancy:  21

 ITERATION    DDIFF          GRAD             ENERGY        2-EL.EN.            DIPOLE MOMENTS         DIIS   ORB.
    1      0.000D+00      0.000D+00      -199.38969642    556.842202    2.26622    8.25779    0.00000    0    start
    2      0.000D+00      0.347D-01      -189.27969586    681.770133   -6.76014  -18.60843   -0.00000    1    diag
    3      0.367D+00      0.895D-01      -200.20637261    628.790722    0.71510   -2.88701    0.00000    2    diag
    4      0.944D-01      0.356D-01      -201.19307306    603.258622   -0.82531   -3.46670   -0.00000    3    diag
    5      0.317D-01      0.184D-01      -201.46654352    608.763070    0.20511   -1.22046   -0.00000    4    diag
    6      0.221D-01      0.121D-01      -201.60867893    593.770317    0.63154   -0.19375   -0.00000    5    diag
    7      0.293D-01      0.669D-02      -201.65363138    596.539492    0.48673    0.22424   -0.00000    6    diag
    8      0.115D-01      0.173D-02      -201.65739007    594.773367    0.23811    0.06520   -0.00000    7    diag
    9      0.417D-02      0.585D-03      -201.65792320    594.970067    0.42132    0.20064    0.00000    8    diag
   10      0.200D-02      0.128D-03      -201.65795420    595.007993    0.38381    0.16632   -0.00000    9    orth
   11      0.453D-03      0.303D-04      -201.65795516    595.013347    0.38508    0.16618   -0.00000    9    diag
   12      0.700D-04      0.170D-04      -201.65795556    595.010307    0.38443    0.16704    0.00000    9    diag
   13      0.254D-04      0.282D-05      -201.65795557    595.009509    0.38466    0.16691    0.00000    9    diag
   14      0.776D-05      0.345D-06      -201.65795557    595.009426    0.38459    0.16710    0.00000    0    orth

 Final occupancy:  21

 !RKS STATE 1.1 Energy               -201.657955570580
 Nuclear energy                       198.77359127
 One-electron energy                 -696.60784997
 Two-electron energy                  297.50471295
 Density functional                    -1.32840983     CS1=-1.32840983
 Virial quotient                       -0.92388357
 !RKS STATE 1.1 Dipole moment           0.38459417     0.16710124     0.00000000
 Dipole moment /Debye                   0.97747686     0.42470118     0.00000000

 Orbital energies:

         1.1          2.1          3.1          4.1          5.1          6.1          7.1          8.1          9.1         10.1
    -16.574790    -8.218195    -8.171562    -8.171127    -8.169003    -0.557064    -0.379520    -0.298103    -0.294951    -0.196118

        11.1         12.1         13.1         14.1         15.1         16.1         17.1         18.1         19.1         20.1
     -0.145961    -0.121078    -0.119167    -0.075185    -0.065637    -0.044580    -0.023374    -0.017922    -0.014616     0.032955

        21.1         22.1         23.1
      0.088511     0.170076     0.225525

 HOMO     21.1     0.088511 =       2.4085eV
 LUMO     22.1     0.170076 =       4.6280eV
 LUMO-HOMO         0.081565 =       2.2195eV


 **********************************************************************************************************************************
 DATASETS  * FILE   NREC   LENGTH (MB)   RECORD NAMES
              1      20       65.10       500      610      700      900      950      970     1000      129      960     1100   
                                          VAR    BASINP    GEOM    SYMINP    ZMAT    AOBASIS   BASIS     P2S    ABASIS      S 
                                         1400     1410     1200     1210     1080     1600     1650     1300     1700     1800   
                                           T        V       H0       H01     AOSYM     SMH    MOLCAS    ERIS     OPER     GRID   

              2       5        3.17       700     1000      520     1800     2100   
                                         GEOM     BASIS   MCVARS    GRID      RKS  

 PROGRAMS   *        TOTAL        KS       INT
 CPU TIMES  *        21.86     20.18      1.54
 REAL TIME  *        25.98 SEC
 DISK USED  *       165.03 MB      
 **********************************************************************************************************************************


 PROGRAM * Intrinsic Basis Bonding Analysis (IBBA)          Author: G. Knizia

 Molecular orbitals read from record     2100.2  Type=RKS/CANONICAL (state 1.1)
 Fock matrix read from record            2100.2  Type=RKS/TOTAL (state 1.1)
 Orbital energies read from record       2100.2  Type=RKS/CANONICAL (state 1.1)
 Density matrix read from record         2100.2  Type=RKS/CHARGE (state 1.1)

 Number of core orbitals:           5 (   5 )
 Number of closed-shell orbitals:  16 (  16 )

 Basis set MINAO-AUTO-PP generated.      Number of basis functions:   35 

 Polarized AO type:                A = (O Ot + (1-O)(1-Ot)) P12
 Orthogonalization method:         Symmetric (Loewdin)
 Localization functional:          L = sum[A,i] <i|n_A|i>^4 -> max

 Localization group 1:  21 orbitals, occupancy  2.000
 Iterative localization: IB/PM,    8 iter; Final gradient 0.23E-09

 Bond order analysis:       [THRPRINT= 0.020]

   CEN ATOM   CEN ATOM     WIBERG.BO      RENORM.BO
     1   C  -   2   C       0.974554       0.992912
     1   C  -   5   H       0.955563       0.967318
     1   C  -   6   H       0.947625       0.950156
     1   C  -   7   H       0.947625       0.950156
     1   C  -   3   O       0.038645       0.022081
     1   C  -   4   H       0.024657       0.028975
     1   C  -  14   H       0.020727       0.021394
     1   C  -  15   H       0.020727       0.021394

     2   C  -   3   O       0.989070       0.955241
     2   C  -   9   C       0.980090       0.969036
     2   C  -   8   C       0.980090       0.969036
     2   C  -   1   C       0.974554       0.992912

     3   O  -   2   C       0.989070       0.955241
     3   O  -   4   H       0.928016       0.933657
     3   O  -   8   C       0.057724       0.032204
     3   O  -   9   C       0.057724       0.032204
     3   O  -   1   C       0.038645       0.022081
     3   O  -  12   H       0.036098       0.025298
     3   O  -  13   H       0.036098       0.025298
     3   O  -   5   H       0.021887       0.016616

     4   H  -   3   O       0.928016       0.933657
     4   H  -   1   C       0.024657       0.028975

     5   H  -   1   C       0.955563       0.967318
     5   H  -   3   O       0.021887       0.016616

     6   H  -   1   C       0.947625       0.950156
     6   H  -   9   C       0.024157       0.024488

     7   H  -   1   C       0.947625       0.950156
     7   H  -   8   C       0.024157       0.024488

     8   C  -   2   C       0.980090       0.969036
     8   C  -  10   H       0.948842       0.949530
     8   C  -  14   H       0.948647       0.958060
     8   C  -  12   H       0.946117       0.947914
     8   C  -   3   O       0.057724       0.032204
     8   C  -   7   H       0.024157       0.024488
     8   C  -  11   H       0.023674       0.023970

     9   C  -   2   C       0.980090       0.969036
     9   C  -  11   H       0.948842       0.949530
     9   C  -  15   H       0.948647       0.958060
     9   C  -  13   H       0.946117       0.947914
     9   C  -   3   O       0.057724       0.032204
     9   C  -   6   H       0.024157       0.024488
     9   C  -  10   H       0.023674       0.023970

    10   H  -   8   C       0.948842       0.949530
    10   H  -   9   C       0.023674       0.023970

    11   H  -   9   C       0.948842       0.949530
    11   H  -   8   C       0.023674       0.023970

    12   H  -   8   C       0.946117       0.947914
    12   H  -   3   O       0.036098       0.025298

    13   H  -   9   C       0.946117       0.947914
    13   H  -   3   O       0.036098       0.025298

    14   H  -   8   C       0.948647       0.958060
    14   H  -   1   C       0.020727       0.021394

    15   H  -   9   C       0.948647       0.958060
    15   H  -   1   C       0.020727       0.021394


 Valency analysis:

   CEN ATOM   TOT.VALENCE
     1   C       3.963485
     2   C       3.948792
     3   O       2.197396
     4   H       0.976389
     5   H       0.998282
     6   H       0.998390
     7   H       0.998390
     8   C       3.964976
     9   C       3.964976
    10   H       0.998377
    11   H       0.998377
    12   H       0.998404
    13   H       0.998404
    14   H       0.999079
    15   H       0.999079

 Total charge composition:

   CEN ATOM         s          p       ELECTRONS ->P.CHARGE
     1   C       2.89754    3.25668      6.15422   -0.15422
     2   C       2.83409    2.91537      5.74946    0.25054
     3   O       3.53887    4.70128      8.24015   -0.24015
     4   H       0.84634                 0.84634    0.15366
     5   H       0.95855                 0.95855    0.04145
     6   H       0.95988                 0.95988    0.04012
     7   H       0.95988                 0.95988    0.04012
     8   C       2.91547    3.26088      6.17635   -0.17635
     9   C       2.91547    3.26088      6.17635   -0.17635
    10   H       0.95971                 0.95971    0.04029
    11   H       0.95971                 0.95971    0.04029
    12   H       0.96004                 0.96004    0.03996
    13   H       0.96004                 0.96004    0.03996
    14   H       0.96966                 0.96966    0.03034
    15   H       0.96966                 0.96966    0.03034

 Total charge composition, AO contributions:

   CEN ATOM SHL      SPHERICAL COMPONENTS
     1   C  1s       1.99788
     1   C  2s       0.89966
     1   C  2p       1.03881    1.10400    1.11387

     2   C  1s       1.99838
     2   C  2s       0.83571
     2   C  2p       1.02223    0.87066    1.02247

     3   O  1s       1.99895
     3   O  2s       1.53992
     3   O  2p       1.34624    1.45542    1.89963

     4   H  1s       0.84634

     5   H  1s       0.95855

     6   H  1s       0.95988

     7   H  1s       0.95988

     8   C  1s       1.99792
     8   C  2s       0.91755
     8   C  2p       1.08845    1.09990    1.07252

     9   C  1s       1.99792
     9   C  2s       0.91755
     9   C  2p       1.08845    1.09990    1.07252

    10   H  1s       0.95971

    11   H  1s       0.95971

    12   H  1s       0.96004

    13   H  1s       0.96004

    14   H  1s       0.96966

    15   H  1s       0.96966

 Summary of localized orbital composition:   [THRPRINT= 0.020]

   ORB  GRP  ORB.ENERGY      CENTERS/CHARGES
     1   1   -16.487824      O  3   2.000
     2   1    -8.150653      C  2   2.000
     3   1    -8.092495      C  8   2.000
     4   1    -8.092495      C  9   2.000
     5   1    -8.089985      C  1   2.000
     6   1    -0.355158      O  3   1.199   C  2   0.774   (other: 0.027)
     7   1    -0.334493      O  3   1.168   H  4   0.818
     8   1    -0.215789      C  1   0.999   C  2   0.951   (other: 0.050)
     9   1    -0.212984      C  8   1.024   C  2   0.943   (other: 0.033)
    10   1    -0.212984      C  9   1.024   C  2   0.943   (other: 0.033)
    11   1    -0.145352      C  9   1.020   H 15   0.956   (other: 0.024)
    12   1    -0.145352      C  8   1.020   H 14   0.956   (other: 0.024)
    13   1    -0.141130      C  8   1.039   H 12   0.939   (other: 0.021)
    14   1    -0.141130      C  9   1.039   H 13   0.939   (other: 0.021)
    15   1    -0.139572      C  1   1.034   H  5   0.944   (other: 0.021)
    16   1    -0.138443      C  8   1.040   H 10   0.942
    17   1    -0.138443      C  9   1.040   H 11   0.942
    18   1    -0.136396      C  1   1.039   H  7   0.942
    19   1    -0.136396      C  1   1.039   H  6   0.942
    20   1    -0.089989      O  3   1.958   (other: 0.042)
    21   1     0.060573      O  3   1.900   C  2   0.030   C  8   0.021   C  9   0.021   (other: 0.028)

 Localized orbitals saved to record      2100.2  (orbital set 2)


 **********************************************************************************************************************************
 DATASETS  * FILE   NREC   LENGTH (MB)   RECORD NAMES
              1      20       65.10       500      610      700      900      950      970     1000      129      960     1100   
                                          VAR    BASINP    GEOM    SYMINP    ZMAT    AOBASIS   BASIS     P2S    ABASIS      S 
                                         1400     1410     1200     1210     1080     1600     1650     1300     1700     1800   
                                           T        V       H0       H01     AOSYM     SMH    MOLCAS    ERIS     OPER     GRID   

              2       5        3.24       700     1000      520     1800     2100   
                                         GEOM     BASIS   MCVARS    GRID      RKS  

 PROGRAMS   *        TOTAL      IBBA        KS       INT
 CPU TIMES  *        21.90      0.04     20.18      1.54
 REAL TIME  *        26.14 SEC
 DISK USED  *       165.03 MB      
 **********************************************************************************************************************************
 Molecular orbitals read from record     2100.2  Type=RKS/LOCAL(IBO)  
 Occupation numbers read from record     2100.2  Type=RKS/LOCAL(IBO)  
 Orbital energies read from record       2100.2  Type=RKS/LOCAL(IBO)  
 Redundancy group numbers read from rec  2100.2  Type=RKS/LOCAL(IBO)  

 IBBA/SV(P) energy=      0.000000000000

        KS-SCF  
   -201.65795557
 **********************************************************************************************************************************
 Molpro calculation terminated
