
 Primary working directories    : /local
 Secondary working directories  : /local
 Wavefunction directory         : /local/
 Main file repository           : /local/

 SHA1      : b4a5b34a9e711420743f49e6833241d17c61fb3c
 NAME      : 2099.9.b4a5b34
 ARCHNAME  : linux/x86_64_openmp
 FC        : /cm/shared/languages/GCC-6.1/bin/gfortran
 BLASLIB   : -lblas
 id        : simonbennie

 Nodes     nprocs
 node32-045    1

 Using customized tuning parameters: mindgm=1; mindgv=20; mindgc=4; mindgr=1; noblas=0; minvec=7
 default implementation of scratch files=df  

 memory,500,m
 geomtyp=xyz
 nosym
 noorient
 geometry={
 C         -1.53233        0.02247        0.00000
 C         -0.00192        0.01421        0.00000
 O          0.37239        1.40356        0.00000
 H          1.34248        1.44036        0.00000
 H         -1.92991       -0.99819        0.00000
 H         -1.90797        0.54382       -0.88653
 H         -1.90797        0.54382        0.88653
 C          0.54303       -0.66466       -1.26580
 C          0.54303       -0.66466        1.26580
 H          0.17836       -0.14752       -2.15943
 H          0.17836       -0.14752        2.15943
 H          0.23752       -1.71600       -1.32280
 H          0.23752       -1.71600        1.32280
 H          1.64084       -0.63767       -1.28032
 H          1.64084       -0.63767        1.28032
 }
 basis={ default,avtz }
 {uks,LYP88,direct;wf,42,1,0}
 {ibba,bonds=1}

 Variables initialized (895), CPU time= 0.00 sec
 Commands  initialized (725), CPU time= 0.01 sec, 591 directives.
 Default parameters read. Elapsed time= 0.18 sec

 Checking input...
 Passed
1


                                         ***  PROGRAM SYSTEM MOLPRO  ***
                                       Copyright, TTI GmbH Stuttgart, 2015
                                    Version 2099.9 linked May 26 2017 16:03:21


 **********************************************************************************************************************************
 LABEL *                                                                                 
  64 bit serial version                                                                  DATE: 12-Jun-17          TIME: 14:59:06  
 **********************************************************************************************************************************

 SHA1:             b4a5b34a9e711420743f49e6833241d17c61fb3c
 **********************************************************************************************************************************
 SETTING GEOMTYP        =    XYZ

 Variable memory set to  500000000 words,  buffer space 

 ZSYMEL=NOSYM

 SETTING BASIS          =    AVTZ


 Recomputing integrals since basis changed


 Using spherical harmonics

 Library entry C      S aug-cc-pVTZ          selected for orbital group  1
 Library entry C      P aug-cc-pVTZ          selected for orbital group  1
 Library entry C      D aug-cc-pVTZ          selected for orbital group  1
 Library entry C      F aug-cc-pVTZ          selected for orbital group  1
 Library entry O      S aug-cc-pVTZ          selected for orbital group  2
 Library entry O      P aug-cc-pVTZ          selected for orbital group  2
 Library entry O      D aug-cc-pVTZ          selected for orbital group  2
 Library entry O      F aug-cc-pVTZ          selected for orbital group  2
 Library entry H      S aug-cc-pVTZ          selected for orbital group  3
 Library entry H      P aug-cc-pVTZ          selected for orbital group  3
 Library entry H      D aug-cc-pVTZ          selected for orbital group  3


 PROGRAM * SEWARD (Integral evaluation for generally contracted gaussian basis sets)     Author: Roland Lindh, 1990

 Geometry written to block  1 of record 700


 Point group  C1  



 ATOMIC COORDINATES

 NR  ATOM    CHARGE       X              Y              Z

   1  C       6.00   -2.895684032    0.042462146    0.000000000
   2  C       6.00   -0.003628274    0.026853008    0.000000000
   3  O       8.00    0.703715112    2.652343999    0.000000000
   4  H       1.00    2.536919528    2.721885921    0.000000000
   5  H       1.00   -3.647001345   -1.886305720    0.000000000
   6  H       1.00   -3.605540754    1.027670861   -1.675298901
   7  H       1.00   -3.605540754    1.027670861    1.675298901
   8  C       6.00    1.026177977   -1.256025366   -2.392015328
   9  C       6.00    1.026177977   -1.256025366    2.392015328
  10  H       1.00    0.337051552   -0.278772398   -4.080731285
  11  H       1.00    0.337051552   -0.278772398    4.080731285
  12  H       1.00    0.448847749   -3.242770030   -2.499729718
  13  H       1.00    0.448847749   -3.242770030    2.499729718
  14  H       1.00    3.100738214   -1.205021658   -2.419454152
  15  H       1.00    3.100738214   -1.205021658    2.419454152

 Bond lengths in Bohr (Angstrom)

 1-2  2.892097881  1-5  2.069933136  1-6  2.069096224  1-7  2.069096224  2-3  2.719106031
     ( 1.530432290)     ( 1.095361444)     ( 1.094918569)     ( 1.094918569)     ( 1.438888946)

  2- 8  2.903104402   2- 9  2.903104402   3- 4  1.834522965   8-10  2.069222119   8-12  2.071730422
       ( 1.536256691)       ( 1.536256691)       ( 0.970787746)       ( 1.094985190)       ( 1.096312526)

  8-14  2.075368508   9-11  2.069222119   9-13  2.071730422   9-15  2.075368508
       ( 1.098237719)       ( 1.094985190)       ( 1.096312526)       ( 1.098237719)

 Bond angles

  1-2-3  104.76902697   1-2-8  110.92255387   1-2-9  110.92255387   2-1-5  110.97328220

  2- 1- 6  110.22090701   2- 1- 7  110.22090701   2- 3- 4  107.25071562   2- 8-10  110.21836376

  2- 8-12  111.57747468   2- 8-14  110.77023896   2- 9-11  110.21836376   2- 9-13  111.57747468

  2- 9-15  110.77023896   3- 2- 8  109.53648747   3- 2- 9  109.53648747   5- 1- 6  108.61190457

  5- 1- 7  108.61190457   6- 1- 7  108.12870271   8- 2- 9  110.96453384  10- 8-12  108.52192632

 10- 8-14  108.08997829  11- 9-13  108.52192632  11- 9-15  108.08997829  12- 8-14  107.54424578

 13- 9-15  107.54424578

 NUCLEAR CHARGE:                   42
 NUMBER OF PRIMITIVE AOS:         605
 NUMBER OF SYMMETRY AOS:          540
 NUMBER OF CONTRACTIONS:          460   ( 460A   )
 NUMBER OF CORE ORBITALS:           5   (   5A   )
 NUMBER OF VALENCE ORBITALS:       30   (  30A   )


 NUCLEAR REPULSION ENERGY  198.77359127


 Eigenvalues of metric

         1 0.351E-05 0.596E-05 0.770E-05 0.977E-05 0.161E-04 0.173E-04 0.207E-04 0.297E-04


 Contracted 2-electron integrals neglected if value below      1.0D-12
 AO integral compression algorithm  1   Integral accuracy      1.0D-12

     24892.932 MB (compressed) written to integral file ( 51.7%)


 NUMBER OF SORTED TWO-ELECTRON INTEGRALS: 5621233465.     BUFFER LENGTH:  32768
 NUMBER OF SEGMENTS: 176  SEGMENT LENGTH:   31999951      RECORD LENGTH: 131072

 Memory used in sort:      32.16 MW

 SORT1 READ  6020115514. AND WROTE  5366777799. INTEGRALS IN  61513 RECORDS. CPU TIME:    78.53 SEC, REAL TIME:   874.67 SEC
 SORT2 READ  5366777799. AND WROTE  5621233465. INTEGRALS IN  94959 RECORDS. CPU TIME:   130.82 SEC, REAL TIME:  1325.95 SEC

 FILE SIZES:   FILE 1: 24930.9 MBYTE,  FILE 4: 64501.1 MBYTE,   TOTAL:  89432.0 MBYTE

 OPERATOR DM      FOR CENTER  0  COORDINATES:    0.000000    0.000000    0.000000


 **********************************************************************************************************************************
 DATASETS  * FILE   NREC   LENGTH (MB)   RECORD NAMES
              1      19    23757.53       500      610      700      900      950      970     1000      129      960     1100   
                                          VAR    BASINP    GEOM    SYMINP    ZMAT    AOBASIS   BASIS     P2S    ABASIS      S 
                                         1400     1410     1200     1210     1080     1600     1650     1300     1700   
                                           T        V       H0       H01     AOSYM     SMH    MOLCAS    ERIS     OPER   

 PROGRAMS   *        TOTAL       INT
 CPU TIMES  *       413.45    413.31
 REAL TIME  *      2470.52 SEC
 DISK USED  *        89.43 GB      
 **********************************************************************************************************************************

 Density functional group LYP88=LYP
 Functional: LYP(Automatically generated (new) LYP)                            Gradient terms: 1
 Use grid at  1800.2

 Functional: LYP                       Factor:  1.0000

 Generated new metagrid on record  1800.2 with target accuracy 1.0D-06 and 55396 points in CPU time    1.6
 Computed new grid on record 1800.1 in CPU time    1.8
  370324 words reserved for DFT integration

 PROGRAM * UKS-SCF (Unrestricted Kohn-Sham)     Authors: W. Meyer, H.-J. Werner, P.J. Knowles, 1993

 NUMBER OF ELECTRONS:      21+   21-    SPACE SYMMETRY=1    SPIN SYMMETRY: Singlet 
 CONVERGENCE THRESHOLDS:    1.00E-05 (Density)    1.00E-06 (Energy)
 MAX. NUMBER OF ITERATIONS:       60
 INTERPOLATION TYPE:            DIIS
 INTERPOLATION STEPS:              2 (START)      1 (STEP)
 LEVEL SHIFTS:                 -0.20 (ALPHA)  -0.20 (BETA) 



 Use fine grid record 1800.2 for energy threshold  1.0D-06
 Orbital guess generated from atomic densities. Full valence occupancy:   35

 Molecular orbital dump at record        2200.2

 Initial alpha occupation  21
 Initial beta  occupation  21

 ITERATION    DDIFF          GRAD             ENERGY        2-EL.EN.            DIPOLE MOMENTS         DIIS
    1      0.000D+00      0.000D+00      -195.04096926    480.311693    3.52177   11.38123    0.00000    0
    2      0.227D+01      0.642D-02      -184.39555191    707.545252   -5.46374  -19.67130   -0.00000    1
    3      0.424D-01      0.149D-01      -198.97767638    646.465650   -0.09932   -5.29056   -0.00000    2
    4      0.152D-01      0.632D-02      -201.30710368    616.170244   -0.57492   -4.06858   -0.00000    3
    5      0.110D-01      0.313D-02      -202.12771732    600.158122    0.03309   -1.68299    0.00000    4
    6      0.135D-01      0.112D-02      -202.27311744    588.193816    0.29980   -0.51564    0.00000    5
    7      0.124D-01      0.253D-03      -202.28283474    586.564260    0.16086   -0.39413    0.00000    6
    8      0.316D-02      0.197D-03      -202.28612453    587.666571    0.27949   -0.32854    0.00000    7
    9      0.457D-02      0.139D-03      -202.28845086    587.508252    0.27861   -0.32120    0.00000    8
   10      0.455D-02      0.901D-04      -202.29007257    587.997408    0.23051   -0.33830    0.00000    9
   11      0.311D-02      0.508D-04      -202.29064980    588.202206    0.23196   -0.35083    0.00000    9
   12      0.103D-02      0.910D-05      -202.29071239    588.180273    0.22143   -0.34457    0.00000    9
   13      0.850D-03      0.575D-05      -202.29073977    588.172104    0.21948   -0.33980    0.00000    9
   14      0.101D-02      0.325D-05      -202.29075474    588.161600    0.21585   -0.33401   -0.00000    9
   15      0.545D-03      0.160D-05      -202.29075811    588.154973    0.21443   -0.33266   -0.00000    9
   16      0.608D-03      0.890D-06      -202.29075960    588.147912    0.21325   -0.33065   -0.00000    9
   17      0.156D-03      0.361D-06      -202.29075975    588.145788    0.21349   -0.33041    0.00000    9
   18      0.664D-04      0.184D-06      -202.29075979    588.143494    0.21330   -0.33037   -0.00000    9
   19      0.177D-04      0.957D-07      -202.29075980    588.144253    0.21334   -0.33032   -0.00000    9
   20      0.569D-05      0.517D-07      -202.29075980    588.143756    0.21340   -0.33039   -0.00000    9
   21      0.239D-05      0.281D-07      -202.29075980    588.143828    0.21341   -0.33040   -0.00000    9

 Final alpha occupancy:  21
 Final beta  occupancy:  21

 !UKS STATE 1.1 Energy               -202.290759800998
 Nuclear energy                       198.77359127
 One-electron energy                 -693.79808124
 Two-electron energy                  294.07191416
 Density functional                    -1.33818399     LYP=-1.33818399
 Virial quotient                       -0.97268974
 !UKS STATE 1.1 Dipole moment           0.21341157    -0.33040481    -0.00000000
 Dipole moment /Debye                   0.54240258    -0.83975026    -0.00000000

 Orbital energies for positive spin:

         1.1          2.1          3.1          4.1          5.1          6.1          7.1          8.1          9.1         10.1
    -16.811377    -8.418446    -8.366494    -8.366477    -8.361032    -0.663213    -0.462041    -0.369939    -0.368026    -0.266793

        11.1         12.1         13.1         14.1         15.1         16.1         17.1         18.1         19.1         20.1
     -0.207772    -0.181841    -0.181482    -0.136983    -0.124176    -0.103731    -0.076128    -0.075217    -0.071682    -0.052025

        21.1         22.1         23.1
     -0.008557     0.021001     0.033346

 Orbital energies for negative spin:

         1.1          2.1          3.1          4.1          5.1          6.1          7.1          8.1          9.1         10.1
    -16.811377    -8.418446    -8.366494    -8.366477    -8.361032    -0.663213    -0.462041    -0.369939    -0.368026    -0.266793

        11.1         12.1         13.1         14.1         15.1         16.1         17.1         18.1         19.1         20.1
     -0.207772    -0.181841    -0.181482    -0.136983    -0.124176    -0.103731    -0.076128    -0.075217    -0.071682    -0.052025

        21.1         22.1         23.1
     -0.008557     0.021001     0.033346

 HOMO     21.1    -0.008557 =      -0.2328eV
 LUMO     22.1     0.021001 =       0.5715eV
 LUMO-HOMO         0.029558 =       0.8043eV

 EXPECTATION VALUE OF S**2:             0.00000000

 Natural orbitals saved to record    2200.2 (Orbital set 3)

 Orbital spaces for UNO-CAS (Min. occupation: 0.020  Max. occupation: 1.980):

 Closed:       21
 Active:        0


 **********************************************************************************************************************************
 DATASETS  * FILE   NREC   LENGTH (MB)   RECORD NAMES
              1      20    23759.30       500      610      700      900      950      970     1000      129      960     1100   
                                          VAR    BASINP    GEOM    SYMINP    ZMAT    AOBASIS   BASIS     P2S    ABASIS      S 
                                         1400     1410     1200     1210     1080     1600     1650     1300     1700     1800   
                                           T        V       H0       H01     AOSYM     SMH    MOLCAS    ERIS     OPER     GRID   

              2       5       11.56       700     1000      520     1800     2200   
                                         GEOM     BASIS   MCVARS    GRID      UKS  

 PROGRAMS   *        TOTAL       UKS       INT
 CPU TIMES  *      1588.21   1174.76    413.31
 REAL TIME  *      3795.95 SEC
 DISK USED  *        89.43 GB      
 **********************************************************************************************************************************


 PROGRAM * Intrinsic Basis Bonding Analysis (IBBA)          Author: G. Knizia

 Molecular orbitals read from record     2200.2  Type=UKS/ALPHA (state 1.1)
 Fock matrix read from record            2200.2  Type=UKS/TOTAL (state 1.1)
 Orbital energies read from record       2200.2  Type=UKS/ALPHA (state 1.1)
 Density matrix read from record         2200.2  Type=UKS/CHARGE (state 1.1)

 Number of core orbitals:           5 (   5 )
 Number of closed-shell orbitals:  16 (  16 )

 Basis set MINAO-AUTO-PP generated.      Number of basis functions:   35 

 Polarized AO type:                A = (O Ot + (1-O)(1-Ot)) P12
 Orthogonalization method:         Symmetric (Loewdin)
 Localization functional:          L = sum[A,i] <i|n_A|i>^4 -> max

 Localization group 1:  21 orbitals, occupancy  2.000
 Iterative localization: IB/PM,    7 iter; Final gradient 0.66E-08

 Bond order analysis:       [THRPRINT= 0.020]

   CEN ATOM   CEN ATOM     WIBERG.BO      RENORM.BO
     1   C  -   2   C       0.986001       0.997910
     1   C  -   5   H       0.953692       0.969976
     1   C  -   7   H       0.945421       0.952142
     1   C  -   6   H       0.945421       0.952142
     1   C  -   3   O       0.031760       0.017457
     1   C  -   4   H       0.025479       0.032740
     1   C  -  15   H       0.021739       0.023176
     1   C  -  14   H       0.021739       0.023176

     2   C  -   8   C       0.990970       0.975185
     2   C  -   9   C       0.990970       0.975185
     2   C  -   1   C       0.986001       0.997910
     2   C  -   3   O       0.963265       0.932517

     3   O  -   2   C       0.963265       0.932517
     3   O  -   4   H       0.896886       0.929903
     3   O  -   9   C       0.053972       0.029110
     3   O  -   8   C       0.053972       0.029110
     3   O  -  12   H       0.036919       0.026225
     3   O  -  13   H       0.036919       0.026225
     3   O  -   1   C       0.031760       0.017457
     3   O  -   5   H       0.021851       0.016823

     4   H  -   3   O       0.896886       0.929903
     4   H  -   1   C       0.025479       0.032740

     5   H  -   1   C       0.953692       0.969976
     5   H  -   3   O       0.021851       0.016823

     6   H  -   1   C       0.945421       0.952142
     6   H  -   9   C       0.024636       0.025714

     7   H  -   1   C       0.945421       0.952142
     7   H  -   8   C       0.024636       0.025714

     8   C  -   2   C       0.990970       0.975185
     8   C  -  14   H       0.945225       0.956819
     8   C  -  10   H       0.944417       0.948272
     8   C  -  12   H       0.943681       0.950662
     8   C  -   3   O       0.053972       0.029110
     8   C  -  11   H       0.025183       0.026311
     8   C  -   7   H       0.024636       0.025714

     9   C  -   2   C       0.990970       0.975185
     9   C  -  15   H       0.945225       0.956819
     9   C  -  11   H       0.944417       0.948272
     9   C  -  13   H       0.943681       0.950662
     9   C  -   3   O       0.053972       0.029110
     9   C  -  10   H       0.025183       0.026311
     9   C  -   6   H       0.024636       0.025714

    10   H  -   8   C       0.944417       0.948272
    10   H  -   9   C       0.025183       0.026311

    11   H  -   9   C       0.944417       0.948272
    11   H  -   8   C       0.025183       0.026311

    12   H  -   8   C       0.943681       0.950662
    12   H  -   3   O       0.036919       0.026225

    13   H  -   9   C       0.943681       0.950662
    13   H  -   3   O       0.036919       0.026225

    14   H  -   8   C       0.945225       0.956819
    14   H  -   1   C       0.021739       0.023176

    15   H  -   9   C       0.945225       0.956819
    15   H  -   1   C       0.021739       0.023176


 Valency analysis:

   CEN ATOM   TOT.VALENCE
     1   C       3.963811
     2   C       3.949557
     3   O       2.122338
     4   H       0.948856
     5   H       0.994648
     6   H       0.994699
     7   H       0.994699
     8   C       3.964360
     9   C       3.964360
    10   H       0.994447
    11   H       0.994447
    12   H       0.994980
    13   H       0.994980
    14   H       0.995909
    15   H       0.995909

 Total charge composition:

   CEN ATOM         s          p       ELECTRONS ->P.CHARGE
     1   C       2.95282    3.27898      6.23179   -0.23179
     2   C       2.87654    2.87198      5.74852    0.25148
     3   O       3.58259    4.78146      8.36405   -0.36405
     4   H       0.77385                 0.77385    0.22615
     5   H       0.92685                 0.92685    0.07315
     6   H       0.92719                 0.92719    0.07281
     7   H       0.92719                 0.92719    0.07281
     8   C       2.97462    3.28499      6.25961   -0.25961
     9   C       2.97462    3.28499      6.25961   -0.25961
    10   H       0.92548                 0.92548    0.07452
    11   H       0.92548                 0.92548    0.07452
    12   H       0.92915                 0.92915    0.07085
    13   H       0.92915                 0.92915    0.07085
    14   H       0.93604                 0.93604    0.06396
    15   H       0.93604                 0.93604    0.06396

 Total charge composition, AO contributions:

   CEN ATOM SHL      SPHERICAL COMPONENTS
     1   C  1s       1.99700
     1   C  2s       0.95582
     1   C  2p       1.01999    1.12491    1.13408

     2   C  1s       1.99772
     2   C  2s       0.87882
     2   C  2p       1.01571    0.83961    1.01666

     3   O  1s       1.99871
     3   O  2s       1.58388
     3   O  2p       1.39773    1.47581    1.90792

     4   H  1s       0.77385

     5   H  1s       0.92685

     6   H  1s       0.92719

     7   H  1s       0.92719

     8   C  1s       1.99703
     8   C  2s       0.97758
     8   C  2p       1.10569    1.11370    1.06560

     9   C  1s       1.99703
     9   C  2s       0.97758
     9   C  2p       1.10569    1.11370    1.06560

    10   H  1s       0.92548

    11   H  1s       0.92548

    12   H  1s       0.92915

    13   H  1s       0.92915

    14   H  1s       0.93604

    15   H  1s       0.93604

 Summary of localized orbital composition:   [THRPRINT= 0.020]

   ORB  GRP  ORB.ENERGY      CENTERS/CHARGES
     1   1   -16.708878      O  3   2.000
     2   1    -8.346731      C  2   2.000
     3   1    -8.281326      C  8   2.000
     4   1    -8.281326      C  9   2.000
     5   1    -8.275725      C  1   2.000
     6   1    -0.440178      O  3   1.237   C  2   0.736   (other: 0.026)
     7   1    -0.416112      O  3   1.243   H  4   0.740
     8   1    -0.289323      C  8   1.019   C  2   0.950   (other: 0.031)
     9   1    -0.289323      C  9   1.019   C  2   0.950   (other: 0.031)
    10   1    -0.288100      C  1   0.993   C  2   0.959   (other: 0.048)
    11   1    -0.219648      O  3   1.965   (other: 0.035)
    12   1    -0.203195      C  9   1.052   H 15   0.921   (other: 0.027)
    13   1    -0.203195      C  8   1.052   H 14   0.921   (other: 0.027)
    14   1    -0.202372      C  9   1.067   H 13   0.908   (other: 0.024)
    15   1    -0.202372      C  8   1.067   H 12   0.908   (other: 0.024)
    16   1    -0.198599      C  1   1.063   H  5   0.913   (other: 0.024)
    17   1    -0.197159      C  9   1.073   H 11   0.907   (other: 0.020)
    18   1    -0.197159      C  8   1.073   H 10   0.907   (other: 0.020)
    19   1    -0.194569      C  1   1.069   H  7   0.909   (other: 0.021)
    20   1    -0.194569      C  1   1.069   H  6   0.909   (other: 0.021)
    21   1    -0.043556      O  3   1.908   C  2   0.027   (other: 0.065)

 Localized orbitals saved to record      2200.2  (orbital set 4)


 **********************************************************************************************************************************
 DATASETS  * FILE   NREC   LENGTH (MB)   RECORD NAMES
              1      20    23759.30       500      610      700      900      950      970     1000      129      960     1100   
                                          VAR    BASINP    GEOM    SYMINP    ZMAT    AOBASIS   BASIS     P2S    ABASIS      S 
                                         1400     1410     1200     1210     1080     1600     1650     1300     1700     1800   
                                           T        V       H0       H01     AOSYM     SMH    MOLCAS    ERIS     OPER     GRID   

              2       5       13.27       700     1000      520     1800     2200   
                                         GEOM     BASIS   MCVARS    GRID      UKS  

 PROGRAMS   *        TOTAL      IBBA       UKS       INT
 CPU TIMES  *      1588.46      0.25   1174.76    413.31
 REAL TIME  *      3796.32 SEC
 DISK USED  *        89.43 GB      
 **********************************************************************************************************************************
 Molecular orbitals read from record     2200.2  Type=UKS/LOCAL(IBO)  
 Occupation numbers read from record     2200.2  Type=UKS/LOCAL(IBO)  
 Orbital energies read from record       2200.2  Type=UKS/LOCAL(IBO)  
 Redundancy group numbers read from rec  2200.2  Type=UKS/BETA (state 1.1)

 IBBA/aug-cc-pVTZ energy=      0.000000000000

        UKS-SCF 
   -202.29075980
 **********************************************************************************************************************************
 Molpro calculation terminated
