
 Primary working directories    : /local
 Secondary working directories  : /local
 Wavefunction directory         : /local/
 Main file repository           : /local/

 SHA1      : b4a5b34a9e711420743f49e6833241d17c61fb3c
 NAME      : 2099.9.b4a5b34
 ARCHNAME  : linux/x86_64_openmp
 FC        : /cm/shared/languages/GCC-6.1/bin/gfortran
 BLASLIB   : -lblas
 id        : simonbennie

 Nodes     nprocs
 node46-021    1

 Using customized tuning parameters: mindgm=1; mindgv=20; mindgc=4; mindgr=1; noblas=0; minvec=7
 default implementation of scratch files=df  

 memory,500,m
 geomtyp=xyz
 nosym
 noorient
 geometry={
 C         -1.53233        0.02247        0.00000
 C         -0.00192        0.01421        0.00000
 O          0.37239        1.40356        0.00000
 H          1.34248        1.44036        0.00000
 H         -1.92991       -0.99819        0.00000
 H         -1.90797        0.54382       -0.88653
 H         -1.90797        0.54382        0.88653
 C          0.54303       -0.66466       -1.26580
 C          0.54303       -0.66466        1.26580
 H          0.17836       -0.14752       -2.15943
 H          0.17836       -0.14752        2.15943
 H          0.23752       -1.71600       -1.32280
 H          0.23752       -1.71600        1.32280
 H          1.64084       -0.63767       -1.28032
 H          1.64084       -0.63767        1.28032
 }
 basis={ default,avdz }
 {uks,PBE0,direct;wf,42,1,0}
 {ibba,bonds=1}

 Variables initialized (895), CPU time= 0.00 sec
 Commands  initialized (725), CPU time= 0.02 sec, 591 directives.
 Default parameters read. Elapsed time= 0.82 sec

 Checking input...
 Passed
1


                                         ***  PROGRAM SYSTEM MOLPRO  ***
                                       Copyright, TTI GmbH Stuttgart, 2015
                                    Version 2099.9 linked May 26 2017 16:03:21


 **********************************************************************************************************************************
 LABEL *                                                                                 
  64 bit serial version                                                                  DATE: 12-Jun-17          TIME: 16:07:34  
 **********************************************************************************************************************************

 SHA1:             b4a5b34a9e711420743f49e6833241d17c61fb3c
 **********************************************************************************************************************************
 SETTING GEOMTYP        =    XYZ

 Variable memory set to  500000000 words,  buffer space 

 ZSYMEL=NOSYM

 SETTING BASIS          =    AVDZ


 Recomputing integrals since basis changed


 Using spherical harmonics

 Library entry C      S aug-cc-pVDZ          selected for orbital group  1
 Library entry C      P aug-cc-pVDZ          selected for orbital group  1
 Library entry C      D aug-cc-pVDZ          selected for orbital group  1
 Library entry O      S aug-cc-pVDZ          selected for orbital group  2
 Library entry O      P aug-cc-pVDZ          selected for orbital group  2
 Library entry O      D aug-cc-pVDZ          selected for orbital group  2
 Library entry H      S aug-cc-pVDZ          selected for orbital group  3
 Library entry H      P aug-cc-pVDZ          selected for orbital group  3


 PROGRAM * SEWARD (Integral evaluation for generally contracted gaussian basis sets)     Author: Roland Lindh, 1990

 Geometry written to block  1 of record 700


 Point group  C1  



 ATOMIC COORDINATES

 NR  ATOM    CHARGE       X              Y              Z

   1  C       6.00   -2.895684032    0.042462146    0.000000000
   2  C       6.00   -0.003628274    0.026853008    0.000000000
   3  O       8.00    0.703715112    2.652343999    0.000000000
   4  H       1.00    2.536919528    2.721885921    0.000000000
   5  H       1.00   -3.647001345   -1.886305720    0.000000000
   6  H       1.00   -3.605540754    1.027670861   -1.675298901
   7  H       1.00   -3.605540754    1.027670861    1.675298901
   8  C       6.00    1.026177977   -1.256025366   -2.392015328
   9  C       6.00    1.026177977   -1.256025366    2.392015328
  10  H       1.00    0.337051552   -0.278772398   -4.080731285
  11  H       1.00    0.337051552   -0.278772398    4.080731285
  12  H       1.00    0.448847749   -3.242770030   -2.499729718
  13  H       1.00    0.448847749   -3.242770030    2.499729718
  14  H       1.00    3.100738214   -1.205021658   -2.419454152
  15  H       1.00    3.100738214   -1.205021658    2.419454152

 Bond lengths in Bohr (Angstrom)

 1-2  2.892097881  1-5  2.069933136  1-6  2.069096224  1-7  2.069096224  2-3  2.719106031
     ( 1.530432290)     ( 1.095361444)     ( 1.094918569)     ( 1.094918569)     ( 1.438888946)

  2- 8  2.903104402   2- 9  2.903104402   3- 4  1.834522965   8-10  2.069222119   8-12  2.071730422
       ( 1.536256691)       ( 1.536256691)       ( 0.970787746)       ( 1.094985190)       ( 1.096312526)

  8-14  2.075368508   9-11  2.069222119   9-13  2.071730422   9-15  2.075368508
       ( 1.098237719)       ( 1.094985190)       ( 1.096312526)       ( 1.098237719)

 Bond angles

  1-2-3  104.76902697   1-2-8  110.92255387   1-2-9  110.92255387   2-1-5  110.97328220

  2- 1- 6  110.22090701   2- 1- 7  110.22090701   2- 3- 4  107.25071562   2- 8-10  110.21836376

  2- 8-12  111.57747468   2- 8-14  110.77023896   2- 9-11  110.21836376   2- 9-13  111.57747468

  2- 9-15  110.77023896   3- 2- 8  109.53648747   3- 2- 9  109.53648747   5- 1- 6  108.61190457

  5- 1- 7  108.61190457   6- 1- 7  108.12870271   8- 2- 9  110.96453384  10- 8-12  108.52192632

 10- 8-14  108.08997829  11- 9-13  108.52192632  11- 9-15  108.08997829  12- 8-14  107.54424578

 13- 9-15  107.54424578

 NUCLEAR CHARGE:                   42
 NUMBER OF PRIMITIVE AOS:         295
 NUMBER OF SYMMETRY AOS:          285
 NUMBER OF CONTRACTIONS:          205   ( 205A   )
 NUMBER OF CORE ORBITALS:           5   (   5A   )
 NUMBER OF VALENCE ORBITALS:       30   (  30A   )


 NUCLEAR REPULSION ENERGY  198.77359127


 Eigenvalues of metric

         1 0.151E-04 0.552E-04 0.579E-04 0.110E-03 0.111E-03 0.217E-03 0.237E-03 0.259E-03


 Contracted 2-electron integrals neglected if value below      1.0D-12
 AO integral compression algorithm  1   Integral accuracy      1.0D-12

     1203.503 MB (compressed) written to integral file ( 61.3%)


 NUMBER OF SORTED TWO-ELECTRON INTEGRALS:  222932170.     BUFFER LENGTH:  32768
 NUMBER OF SEGMENTS:  14  SEGMENT LENGTH:   15999503      RECORD LENGTH: 524288

 Memory used in sort:      16.56 MW

 SORT1 READ   245224724. AND WROTE   218324786. INTEGRALS IN    630 RECORDS. CPU TIME:     2.88 SEC, REAL TIME:     5.64 SEC
 SORT2 READ   218324786. AND WROTE   222932170. INTEGRALS IN   4591 RECORDS. CPU TIME:     4.69 SEC, REAL TIME:    23.69 SEC

 FILE SIZES:   FILE 1:  1235.3 MBYTE,  FILE 4:  2642.4 MBYTE,   TOTAL:   3877.7 MBYTE

 OPERATOR DM      FOR CENTER  0  COORDINATES:    0.000000    0.000000    0.000000


 **********************************************************************************************************************************
 DATASETS  * FILE   NREC   LENGTH (MB)   RECORD NAMES
              1      19     1149.90       500      610      700      900      950      970     1000      129      960     1100   
                                          VAR    BASINP    GEOM    SYMINP    ZMAT    AOBASIS   BASIS     P2S    ABASIS      S 
                                         1400     1410     1200     1210     1080     1600     1650     1300     1700   
                                           T        V       H0       H01     AOSYM     SMH    MOLCAS    ERIS     OPER   

 PROGRAMS   *        TOTAL       INT
 CPU TIMES  *        19.22     19.06
 REAL TIME  *        50.93 SEC
 DISK USED  *         3.88 GB      
 **********************************************************************************************************************************

 Density functional group PBE0=PBEX+PBEC
 Functional: PBEX(Automatically generated (new) PBEX)                          Gradient terms: 1
 Functional: PBEC(Automatically generated (new) PBEC)                          Gradient terms: 1
 Use grid at  1800.2


 Exact exchange will be calculated, factor:  0.2500

 Functional: PBEX                      Factor:  0.7500
 Functional: PBEC                      Factor:  1.0000

 Generated new metagrid on record  1800.2 with target accuracy 1.0D-06 and 53396 points in CPU time    1.6
 Computed new grid on record 1800.1 in CPU time    1.7
  167289 words reserved for DFT integration

 PROGRAM * UKS-SCF (Unrestricted Kohn-Sham)     Authors: W. Meyer, H.-J. Werner, P.J. Knowles, 1993

 NUMBER OF ELECTRONS:      21+   21-    SPACE SYMMETRY=1    SPIN SYMMETRY: Singlet 
 CONVERGENCE THRESHOLDS:    1.00E-05 (Density)    1.00E-06 (Energy)
 MAX. NUMBER OF ITERATIONS:       60
 INTERPOLATION TYPE:            DIIS
 INTERPOLATION STEPS:              2 (START)      1 (STEP)
 LEVEL SHIFTS:                 -0.20 (ALPHA)  -0.20 (BETA) 



 Use fine grid record 1800.2 for energy threshold  1.0D-06
 Orbital guess generated from atomic densities. Full valence occupancy:   35

 Molecular orbital dump at record        2200.2

 Initial alpha occupation  21
 Initial beta  occupation  21

 ITERATION    DDIFF          GRAD             ENERGY        2-EL.EN.            DIPOLE MOMENTS         DIIS
    1      0.000D+00      0.000D+00      -233.26429400    617.900326    0.68737   -0.77961    0.00000    0
    2      0.148D-01      0.272D-02      -233.40632122    601.879870    0.26218   -0.49588    0.00000    1
    3      0.515D-02      0.117D-02      -233.42675910    605.642252    0.35549   -0.57207    0.00000    2
    4      0.119D-02      0.186D-03      -233.42765847    605.423638    0.34052   -0.53178    0.00000    3
    5      0.922D-03      0.906D-04      -233.42798412    605.352126    0.33589   -0.53707    0.00000    4
    6      0.479D-03      0.229D-04      -233.42802591    605.336272    0.33432   -0.53525    0.00000    5
    7      0.120D-03      0.684D-05      -233.42802845    605.311771    0.33315   -0.53564    0.00000    6
    8      0.445D-04      0.344D-05      -233.42802889    605.317708    0.33314   -0.53610    0.00000    7
    9      0.139D-04      0.618D-06      -233.42802892    605.317708    0.33311   -0.53592    0.00000    6
   10      0.303D-05      0.216D-06      -233.42802893    605.316997    0.33305   -0.53599    0.00000    7
   11      0.133D-05      0.725D-07      -233.42802893    605.317245    0.33305   -0.53600    0.00000    7

 Final alpha occupancy:  21
 Final beta  occupancy:  21

 !UKS STATE 1.1 Energy               -233.428028927668
 Nuclear energy                       198.77359127
 One-electron energy                 -709.22927304
 Two-electron energy                  302.65862226
 Density functional                   -25.63096943     PBEX=-32.34247263 PBEC= -1.37411496
 Virial quotient                       -1.00669583
 !UKS STATE 1.1 Dipole moment           0.33305477    -0.53599755     0.00000000
 Dipole moment /Debye                   0.84648535    -1.36228065     0.00000000

 Orbital energies for positive spin:

         1.1          2.1          3.1          4.1          5.1          6.1          7.1          8.1          9.1         10.1
    -19.220049   -10.292238   -10.223317   -10.223297   -10.217989    -1.049107    -0.812720    -0.713408    -0.712459    -0.587130

        11.1         12.1         13.1         14.1         15.1         16.1         17.1         18.1         19.1         20.1
     -0.505259    -0.466846    -0.463550    -0.425623    -0.410065    -0.391429    -0.377488    -0.367978    -0.359942    -0.332389

        21.1         22.1         23.1
     -0.285484    -0.007251     0.016393

 Orbital energies for negative spin:

         1.1          2.1          3.1          4.1          5.1          6.1          7.1          8.1          9.1         10.1
    -19.220049   -10.292238   -10.223317   -10.223297   -10.217989    -1.049107    -0.812720    -0.713408    -0.712459    -0.587130

        11.1         12.1         13.1         14.1         15.1         16.1         17.1         18.1         19.1         20.1
     -0.505259    -0.466846    -0.463550    -0.425623    -0.410065    -0.391429    -0.377488    -0.367978    -0.359942    -0.332389

        21.1         22.1         23.1
     -0.285484    -0.007251     0.016393

 HOMO     21.1    -0.285484 =      -7.7684eV
 LUMO     22.1    -0.007251 =      -0.1973eV
 LUMO-HOMO         0.278233 =       7.5711eV

 EXPECTATION VALUE OF S**2:            -0.00000000

 Natural orbitals saved to record    2200.2 (Orbital set 3)

 Orbital spaces for UNO-CAS (Min. occupation: 0.020  Max. occupation: 1.980):

 Closed:       21
 Active:        0


 **********************************************************************************************************************************
 DATASETS  * FILE   NREC   LENGTH (MB)   RECORD NAMES
              1      20     1151.61       500      610      700      900      950      970     1000      129      960     1100   
                                          VAR    BASINP    GEOM    SYMINP    ZMAT    AOBASIS   BASIS     P2S    ABASIS      S 
                                         1400     1410     1200     1210     1080     1600     1650     1300     1700     1800   
                                           T        V       H0       H01     AOSYM     SMH    MOLCAS    ERIS     OPER     GRID   

              2       5        4.72       700     1000      520     1800     2200   
                                         GEOM     BASIS   MCVARS    GRID      UKS  

 PROGRAMS   *        TOTAL       UKS       INT
 CPU TIMES  *       128.66    109.43     19.06
 REAL TIME  *       163.21 SEC
 DISK USED  *         3.88 GB      
 **********************************************************************************************************************************


 PROGRAM * Intrinsic Basis Bonding Analysis (IBBA)          Author: G. Knizia

 Molecular orbitals read from record     2200.2  Type=UKS/ALPHA (state 1.1)
 Fock matrix read from record            2200.2  Type=UKS/TOTAL (state 1.1)
 Orbital energies read from record       2200.2  Type=UKS/ALPHA (state 1.1)
 Density matrix read from record         2200.2  Type=UKS/CHARGE (state 1.1)

 Number of core orbitals:           5 (   5 )
 Number of closed-shell orbitals:  16 (  16 )

 Basis set MINAO-AUTO-PP generated.      Number of basis functions:   35 

 Polarized AO type:                A = (O Ot + (1-O)(1-Ot)) P12
 Orthogonalization method:         Symmetric (Loewdin)
 Localization functional:          L = sum[A,i] <i|n_A|i>^4 -> max

 Localization group 1:  21 orbitals, occupancy  2.000
 Iterative localization: IB/PM,    7 iter; Final gradient 0.39E-08

 Bond order analysis:       [THRPRINT= 0.020]

   CEN ATOM   CEN ATOM     WIBERG.BO      RENORM.BO
     1   C  -   2   C       0.996802       0.993343
     1   C  -   5   H       0.962174       0.987296
     1   C  -   6   H       0.957270       0.981632
     1   C  -   7   H       0.957270       0.981632

     2   C  -   1   C       0.996802       0.993343
     2   C  -   9   C       0.995526       0.975994
     2   C  -   8   C       0.995526       0.975994
     2   C  -   3   O       0.933459       0.948594

     3   O  -   2   C       0.933459       0.948594
     3   O  -   4   H       0.859430       0.976645
     3   O  -   8   C       0.027365       0.013998
     3   O  -   9   C       0.027365       0.013998

     4   H  -   3   O       0.859430       0.976645

     5   H  -   1   C       0.962174       0.987296

     6   H  -   1   C       0.957270       0.981632

     7   H  -   1   C       0.957270       0.981632

     8   C  -   2   C       0.995526       0.975994
     8   C  -  14   H       0.961611       0.982346
     8   C  -  12   H       0.957974       0.981737
     8   C  -  10   H       0.957778       0.981493
     8   C  -   3   O       0.027365       0.013998

     9   C  -   2   C       0.995526       0.975994
     9   C  -  15   H       0.961611       0.982346
     9   C  -  13   H       0.957974       0.981737
     9   C  -  11   H       0.957778       0.981493
     9   C  -   3   O       0.027365       0.013998

    10   H  -   8   C       0.957778       0.981493

    11   H  -   9   C       0.957778       0.981493

    12   H  -   8   C       0.957974       0.981737

    13   H  -   9   C       0.957974       0.981737

    14   H  -   8   C       0.961611       0.982346

    15   H  -   9   C       0.961611       0.982346


 Valency analysis:

   CEN ATOM   TOT.VALENCE
     1   C       3.933332
     2   C       3.931390
     3   O       1.914219
     4   H       0.878835
     5   H       0.980736
     6   H       0.978007
     7   H       0.978007
     8   C       3.936039
     9   C       3.936039
    10   H       0.978035
    11   H       0.978035
    12   H       0.979929
    13   H       0.979929
    14   H       0.982277
    15   H       0.982277

 Total charge composition:

   CEN ATOM         s          p       ELECTRONS ->P.CHARGE
     1   C       3.04673    3.38119      6.42793   -0.42793
     2   C       2.94222    2.80198      5.74420    0.25580
     3   O       3.65141    4.92456      8.57598   -0.57598
     4   H       0.65191                 0.65191    0.34809
     5   H       0.86121                 0.86121    0.13879
     6   H       0.85170                 0.85170    0.14830
     7   H       0.85170                 0.85170    0.14830
     8   C       3.05292    3.38777      6.44069   -0.44069
     9   C       3.05292    3.38777      6.44069   -0.44069
    10   H       0.85179                 0.85179    0.14821
    11   H       0.85179                 0.85179    0.14821
    12   H       0.85833                 0.85833    0.14167
    13   H       0.85833                 0.85833    0.14167
    14   H       0.86687                 0.86687    0.13313
    15   H       0.86687                 0.86687    0.13313

 Total charge composition, AO contributions:

   CEN ATOM SHL      SPHERICAL COMPONENTS
     1   C  1s       1.99104
     1   C  2s       1.05569
     1   C  2p       1.03950    1.16467    1.17702

     2   C  1s       1.99269
     2   C  2s       0.94954
     2   C  2p       1.00635    0.78678    1.00884

     3   O  1s       1.99712
     3   O  2s       1.65430
     3   O  2p       1.47719    1.49046    1.95692

     4   H  1s       0.65191

     5   H  1s       0.86121

     6   H  1s       0.85170

     7   H  1s       0.85170

     8   C  1s       1.99114
     8   C  2s       1.06178
     8   C  2p       1.14646    1.14593    1.09538

     9   C  1s       1.99114
     9   C  2s       1.06178
     9   C  2p       1.14646    1.14593    1.09538

    10   H  1s       0.85179

    11   H  1s       0.85179

    12   H  1s       0.85833

    13   H  1s       0.85833

    14   H  1s       0.86687

    15   H  1s       0.86687

 Summary of localized orbital composition:   [THRPRINT= 0.020]

   ORB  GRP  ORB.ENERGY      CENTERS/CHARGES
     1   1   -19.056681      O  3   2.000
     2   1   -10.199459      C  2   2.000
     3   1   -10.106895      C  8   2.000
     4   1   -10.106895      C  9   2.000
     5   1   -10.100765      C  1   2.000
     6   1    -0.783769      O  3   1.350   H  4   0.640
     7   1    -0.739307      O  3   1.283   C  2   0.699
     8   1    -0.603520      O  3   1.982
     9   1    -0.592061      C  9   1.008   C  2   0.977
    10   1    -0.592061      C  8   1.008   C  2   0.977
    11   1    -0.591530      C  1   0.991   C  2   0.986   (other: 0.023)
    12   1    -0.520631      C  8   1.137   H 12   0.849
    13   1    -0.520631      C  9   1.137   H 13   0.849
    14   1    -0.518765      C  8   1.128   H 14   0.860
    15   1    -0.518765      C  9   1.128   H 15   0.860
    16   1    -0.516412      C  1   1.132   H  5   0.854
    17   1    -0.514619      C  9   1.146   H 11   0.844
    18   1    -0.514619      C  8   1.146   H 10   0.844
    19   1    -0.510082      C  1   1.145   H  6   0.844
    20   1    -0.510082      C  1   1.145   H  7   0.844
    21   1    -0.320190      O  3   1.957   (other: 0.043)

 Localized orbitals saved to record      2200.2  (orbital set 4)


 **********************************************************************************************************************************
 DATASETS  * FILE   NREC   LENGTH (MB)   RECORD NAMES
              1      20     1151.61       500      610      700      900      950      970     1000      129      960     1100   
                                          VAR    BASINP    GEOM    SYMINP    ZMAT    AOBASIS   BASIS     P2S    ABASIS      S 
                                         1400     1410     1200     1210     1080     1600     1650     1300     1700     1800   
                                           T        V       H0       H01     AOSYM     SMH    MOLCAS    ERIS     OPER     GRID   

              2       5        5.06       700     1000      520     1800     2200   
                                         GEOM     BASIS   MCVARS    GRID      UKS  

 PROGRAMS   *        TOTAL      IBBA       UKS       INT
 CPU TIMES  *       128.72      0.06    109.43     19.06
 REAL TIME  *       163.41 SEC
 DISK USED  *         3.88 GB      
 **********************************************************************************************************************************
 Molecular orbitals read from record     2200.2  Type=UKS/LOCAL(IBO)  
 Occupation numbers read from record     2200.2  Type=UKS/LOCAL(IBO)  
 Orbital energies read from record       2200.2  Type=UKS/LOCAL(IBO)  
 Redundancy group numbers read from rec  2200.2  Type=UKS/BETA (state 1.1)

 IBBA/aug-cc-pVDZ energy=      0.000000000000

        UKS-SCF 
   -233.42802893
 **********************************************************************************************************************************
 Molpro calculation terminated
