
 Primary working directories    : /local
 Secondary working directories  : /local
 Wavefunction directory         : /local/
 Main file repository           : /local/

 SHA1      : b4a5b34a9e711420743f49e6833241d17c61fb3c
 NAME      : 2099.9.b4a5b34
 ARCHNAME  : linux/x86_64_openmp
 FC        : /cm/shared/languages/GCC-6.1/bin/gfortran
 BLASLIB   : -lblas
 id        : simonbennie

 Nodes     nprocs
 node35-036    1

 Using customized tuning parameters: mindgm=1; mindgv=20; mindgc=4; mindgr=1; noblas=0; minvec=7
 default implementation of scratch files=df  

 memory,500,m
 geomtyp=xyz
 nosym
 noorient
 geometry={
 C         -1.53233        0.02247        0.00000
 C         -0.00192        0.01421        0.00000
 O          0.37239        1.40356        0.00000
 H          1.34248        1.44036        0.00000
 H         -1.92991       -0.99819        0.00000
 H         -1.90797        0.54382       -0.88653
 H         -1.90797        0.54382        0.88653
 C          0.54303       -0.66466       -1.26580
 C          0.54303       -0.66466        1.26580
 H          0.17836       -0.14752       -2.15943
 H          0.17836       -0.14752        2.15943
 H          0.23752       -1.71600       -1.32280
 H          0.23752       -1.71600        1.32280
 H          1.64084       -0.63767       -1.28032
 H          1.64084       -0.63767        1.28032
 }
 basis={ default,SV(P) }
 {ks,M06-2X,direct;wf,42,1,0}
 {ibba,bonds=1}

 Variables initialized (895), CPU time= 0.00 sec
 Commands  initialized (725), CPU time= 0.02 sec, 591 directives.
 Default parameters read. Elapsed time= 0.09 sec

 Checking input...
 Passed
1


                                         ***  PROGRAM SYSTEM MOLPRO  ***
                                       Copyright, TTI GmbH Stuttgart, 2015
                                    Version 2099.9 linked May 26 2017 16:03:21


 **********************************************************************************************************************************
 LABEL *                                                                                 
  64 bit serial version                                                                  DATE: 12-Jun-17          TIME: 20:09:13  
 **********************************************************************************************************************************

 SHA1:             b4a5b34a9e711420743f49e6833241d17c61fb3c
 **********************************************************************************************************************************
 SETTING GEOMTYP        =    XYZ

 Variable memory set to  500000000 words,  buffer space 

 ZSYMEL=NOSYM

 SETTING BASIS          =    SV(P)


 Recomputing integrals since basis changed


 Using spherical harmonics

 Library entry C      S def2-SV(P)           selected for orbital group  1
 Library entry C      P def2-SV(P)           selected for orbital group  1
 Library entry C      D def2-SV(P)           selected for orbital group  1
 Library entry O      S def2-SV(P)           selected for orbital group  2
 Library entry O      P def2-SV(P)           selected for orbital group  2
 Library entry O      D def2-SV(P)           selected for orbital group  2
 Library entry H      S def2-SV(P)           selected for orbital group  3


 PROGRAM * SEWARD (Integral evaluation for generally contracted gaussian basis sets)     Author: Roland Lindh, 1990

 Geometry written to block  1 of record 700


 Point group  C1  



 ATOMIC COORDINATES

 NR  ATOM    CHARGE       X              Y              Z

   1  C       6.00   -2.895684032    0.042462146    0.000000000
   2  C       6.00   -0.003628274    0.026853008    0.000000000
   3  O       8.00    0.703715112    2.652343999    0.000000000
   4  H       1.00    2.536919528    2.721885921    0.000000000
   5  H       1.00   -3.647001345   -1.886305720    0.000000000
   6  H       1.00   -3.605540754    1.027670861   -1.675298901
   7  H       1.00   -3.605540754    1.027670861    1.675298901
   8  C       6.00    1.026177977   -1.256025366   -2.392015328
   9  C       6.00    1.026177977   -1.256025366    2.392015328
  10  H       1.00    0.337051552   -0.278772398   -4.080731285
  11  H       1.00    0.337051552   -0.278772398    4.080731285
  12  H       1.00    0.448847749   -3.242770030   -2.499729718
  13  H       1.00    0.448847749   -3.242770030    2.499729718
  14  H       1.00    3.100738214   -1.205021658   -2.419454152
  15  H       1.00    3.100738214   -1.205021658    2.419454152

 Bond lengths in Bohr (Angstrom)

 1-2  2.892097881  1-5  2.069933136  1-6  2.069096224  1-7  2.069096224  2-3  2.719106031
     ( 1.530432290)     ( 1.095361444)     ( 1.094918569)     ( 1.094918569)     ( 1.438888946)

  2- 8  2.903104402   2- 9  2.903104402   3- 4  1.834522965   8-10  2.069222119   8-12  2.071730422
       ( 1.536256691)       ( 1.536256691)       ( 0.970787746)       ( 1.094985190)       ( 1.096312526)

  8-14  2.075368508   9-11  2.069222119   9-13  2.071730422   9-15  2.075368508
       ( 1.098237719)       ( 1.094985190)       ( 1.096312526)       ( 1.098237719)

 Bond angles

  1-2-3  104.76902697   1-2-8  110.92255387   1-2-9  110.92255387   2-1-5  110.97328220

  2- 1- 6  110.22090701   2- 1- 7  110.22090701   2- 3- 4  107.25071562   2- 8-10  110.21836376

  2- 8-12  111.57747468   2- 8-14  110.77023896   2- 9-11  110.21836376   2- 9-13  111.57747468

  2- 9-15  110.77023896   3- 2- 8  109.53648747   3- 2- 9  109.53648747   5- 1- 6  108.61190457

  5- 1- 7  108.61190457   6- 1- 7  108.12870271   8- 2- 9  110.96453384  10- 8-12  108.52192632

 10- 8-14  108.08997829  11- 9-13  108.52192632  11- 9-15  108.08997829  12- 8-14  107.54424578

 13- 9-15  107.54424578

 NUCLEAR CHARGE:                   42
 NUMBER OF PRIMITIVE AOS:         165
 NUMBER OF SYMMETRY AOS:          160
 NUMBER OF CONTRACTIONS:           90   (  90A   )
 NUMBER OF CORE ORBITALS:           5   (   5A   )
 NUMBER OF VALENCE ORBITALS:       30   (  30A   )


 NUCLEAR REPULSION ENERGY  198.77359127


 Eigenvalues of metric

         1 0.179E-02 0.600E-02 0.603E-02 0.144E-01 0.286E-01 0.297E-01 0.300E-01 0.361E-01


 Contracted 2-electron integrals neglected if value below      1.0D-11
 AO integral compression algorithm  1   Integral accuracy      1.0D-11

     37.487 MB (compressed) written to integral file ( 49.6%)


 NUMBER OF SORTED TWO-ELECTRON INTEGRALS:    8386560.     BUFFER LENGTH:  32768
 NUMBER OF SEGMENTS:   1  SEGMENT LENGTH:    8386560      RECORD LENGTH: 524288

 Memory used in sort:       8.94 MW

 SORT1 READ     9478508. AND WROTE     7931434. INTEGRALS IN     23 RECORDS. CPU TIME:     0.11 SEC, REAL TIME:     0.23 SEC
 SORT2 READ     7931434. AND WROTE     8386560. INTEGRALS IN    143 RECORDS. CPU TIME:     0.27 SEC, REAL TIME:     0.33 SEC

 FILE SIZES:   FILE 1:    68.0 MBYTE,  FILE 4:    96.5 MBYTE,   TOTAL:    164.5 MBYTE

 OPERATOR DM      FOR CENTER  0  COORDINATES:    0.000000    0.000000    0.000000


 **********************************************************************************************************************************
 DATASETS  * FILE   NREC   LENGTH (MB)   RECORD NAMES
              1      19       63.39       500      610      700      900      950      970     1000      129      960     1100   
                                          VAR    BASINP    GEOM    SYMINP    ZMAT    AOBASIS   BASIS     P2S    ABASIS      S 
                                         1400     1410     1200     1210     1080     1600     1650     1300     1700   
                                           T        V       H0       H01     AOSYM     SMH    MOLCAS    ERIS     OPER   

 PROGRAMS   *        TOTAL       INT
 CPU TIMES  *         1.88      1.73
 REAL TIME  *         2.54 SEC
 DISK USED  *       165.03 MB      
 **********************************************************************************************************************************

 Density functional group M06-2X=XC-M06-2X
 Functional: XC-M06-2X(via MFM 1.6)                                            Gradient terms: 1
 Use grid at  1800.2


 Exact exchange will be calculated, factor:  0.5400

 Functional: XC-M06-2X                 Factor:  1.0000

 Generated new metagrid on record  1800.2 with target accuracy 1.0D-06 and 53396 points in CPU time    1.7
 Computed new grid on record 1800.1 in CPU time    1.9
   75909 words reserved for DFT integration

 PROGRAM * RKS-SCF (Restricted closed shell Kohn-Sham)     Authors: W. Meyer, H.-J. Werner, P.J. Knowles, 1993

 NUMBER OF ELECTRONS:      21+   21-    SPACE SYMMETRY=1    SPIN SYMMETRY: Singlet 
 CONVERGENCE THRESHOLDS:    1.00E-05 (Density)    1.00E-06 (Energy)
 MAX. NUMBER OF ITERATIONS:       60
 INTERPOLATION TYPE:            DIIS
 INTERPOLATION STEPS:              2 (START)      1 (STEP)
 LEVEL SHIFTS:                  0.00 (CLOSED)  0.00 (OPEN) 



 Use fine grid record 1800.2 for energy threshold  1.0D-06
 Orbital guess generated from atomic densities. Full valence occupancy:   21

 Molecular orbital dump at record        2100.2

 Initial occupancy:  21

 ITERATION    DDIFF          GRAD             ENERGY        2-EL.EN.            DIPOLE MOMENTS         DIIS   ORB.
    1      0.000D+00      0.000D+00      -233.22397694    595.748569    0.74620   -0.85756    0.00000    0    start
    2      0.000D+00      0.911D-02      -233.26241877    577.768553    0.15778   -0.21585    0.00000    1    diag
    3      0.172D-01      0.812D-02      -233.34885136    586.435684    0.39620   -0.53918    0.00000    2    diag
    4      0.860D-02      0.743D-03      -233.34931638    586.326020    0.39285   -0.47966    0.00000    3    diag
    5      0.903D-03      0.396D-03      -233.34950797    586.266612    0.39463   -0.50864    0.00000    4    diag
    6      0.416D-03      0.532D-04      -233.34951158    586.306963    0.39364   -0.50554    0.00000    5    diag
    7      0.839D-04      0.170D-04      -233.34951197    586.295949    0.39350   -0.50513    0.00000    6    diag
    8      0.187D-04      0.355D-05      -233.34951199    586.298110    0.39366   -0.50532    0.00000    7    diag
    9      0.589D-05      0.342D-06      -233.34951199    586.298097    0.39361   -0.50528    0.00000    0    orth

 Final occupancy:  21

 !RKS STATE 1.1 Energy               -233.349511988498
 Nuclear energy                       198.77359127
 One-electron energy                 -708.92667100
 Two-electron energy                  293.14904845
 SCF exchange energy                  -32.46329587     Factor= 0.5400
 Density functional                   -16.34548071     XC-M06-2X=-16.34548071
 Virial quotient                       -1.00954060
 !RKS STATE 1.1 Dipole moment           0.39360944    -0.50527899     0.00000000
 Dipole moment /Debye                   1.00038988    -1.28420699     0.00000000

 Orbital energies:

         1.1          2.1          3.1          4.1          5.1          6.1          7.1          8.1          9.1         10.1
    -19.613862   -10.604763   -10.536189   -10.536170   -10.530109    -1.116154    -0.875653    -0.773931    -0.772574    -0.641873

        11.1         12.1         13.1         14.1         15.1         16.1         17.1         18.1         19.1         20.1
     -0.559558    -0.521911    -0.519286    -0.478873    -0.463956    -0.442461    -0.429660    -0.418304    -0.411718    -0.378816

        21.1         22.1         23.1
     -0.336879     0.075955     0.127714

 HOMO     21.1    -0.336879 =      -9.1669eV
 LUMO     22.1     0.075955 =       2.0668eV
 LUMO-HOMO         0.412833 =      11.2338eV


 **********************************************************************************************************************************
 DATASETS  * FILE   NREC   LENGTH (MB)   RECORD NAMES
              1      20       65.10       500      610      700      900      950      970     1000      129      960     1100   
                                          VAR    BASINP    GEOM    SYMINP    ZMAT    AOBASIS   BASIS     P2S    ABASIS      S 
                                         1400     1410     1200     1210     1080     1600     1650     1300     1700     1800   
                                           T        V       H0       H01     AOSYM     SMH    MOLCAS    ERIS     OPER     GRID   

              2       5        3.17       700     1000      520     1800     2100   
                                         GEOM     BASIS   MCVARS    GRID      RKS  

 PROGRAMS   *        TOTAL        KS       INT
 CPU TIMES  *        25.62     23.74      1.73
 REAL TIME  *        26.75 SEC
 DISK USED  *       165.03 MB      
 **********************************************************************************************************************************


 PROGRAM * Intrinsic Basis Bonding Analysis (IBBA)          Author: G. Knizia

 Molecular orbitals read from record     2100.2  Type=RKS/CANONICAL (state 1.1)
 Fock matrix read from record            2100.2  Type=RKS/TOTAL (state 1.1)
 Orbital energies read from record       2100.2  Type=RKS/CANONICAL (state 1.1)
 Density matrix read from record         2100.2  Type=RKS/CHARGE (state 1.1)

 Number of core orbitals:           5 (   5 )
 Number of closed-shell orbitals:  16 (  16 )

 Basis set MINAO-AUTO-PP generated.      Number of basis functions:   35 

 Polarized AO type:                A = (O Ot + (1-O)(1-Ot)) P12
 Orthogonalization method:         Symmetric (Loewdin)
 Localization functional:          L = sum[A,i] <i|n_A|i>^4 -> max

 Localization group 1:  21 orbitals, occupancy  2.000
 Iterative localization: IB/PM,    7 iter; Final gradient 0.46E-08

 Bond order analysis:       [THRPRINT= 0.020]

   CEN ATOM   CEN ATOM     WIBERG.BO      RENORM.BO
     1   C  -   2   C       0.994192       0.992697
     1   C  -   5   H       0.967613       0.988278
     1   C  -   6   H       0.962913       0.983592
     1   C  -   7   H       0.962913       0.983592

     2   C  -   1   C       0.994192       0.992697
     2   C  -   9   C       0.993444       0.976105
     2   C  -   8   C       0.993444       0.976105
     2   C  -   3   O       0.941021       0.956821

     3   O  -   2   C       0.941021       0.956821
     3   O  -   4   H       0.879534       0.979105
     3   O  -   9   C       0.025249       0.013011
     3   O  -   8   C       0.025249       0.013011

     4   H  -   3   O       0.879534       0.979105

     5   H  -   1   C       0.967613       0.988278

     6   H  -   1   C       0.962913       0.983592

     7   H  -   1   C       0.962913       0.983592

     8   C  -   2   C       0.993444       0.976105
     8   C  -  14   H       0.966931       0.984007
     8   C  -  12   H       0.964141       0.984738
     8   C  -  10   H       0.963192       0.983367
     8   C  -   3   O       0.025249       0.013011

     9   C  -   2   C       0.993444       0.976105
     9   C  -  15   H       0.966931       0.984007
     9   C  -  13   H       0.964141       0.984738
     9   C  -  11   H       0.963192       0.983367
     9   C  -   3   O       0.025249       0.013011

    10   H  -   8   C       0.963192       0.983367

    11   H  -   9   C       0.963192       0.983367

    12   H  -   8   C       0.964141       0.984738

    13   H  -   9   C       0.964141       0.984738

    14   H  -   8   C       0.966931       0.984007

    15   H  -   9   C       0.966931       0.984007


 Valency analysis:

   CEN ATOM   TOT.VALENCE
     1   C       3.943267
     2   C       3.933703
     3   O       1.930186
     4   H       0.897006
     5   H       0.985455
     6   H       0.982913
     7   H       0.982913
     8   C       3.945579
     9   C       3.945579
    10   H       0.982820
    11   H       0.982820
    12   H       0.984404
    13   H       0.984404
    14   H       0.986900
    15   H       0.986900

 Total charge composition:

   CEN ATOM         s          p       ELECTRONS ->P.CHARGE
     1   C       3.01022    3.36253      6.37275   -0.37275
     2   C       2.91866    2.83314      5.75180    0.24820
     3   O       3.62632    4.91580      8.54213   -0.54213
     4   H       0.67907                 0.67907    0.32093
     5   H       0.87940                 0.87940    0.12060
     6   H       0.86928                 0.86928    0.13072
     7   H       0.86928                 0.86928    0.13072
     8   C       3.01595    3.37261      6.38856   -0.38856
     9   C       3.01595    3.37261      6.38856   -0.38856
    10   H       0.86893                 0.86893    0.13107
    11   H       0.86893                 0.86893    0.13107
    12   H       0.87512                 0.87512    0.12488
    13   H       0.87512                 0.87512    0.12488
    14   H       0.88554                 0.88554    0.11446
    15   H       0.88554                 0.88554    0.11446

 Total charge composition, AO contributions:

   CEN ATOM SHL      SPHERICAL COMPONENTS
     1   C  1s       1.99060
     1   C  2s       1.01961
     1   C  2p       1.04272    1.15392    1.16589

     2   C  1s       1.99225
     2   C  2s       0.92641
     2   C  2p       1.01814    0.79990    1.01510

     3   O  1s       1.99696
     3   O  2s       1.62936
     3   O  2p       1.46309    1.49210    1.96061

     4   H  1s       0.67907

     5   H  1s       0.87940

     6   H  1s       0.86928

     7   H  1s       0.86928

     8   C  1s       1.99070
     8   C  2s       1.02524
     8   C  2p       1.13678    1.13925    1.09659

     9   C  1s       1.99070
     9   C  2s       1.02524
     9   C  2p       1.13678    1.13925    1.09659

    10   H  1s       0.86893

    11   H  1s       0.86893

    12   H  1s       0.87512

    13   H  1s       0.87512

    14   H  1s       0.88554

    15   H  1s       0.88554

 Summary of localized orbital composition:   [THRPRINT= 0.020]

   ORB  GRP  ORB.ENERGY      CENTERS/CHARGES
     1   1   -19.454135      O  3   2.000
     2   1   -10.510381      C  2   2.000
     3   1   -10.419530      C  8   2.000
     4   1   -10.419530      C  9   2.000
     5   1   -10.412615      C  1   2.000
     6   1    -0.845845      O  3   1.322   H  4   0.669
     7   1    -0.806832      O  3   1.272   C  2   0.712
     8   1    -0.646726      C  8   1.008   C  2   0.978
     9   1    -0.646726      C  9   1.008   C  2   0.978
    10   1    -0.645810      C  2   0.991   C  1   0.987   (other: 0.023)
    11   1    -0.641522      O  3   1.983
    12   1    -0.575189      C  9   1.121   H 13   0.867
    13   1    -0.575189      C  8   1.121   H 12   0.867
    14   1    -0.574366      C  9   1.110   H 15   0.879
    15   1    -0.574366      C  8   1.110   H 14   0.879
    16   1    -0.570888      C  1   1.115   H  5   0.873
    17   1    -0.569041      C  8   1.129   H 10   0.861
    18   1    -0.569041      C  9   1.129   H 11   0.861
    19   1    -0.563100      C  1   1.128   H  7   0.862
    20   1    -0.563100      C  1   1.128   H  6   0.862
    21   1    -0.378770      O  3   1.961   (other: 0.039)

 Localized orbitals saved to record      2100.2  (orbital set 2)


 **********************************************************************************************************************************
 DATASETS  * FILE   NREC   LENGTH (MB)   RECORD NAMES
              1      20       65.10       500      610      700      900      950      970     1000      129      960     1100   
                                          VAR    BASINP    GEOM    SYMINP    ZMAT    AOBASIS   BASIS     P2S    ABASIS      S 
                                         1400     1410     1200     1210     1080     1600     1650     1300     1700     1800   
                                           T        V       H0       H01     AOSYM     SMH    MOLCAS    ERIS     OPER     GRID   

              2       5        3.24       700     1000      520     1800     2100   
                                         GEOM     BASIS   MCVARS    GRID      RKS  

 PROGRAMS   *        TOTAL      IBBA        KS       INT
 CPU TIMES  *        25.66      0.04     23.74      1.73
 REAL TIME  *        26.88 SEC
 DISK USED  *       165.03 MB      
 **********************************************************************************************************************************
 Molecular orbitals read from record     2100.2  Type=RKS/LOCAL(IBO)  
 Occupation numbers read from record     2100.2  Type=RKS/LOCAL(IBO)  
 Orbital energies read from record       2100.2  Type=RKS/LOCAL(IBO)  
 Redundancy group numbers read from rec  2100.2  Type=RKS/LOCAL(IBO)  

 IBBA/SV(P) energy=      0.000000000000

        KS-SCF  
   -233.34951199
 **********************************************************************************************************************************
 Molpro calculation terminated
