
 Primary working directories    : /local
 Secondary working directories  : /local
 Wavefunction directory         : /local/
 Main file repository           : /local/

 SHA1      : b4a5b34a9e711420743f49e6833241d17c61fb3c
 NAME      : 2099.9.b4a5b34
 ARCHNAME  : linux/x86_64_openmp
 FC        : /cm/shared/languages/GCC-6.1/bin/gfortran
 BLASLIB   : -lblas
 id        : simonbennie

 Nodes     nprocs
 node32-022    1

 Using customized tuning parameters: mindgm=1; mindgv=20; mindgc=4; mindgr=1; noblas=0; minvec=7
 default implementation of scratch files=df  

 memory,500,m
 geomtyp=xyz
 nosym
 noorient
 geometry={
 C         -1.53233        0.02247        0.00000
 C         -0.00192        0.01421        0.00000
 O          0.37239        1.40356        0.00000
 H          1.34248        1.44036        0.00000
 H         -1.92991       -0.99819        0.00000
 H         -1.90797        0.54382       -0.88653
 H         -1.90797        0.54382        0.88653
 C          0.54303       -0.66466       -1.26580
 C          0.54303       -0.66466        1.26580
 H          0.17836       -0.14752       -2.15943
 H          0.17836       -0.14752        2.15943
 H          0.23752       -1.71600       -1.32280
 H          0.23752       -1.71600        1.32280
 H          1.64084       -0.63767       -1.28032
 H          1.64084       -0.63767        1.28032
 }
 basis={ default,SV(P) }
 {uks,MM06-L,direct;wf,42,1,0}
 {ibba,bonds=1}

 Variables initialized (895), CPU time= 0.01 sec
 Commands  initialized (725), CPU time= 0.01 sec, 591 directives.
 Default parameters read. Elapsed time= 0.08 sec

 Checking input...
 Passed
1


                                         ***  PROGRAM SYSTEM MOLPRO  ***
                                       Copyright, TTI GmbH Stuttgart, 2015
                                    Version 2099.9 linked May 26 2017 16:03:21


 **********************************************************************************************************************************
 LABEL *                                                                                 
  64 bit serial version                                                                  DATE: 12-Jun-17          TIME: 20:28:32  
 **********************************************************************************************************************************

 SHA1:             b4a5b34a9e711420743f49e6833241d17c61fb3c
 **********************************************************************************************************************************
 SETTING GEOMTYP        =    XYZ

 Variable memory set to  500000000 words,  buffer space 

 ZSYMEL=NOSYM

 SETTING BASIS          =    SV(P)


 Recomputing integrals since basis changed


 Using spherical harmonics

 Library entry C      S def2-SV(P)           selected for orbital group  1
 Library entry C      P def2-SV(P)           selected for orbital group  1
 Library entry C      D def2-SV(P)           selected for orbital group  1
 Library entry O      S def2-SV(P)           selected for orbital group  2
 Library entry O      P def2-SV(P)           selected for orbital group  2
 Library entry O      D def2-SV(P)           selected for orbital group  2
 Library entry H      S def2-SV(P)           selected for orbital group  3


 PROGRAM * SEWARD (Integral evaluation for generally contracted gaussian basis sets)     Author: Roland Lindh, 1990

 Geometry written to block  1 of record 700


 Point group  C1  



 ATOMIC COORDINATES

 NR  ATOM    CHARGE       X              Y              Z

   1  C       6.00   -2.895684032    0.042462146    0.000000000
   2  C       6.00   -0.003628274    0.026853008    0.000000000
   3  O       8.00    0.703715112    2.652343999    0.000000000
   4  H       1.00    2.536919528    2.721885921    0.000000000
   5  H       1.00   -3.647001345   -1.886305720    0.000000000
   6  H       1.00   -3.605540754    1.027670861   -1.675298901
   7  H       1.00   -3.605540754    1.027670861    1.675298901
   8  C       6.00    1.026177977   -1.256025366   -2.392015328
   9  C       6.00    1.026177977   -1.256025366    2.392015328
  10  H       1.00    0.337051552   -0.278772398   -4.080731285
  11  H       1.00    0.337051552   -0.278772398    4.080731285
  12  H       1.00    0.448847749   -3.242770030   -2.499729718
  13  H       1.00    0.448847749   -3.242770030    2.499729718
  14  H       1.00    3.100738214   -1.205021658   -2.419454152
  15  H       1.00    3.100738214   -1.205021658    2.419454152

 Bond lengths in Bohr (Angstrom)

 1-2  2.892097881  1-5  2.069933136  1-6  2.069096224  1-7  2.069096224  2-3  2.719106031
     ( 1.530432290)     ( 1.095361444)     ( 1.094918569)     ( 1.094918569)     ( 1.438888946)

  2- 8  2.903104402   2- 9  2.903104402   3- 4  1.834522965   8-10  2.069222119   8-12  2.071730422
       ( 1.536256691)       ( 1.536256691)       ( 0.970787746)       ( 1.094985190)       ( 1.096312526)

  8-14  2.075368508   9-11  2.069222119   9-13  2.071730422   9-15  2.075368508
       ( 1.098237719)       ( 1.094985190)       ( 1.096312526)       ( 1.098237719)

 Bond angles

  1-2-3  104.76902697   1-2-8  110.92255387   1-2-9  110.92255387   2-1-5  110.97328220

  2- 1- 6  110.22090701   2- 1- 7  110.22090701   2- 3- 4  107.25071562   2- 8-10  110.21836376

  2- 8-12  111.57747468   2- 8-14  110.77023896   2- 9-11  110.21836376   2- 9-13  111.57747468

  2- 9-15  110.77023896   3- 2- 8  109.53648747   3- 2- 9  109.53648747   5- 1- 6  108.61190457

  5- 1- 7  108.61190457   6- 1- 7  108.12870271   8- 2- 9  110.96453384  10- 8-12  108.52192632

 10- 8-14  108.08997829  11- 9-13  108.52192632  11- 9-15  108.08997829  12- 8-14  107.54424578

 13- 9-15  107.54424578

 NUCLEAR CHARGE:                   42
 NUMBER OF PRIMITIVE AOS:         165
 NUMBER OF SYMMETRY AOS:          160
 NUMBER OF CONTRACTIONS:           90   (  90A   )
 NUMBER OF CORE ORBITALS:           5   (   5A   )
 NUMBER OF VALENCE ORBITALS:       30   (  30A   )


 NUCLEAR REPULSION ENERGY  198.77359127


 Eigenvalues of metric

         1 0.179E-02 0.600E-02 0.603E-02 0.144E-01 0.286E-01 0.297E-01 0.300E-01 0.361E-01


 Contracted 2-electron integrals neglected if value below      1.0D-11
 AO integral compression algorithm  1   Integral accuracy      1.0D-11

     37.487 MB (compressed) written to integral file ( 49.6%)


 NUMBER OF SORTED TWO-ELECTRON INTEGRALS:    8386560.     BUFFER LENGTH:  32768
 NUMBER OF SEGMENTS:   1  SEGMENT LENGTH:    8386560      RECORD LENGTH: 524288

 Memory used in sort:       8.94 MW

 SORT1 READ     9478508. AND WROTE     7931434. INTEGRALS IN     23 RECORDS. CPU TIME:     0.10 SEC, REAL TIME:     0.21 SEC
 SORT2 READ     7931434. AND WROTE     8386560. INTEGRALS IN    143 RECORDS. CPU TIME:     0.22 SEC, REAL TIME:     0.29 SEC

 FILE SIZES:   FILE 1:    68.0 MBYTE,  FILE 4:    96.5 MBYTE,   TOTAL:    164.5 MBYTE

 OPERATOR DM      FOR CENTER  0  COORDINATES:    0.000000    0.000000    0.000000


 **********************************************************************************************************************************
 DATASETS  * FILE   NREC   LENGTH (MB)   RECORD NAMES
              1      19       63.39       500      610      700      900      950      970     1000      129      960     1100   
                                          VAR    BASINP    GEOM    SYMINP    ZMAT    AOBASIS   BASIS     P2S    ABASIS      S 
                                         1400     1410     1200     1210     1080     1600     1650     1300     1700   
                                           T        V       H0       H01     AOSYM     SMH    MOLCAS    ERIS     OPER   

 PROGRAMS   *        TOTAL       INT
 CPU TIMES  *         1.68      1.55
 REAL TIME  *         2.28 SEC
 DISK USED  *       165.03 MB      
 **********************************************************************************************************************************

 Density functional group MM06-L=M06LX+M06LC
 Functional: M06LX(Automatically generated (new) M06LX)                        Gradient terms: 2
 Functional: M06LC(Automatically generated (new) M06LC)                        Gradient terms: 2
 Use grid at  1800.2

 Functional: M06LX                     Factor:  1.0000
 Functional: M06LC                     Factor:  1.0000

 Generated new metagrid on record  1800.2 with target accuracy 1.0D-06 and 53396 points in CPU time    1.5
 Computed new grid on record 1800.1 in CPU time    1.7
  144489 words reserved for DFT integration

 PROGRAM * UKS-SCF (Unrestricted Kohn-Sham)     Authors: W. Meyer, H.-J. Werner, P.J. Knowles, 1993

 NUMBER OF ELECTRONS:      21+   21-    SPACE SYMMETRY=1    SPIN SYMMETRY: Singlet 
 CONVERGENCE THRESHOLDS:    1.00E-05 (Density)    1.00E-06 (Energy)
 MAX. NUMBER OF ITERATIONS:       60
 INTERPOLATION TYPE:            DIIS
 INTERPOLATION STEPS:              2 (START)      1 (STEP)
 LEVEL SHIFTS:                 -0.20 (ALPHA)  -0.20 (BETA) 



 Use fine grid record 1800.2 for energy threshold  1.0D-06
 Orbital guess generated from atomic densities. Full valence occupancy:   21

 Molecular orbital dump at record        2200.2

 Initial alpha occupation  21
 Initial beta  occupation  21

 ITERATION    DDIFF          GRAD             ENERGY        2-EL.EN.            DIPOLE MOMENTS         DIIS
    1      0.000D+00      0.000D+00      -233.21090971    636.972183    0.71759   -0.84701    0.00000    0
    2      0.170D-01      0.731D-02      -233.39374277    616.335978    0.30508   -0.44898    0.00000    1
    3      0.530D-02      0.349D-02      -233.43353064    622.056932    0.40851   -0.55392    0.00000    2
    4      0.965D-03      0.444D-03      -233.43433763    621.863089    0.39597   -0.50131    0.00000    3
    5      0.643D-03      0.177D-03      -233.43455027    621.778018    0.39230   -0.49710    0.00000    4
    6      0.256D-03      0.407D-04      -233.43456734    621.766010    0.39168   -0.49135    0.00000    5
    7      0.452D-04      0.143D-04      -233.43456827    621.752639    0.39100   -0.49074    0.00000    6
    8      0.180D-04      0.589D-05      -233.43456846    621.758502    0.39097   -0.49099    0.00000    7
    9      0.418D-05      0.598D-06      -233.43456846    621.758126    0.39094   -0.49086    0.00000    6
   10      0.109D-05      0.180D-06      -233.43456846    621.758361    0.39093   -0.49091    0.00000    6

 Final alpha occupancy:  21
 Final beta  occupancy:  21

 !UKS STATE 1.1 Energy               -233.434568464571
 Nuclear energy                       198.77359127
 One-electron energy                 -709.07798591
 Two-electron energy                  310.87918072
 Density functional                   -34.00935454     M06LX=-32.50608714 M06LC= -1.50326741
 Virial quotient                       -1.00894271
 !UKS STATE 1.1 Dipole moment           0.39092623    -0.49090696     0.00000000
 Dipole moment /Debye                   0.99357029    -1.24767931     0.00000000

 Orbital energies for positive spin:

         1.1          2.1          3.1          4.1          5.1          6.1          7.1          8.1          9.1         10.1
    -18.952048   -10.112965   -10.044854   -10.044846   -10.038950    -0.969756    -0.741309    -0.646156    -0.644671    -0.524742

        11.1         12.1         13.1         14.1         15.1         16.1         17.1         18.1         19.1         20.1
     -0.449893    -0.412155    -0.409839    -0.373292    -0.361265    -0.344724    -0.332294    -0.318215    -0.313241    -0.282856

        21.1         22.1         23.1
     -0.226905     0.049910     0.089727

 Orbital energies for negative spin:

         1.1          2.1          3.1          4.1          5.1          6.1          7.1          8.1          9.1         10.1
    -18.952048   -10.112965   -10.044854   -10.044846   -10.038950    -0.969756    -0.741309    -0.646156    -0.644671    -0.524742

        11.1         12.1         13.1         14.1         15.1         16.1         17.1         18.1         19.1         20.1
     -0.449893    -0.412155    -0.409839    -0.373292    -0.361265    -0.344724    -0.332294    -0.318215    -0.313241    -0.282856

        21.1         22.1         23.1
     -0.226905     0.049910     0.089727

 HOMO     21.1    -0.226905 =      -6.1744eV
 LUMO     22.1     0.049910 =       1.3581eV
 LUMO-HOMO         0.276815 =       7.5325eV

 EXPECTATION VALUE OF S**2:            -0.00000000

 Natural orbitals saved to record    2200.2 (Orbital set 3)

 Orbital spaces for UNO-CAS (Min. occupation: 0.020  Max. occupation: 1.980):

 Closed:       21
 Active:        0


 **********************************************************************************************************************************
 DATASETS  * FILE   NREC   LENGTH (MB)   RECORD NAMES
              1      20       65.10       500      610      700      900      950      970     1000      129      960     1100   
                                          VAR    BASINP    GEOM    SYMINP    ZMAT    AOBASIS   BASIS     P2S    ABASIS      S 
                                         1400     1410     1200     1210     1080     1600     1650     1300     1700     1800   
                                           T        V       H0       H01     AOSYM     SMH    MOLCAS    ERIS     OPER     GRID   

              2       5        3.34       700     1000      520     1800     2200   
                                         GEOM     BASIS   MCVARS    GRID      UKS  

 PROGRAMS   *        TOTAL       UKS       INT
 CPU TIMES  *        58.54     56.86      1.55
 REAL TIME  *        59.46 SEC
 DISK USED  *       165.03 MB      
 **********************************************************************************************************************************


 PROGRAM * Intrinsic Basis Bonding Analysis (IBBA)          Author: G. Knizia

 Molecular orbitals read from record     2200.2  Type=UKS/ALPHA (state 1.1)
 Fock matrix read from record            2200.2  Type=UKS/TOTAL (state 1.1)
 Orbital energies read from record       2200.2  Type=UKS/ALPHA (state 1.1)
 Density matrix read from record         2200.2  Type=UKS/CHARGE (state 1.1)

 Number of core orbitals:           5 (   5 )
 Number of closed-shell orbitals:  16 (  16 )

 Basis set MINAO-AUTO-PP generated.      Number of basis functions:   35 

 Polarized AO type:                A = (O Ot + (1-O)(1-Ot)) P12
 Orthogonalization method:         Symmetric (Loewdin)
 Localization functional:          L = sum[A,i] <i|n_A|i>^4 -> max

 Localization group 1:  21 orbitals, occupancy  2.000
 Iterative localization: IB/PM,    7 iter; Final gradient 0.26E-08

 Bond order analysis:       [THRPRINT= 0.020]

   CEN ATOM   CEN ATOM     WIBERG.BO      RENORM.BO
     1   C  -   2   C       0.995845       0.993672
     1   C  -   5   H       0.966823       0.987462
     1   C  -   6   H       0.962361       0.981791
     1   C  -   7   H       0.962361       0.981791

     2   C  -   1   C       0.995845       0.993672
     2   C  -   9   C       0.994245       0.975079
     2   C  -   8   C       0.994245       0.975079
     2   C  -   3   O       0.935276       0.951016

     3   O  -   2   C       0.935276       0.951016
     3   O  -   4   H       0.875831       0.978343
     3   O  -   8   C       0.028096       0.014298
     3   O  -   9   C       0.028096       0.014298

     4   H  -   3   O       0.875831       0.978343

     5   H  -   1   C       0.966823       0.987462

     6   H  -   1   C       0.962361       0.981791

     7   H  -   1   C       0.962361       0.981791

     8   C  -   2   C       0.994245       0.975079
     8   C  -  14   H       0.966217       0.982405
     8   C  -  10   H       0.962628       0.981464
     8   C  -  12   H       0.962216       0.981060
     8   C  -   3   O       0.028096       0.014298

     9   C  -   2   C       0.994245       0.975079
     9   C  -  15   H       0.966217       0.982405
     9   C  -  11   H       0.962628       0.981464
     9   C  -  13   H       0.962216       0.981060
     9   C  -   3   O       0.028096       0.014298

    10   H  -   8   C       0.962628       0.981464

    11   H  -   9   C       0.962628       0.981464

    12   H  -   8   C       0.962216       0.981060

    13   H  -   9   C       0.962216       0.981060

    14   H  -   8   C       0.966217       0.982405

    15   H  -   9   C       0.966217       0.982405


 Valency analysis:

   CEN ATOM   TOT.VALENCE
     1   C       3.947173
     2   C       3.930235
     3   O       1.934826
     4   H       0.894400
     5   H       0.984950
     6   H       0.982807
     7   H       0.982807
     8   C       3.948804
     9   C       3.948804
    10   H       0.982770
    11   H       0.982770
    12   H       0.984234
    13   H       0.984234
    14   H       0.986472
    15   H       0.986472

 Total charge composition:

   CEN ATOM         s          p       ELECTRONS ->P.CHARGE
     1   C       3.03438    3.34750      6.38188   -0.38188
     2   C       2.92889    2.80050      5.72938    0.27062
     3   O       3.65246    4.89800      8.55046   -0.55046
     4   H       0.67504                 0.67504    0.32496
     5   H       0.87732                 0.87732    0.12268
     6   H       0.86888                 0.86888    0.13112
     7   H       0.86888                 0.86888    0.13112
     8   C       3.04036    3.35685      6.39721   -0.39721
     9   C       3.04036    3.35685      6.39721   -0.39721
    10   H       0.86874                 0.86874    0.13126
    11   H       0.86874                 0.86874    0.13126
    12   H       0.87444                 0.87444    0.12556
    13   H       0.87444                 0.87444    0.12556
    14   H       0.88369                 0.88369    0.11631
    15   H       0.88369                 0.88369    0.11631

 Total charge composition, AO contributions:

   CEN ATOM SHL      SPHERICAL COMPONENTS
     1   C  1s       1.99080
     1   C  2s       1.04358
     1   C  2p       1.04423    1.14618    1.15709

     2   C  1s       1.99247
     2   C  2s       0.93642
     2   C  2p       1.00622    0.78791    1.00637

     3   O  1s       1.99705
     3   O  2s       1.65541
     3   O  2p       1.45563    1.48772    1.95465

     4   H  1s       0.67504

     5   H  1s       0.87732

     6   H  1s       0.86888

     7   H  1s       0.86888

     8   C  1s       1.99090
     8   C  2s       1.04945
     8   C  2p       1.13100    1.13246    1.09340

     9   C  1s       1.99090
     9   C  2s       1.04945
     9   C  2p       1.13100    1.13246    1.09340

    10   H  1s       0.86874

    11   H  1s       0.86874

    12   H  1s       0.87444

    13   H  1s       0.87444

    14   H  1s       0.88369

    15   H  1s       0.88369

 Summary of localized orbital composition:   [THRPRINT= 0.020]

   ORB  GRP  ORB.ENERGY      CENTERS/CHARGES
     1   1   -18.792701      O  3   2.000
     2   1   -10.021940      C  2   2.000
     3   1    -9.930676      C  8   2.000
     4   1    -9.930676      C  9   2.000
     5   1    -9.923930      C  1   2.000
     6   1    -0.717614      O  3   1.326   H  4   0.664
     7   1    -0.674816      O  3   1.284   C  2   0.697
     8   1    -0.537603      C  9   1.012   C  2   0.972
     9   1    -0.537603      C  8   1.012   C  2   0.972
    10   1    -0.536755      C  1   0.994   C  2   0.982   (other: 0.024)
    11   1    -0.528472      O  3   1.982
    12   1    -0.467123      C  8   1.121   H 12   0.865
    13   1    -0.467123      C  9   1.121   H 13   0.865
    14   1    -0.466011      C  9   1.112   H 15   0.877
    15   1    -0.466011      C  8   1.112   H 14   0.877
    16   1    -0.463106      C  1   1.116   H  5   0.870
    17   1    -0.460174      C  9   1.129   H 11   0.861
    18   1    -0.460174      C  8   1.129   H 10   0.861
    19   1    -0.454349      C  1   1.128   H  7   0.861
    20   1    -0.454349      C  1   1.128   H  6   0.861
    21   1    -0.253752      O  3   1.955   (other: 0.045)

 Localized orbitals saved to record      2200.2  (orbital set 4)


 **********************************************************************************************************************************
 DATASETS  * FILE   NREC   LENGTH (MB)   RECORD NAMES
              1      20       65.10       500      610      700      900      950      970     1000      129      960     1100   
                                          VAR    BASINP    GEOM    SYMINP    ZMAT    AOBASIS   BASIS     P2S    ABASIS      S 
                                         1400     1410     1200     1210     1080     1600     1650     1300     1700     1800   
                                           T        V       H0       H01     AOSYM     SMH    MOLCAS    ERIS     OPER     GRID   

              2       5        3.40       700     1000      520     1800     2200   
                                         GEOM     BASIS   MCVARS    GRID      UKS  

 PROGRAMS   *        TOTAL      IBBA       UKS       INT
 CPU TIMES  *        58.58      0.03     56.86      1.55
 REAL TIME  *        59.60 SEC
 DISK USED  *       165.03 MB      
 **********************************************************************************************************************************
 Molecular orbitals read from record     2200.2  Type=UKS/LOCAL(IBO)  
 Occupation numbers read from record     2200.2  Type=UKS/LOCAL(IBO)  
 Orbital energies read from record       2200.2  Type=UKS/LOCAL(IBO)  
 Redundancy group numbers read from rec  2200.2  Type=UKS/BETA (state 1.1)

 IBBA/SV(P) energy=      0.000000000000

        UKS-SCF 
   -233.43456846
 **********************************************************************************************************************************
 Molpro calculation terminated
