
 Primary working directories    : /tmp/sb13343
 Secondary working directories  : /tmp/sb13343
 Wavefunction directory         : /panfs/panasas01/chem/sb13343/wfu/
 Main file repository           : /tmp/sb13343/

 SHA1      : b4a5b34a9e711420743f49e6833241d17c61fb3c
 NAME      : 2099.9.b4a5b34
 ARCHNAME  : linux/x86_64_openmp
 FC        : /cm/shared/languages/GCC-6.1/bin/gfortran
 BLASLIB   : -lblas
 id        : simonbennie

 Nodes     nprocs
 node32-036    1

 Using customized tuning parameters: mindgm=1; mindgv=20; mindgc=4; mindgr=1; noblas=0; minvec=7
 default implementation of scratch files=df  

 memory,500,m
 geomtyp=xyz
 nosym
 noorient
 geometry={
 H         -1.13405        1.76167        0.00000
 C         -1.32915        0.67205        0.00000
 C         -0.06360       -0.12883        0.00000
 C          0.67426       -0.31636        1.28970
 C          0.67426       -0.31636       -1.28970
 H         -1.94006        0.46750        0.88859
 H         -1.94006        0.46750       -0.88859
 H          1.28359        0.56876        1.55544
 H         -0.01165       -0.48291        2.13019
 H          1.36783       -1.16569        1.24157
 H          1.28359        0.56876       -1.55544
 H         -0.01165       -0.48291       -2.13019
 H          1.36783       -1.16569       -1.24157
 }
 basis={ default,sto-3g }
 {uks,PBE,direct;wf,33,1,1}
 {ibba,bonds=1}

 Variables initialized (895), CPU time= 0.00 sec
 Commands  initialized (725), CPU time= 0.01 sec, 591 directives.
 Default parameters read. Elapsed time= 0.07 sec

 Checking input...
 Passed
1


                                         ***  PROGRAM SYSTEM MOLPRO  ***
                                       Copyright, TTI GmbH Stuttgart, 2015
                                    Version 2099.9 linked May 26 2017 16:03:21


 **********************************************************************************************************************************
 LABEL *                                                                                 
  64 bit serial version                                                                  DATE: 08-Jun-17          TIME: 20:24:57  
 **********************************************************************************************************************************

 SHA1:             b4a5b34a9e711420743f49e6833241d17c61fb3c
 **********************************************************************************************************************************
 SETTING GEOMTYP        =    XYZ

 Variable memory set to  500000000 words,  buffer space 

 ZSYMEL=NOSYM

 SETTING BASIS          =    STO-3G


 Recomputing integrals since basis changed


 Using spherical harmonics

 Library entry H      S STO-3G               selected for orbital group  1
 Library entry C      S STO-3G               selected for orbital group  2
 Library entry C      P STO-3G               selected for orbital group  2


 PROGRAM * SEWARD (Integral evaluation for generally contracted gaussian basis sets)     Author: Roland Lindh, 1990

 Geometry written to block  1 of record 700


 Point group  C1  



 ATOMIC COORDINATES

 NR  ATOM    CHARGE       X              Y              Z

   1  H       1.00   -2.143043912    3.329073822    0.000000000
   2  C       6.00   -2.511729478    1.269990442    0.000000000
   3  C       6.00   -0.120186582   -0.243453417    0.000000000
   4  C       6.00    1.274166737   -0.597833757    2.437179783
   5  C       6.00    1.274166737   -0.597833757   -2.437179783
   6  H       1.00   -3.666182065    0.883446963    1.679191737
   7  H       1.00   -3.666182065    0.883446963   -1.679191737
   8  H       1.00    2.425633556    1.074800631    2.939355603
   9  H       1.00   -0.022015309   -0.912567643    4.025475693
  10  H       1.00    2.584824085   -2.202834846    2.346227264
  11  H       1.00    2.425633556    1.074800631   -2.939355603
  12  H       1.00   -0.022015309   -0.912567643   -4.025475693
  13  H       1.00    2.584824085   -2.202834846   -2.346227264

 Bond lengths in Bohr (Angstrom)

 1-2  2.091830159  2-3  2.830192527  2-6  2.074092940  2-7  2.074092940  3-4  2.830132841
     ( 1.106948849)     ( 1.497673388)     ( 1.097562717)     ( 1.097562717)     ( 1.497641803)

  3- 5  2.830132841   4- 8  2.091832255   4- 9  2.074085151   4-10  2.074156104   5-11  2.091832255
       ( 1.497641803)       ( 1.106949959)       ( 1.097558596)       ( 1.097596142)       ( 1.106949959)

  5-12  2.074085151   5-13  2.074156104
       ( 1.097558596)       ( 1.097596142)

 Bond angles

  1-2-3  112.17549786   1-2-6  106.35284965   1-2-7  106.35284965   2-3-4  118.89987932

  2-3-5  118.89987932   3-2-6  111.75744418   3-2-7  111.75744418   3-4-8  112.19808176

  3- 4- 9  111.75014522   3- 4-10  111.74379558   3- 5-11  112.19808176   3- 5-12  111.75014522

  3- 5-13  111.74379558   4- 3- 5  118.89276928   6- 2- 7  108.11431090   8- 4- 9  106.34995457

  8- 4-10  106.34572146   9- 4-10  108.12296896  11- 5-12  106.34995457  11- 5-13  106.34572146

 12- 5-13  108.12296896

 NUCLEAR CHARGE:                   33
 NUMBER OF PRIMITIVE AOS:          87
 NUMBER OF SYMMETRY AOS:           87
 NUMBER OF CONTRACTIONS:           29   (  29A   )
 NUMBER OF CORE ORBITALS:           4   (   4A   )
 NUMBER OF VALENCE ORBITALS:       25   (  25A   )


 NUCLEAR REPULSION ENERGY  124.92676597


 Eigenvalues of metric

         1 0.210E+00 0.225E+00 0.225E+00 0.315E+00 0.353E+00 0.353E+00 0.362E+00 0.372E+00


 Contracted 2-electron integrals neglected if value below      1.0D-11
 AO integral compression algorithm  1   Integral accuracy      1.0D-11

     0.786 MB (compressed) written to integral file (100.0%)


 NUMBER OF SORTED TWO-ELECTRON INTEGRALS:      94830.     BUFFER LENGTH:  32768
 NUMBER OF SEGMENTS:   1  SEGMENT LENGTH:      94830      RECORD LENGTH: 524288

 Memory used in sort:       0.65 MW

 SORT1 READ      108770. AND WROTE       91348. INTEGRALS IN      1 RECORDS. CPU TIME:     0.00 SEC, REAL TIME:     0.01 SEC
 SORT2 READ       91348. AND WROTE       94830. INTEGRALS IN      3 RECORDS. CPU TIME:     0.01 SEC, REAL TIME:     0.02 SEC

 FILE SIZES:   FILE 1:    31.0 MBYTE,  FILE 4:     4.2 MBYTE,   TOTAL:     35.2 MBYTE

 OPERATOR DM      FOR CENTER  0  COORDINATES:    0.000000    0.000000    0.000000


 **********************************************************************************************************************************
 DATASETS  * FILE   NREC   LENGTH (MB)   RECORD NAMES
              1      19       30.62       500      610      700      900      950      970     1000      129      960     1100   
                                          VAR    BASINP    GEOM    SYMINP    ZMAT    AOBASIS   BASIS     P2S    ABASIS      S 
                                         1400     1410     1200     1210     1080     1600     1650     1300     1700   
                                           T        V       H0       H01     AOSYM     SMH    MOLCAS    ERIS     OPER   

 PROGRAMS   *        TOTAL       INT
 CPU TIMES  *         0.44      0.31
 REAL TIME  *         1.13 SEC
 DISK USED  *        35.68 MB      
 **********************************************************************************************************************************

 Density functional group PBE=PBEX+PBEC
 Functional: PBEX(Automatically generated (new) PBEX)                          Gradient terms: 1
 Functional: PBEC(Automatically generated (new) PBEC)                          Gradient terms: 1
 Use grid at  1800.2

 Functional: PBEX                      Factor:  1.0000
 Functional: PBEC                      Factor:  1.0000

 Generated new metagrid on record  1800.2 with target accuracy 1.0D-06 and 45406 points in CPU time    1.3
 Computed new grid on record 1800.1 in CPU time    1.4
   27459 words reserved for DFT integration

 PROGRAM * UKS-SCF (Unrestricted Kohn-Sham)     Authors: W. Meyer, H.-J. Werner, P.J. Knowles, 1993

 NUMBER OF ELECTRONS:      17+   16-    SPACE SYMMETRY=1    SPIN SYMMETRY: Doublet 
 CONVERGENCE THRESHOLDS:    1.00E-05 (Density)    1.00E-06 (Energy)
 MAX. NUMBER OF ITERATIONS:       60
 INTERPOLATION TYPE:            DIIS
 INTERPOLATION STEPS:              2 (START)      1 (STEP)
 LEVEL SHIFTS:                 -0.20 (ALPHA)  -0.20 (BETA) 



 Use fine grid record 1800.2 for energy threshold  1.0D-06
 Orbital guess generated from atomic densities. Full valence occupancy:   17

 Molecular orbital dump at record        2200.2

 Initial alpha occupation  17
 Initial beta  occupation  16

 ITERATION    DDIFF          GRAD             ENERGY        2-EL.EN.            DIPOLE MOMENTS         DIIS
    1      0.000D+00      0.000D+00      -155.39310708    413.371887    0.21147    0.42762   -0.00000    0
    2      0.644D-01      0.215D-01      -155.66031697    399.193965    0.02779    0.05626   -0.00000    1
    3      0.115D-01      0.482D-02      -155.67328144    401.485893    0.04531    0.09170   -0.00000    2
    4      0.171D-02      0.883D-03      -155.67419772    401.462628    0.04322    0.08747   -0.00000    3
    5      0.786D-03      0.468D-03      -155.67441547    401.464315    0.04049    0.08196   -0.00000    4
    6      0.339D-03      0.115D-03      -155.67443655    401.457250    0.03993    0.08083   -0.00000    5
    7      0.403D-04      0.148D-04      -155.67443684    401.457027    0.03989    0.08075   -0.00000    6
    8      0.651D-05      0.265D-05      -155.67443685    401.457086    0.03989    0.08074   -0.00000    5
    9      0.885D-06      0.512D-06      -155.67443685    401.457029    0.03988    0.08074   -0.00000    5

 Final alpha occupancy:  17
 Final beta  occupancy:  16

 !UKS STATE 1.1 Energy               -155.674436853945
 Nuclear energy                       124.92676597
 One-electron energy                 -456.46963779
 Two-electron energy                  200.72851453
 Density functional                   -24.86007957     PBEX=-23.78495278 PBEC= -1.07512678
 Virial quotient                       -1.01475353
 !UKS STATE 1.1 Dipole moment           0.03988496     0.08073765    -0.00000000
 Dipole moment /Debye                   0.10137081     0.20520119    -0.00000000

 Orbital energies for positive spin:

         1.1          2.1          3.1          4.1          5.1          6.1          7.1          8.1          9.1         10.1
     -9.704176    -9.704165    -9.704161    -9.686422    -0.679253    -0.581061    -0.581053    -0.435890    -0.349576    -0.347695

        11.1         12.1         13.1         14.1         15.1         16.1         17.1         18.1         19.1
     -0.347695    -0.297948    -0.297915    -0.280600    -0.250651    -0.250646    -0.057117     0.344288     0.344296

 Orbital energies for negative spin:

         1.1          2.1          3.1          4.1          5.1          6.1          7.1          8.1          9.1         10.1
     -9.705007    -9.705003    -9.704988    -9.672641    -0.663695    -0.579338    -0.579331    -0.418265    -0.344191    -0.344187

        11.1         12.1         13.1         14.1         15.1         16.1         17.1         18.1         19.1
     -0.335360    -0.294575    -0.294543    -0.280050    -0.245067    -0.245062     0.041894     0.348364     0.348374

 HOMO     17.1    -0.057117 =      -1.5542eV
 LUMO    -17.1     0.041894 =       1.1400eV
 LUMO-HOMO         0.099011 =       2.6942eV

 EXPECTATION VALUE OF S**2:             0.75321227

 Occupation number threshold for canonical orbitals:  1.999000 (occupied),  0.001000 (virtual)

 Number of pseudo-canonical orbitals per symmetry:   16
 Number of active natural orbitals per symmetry:      1

 Natural orbitals saved to record    2200.2 (Orbital set 3)

 Orbital spaces for UNO-CAS (Min. occupation: 0.020  Max. occupation: 1.980):

 Closed:       16
 Active:        1


 **********************************************************************************************************************************
 DATASETS  * FILE   NREC   LENGTH (MB)   RECORD NAMES
              1      20       32.07       500      610      700      900      950      970     1000      129      960     1100   
                                          VAR    BASINP    GEOM    SYMINP    ZMAT    AOBASIS   BASIS     P2S    ABASIS      S 
                                         1400     1410     1200     1210     1080     1600     1650     1300     1700     1800   
                                           T        V       H0       H01     AOSYM     SMH    MOLCAS    ERIS     OPER     GRID   

              2       5        3.00       700     1000      520     1800     2200   
                                         GEOM     BASIS   MCVARS    GRID      UKS  

 PROGRAMS   *        TOTAL       UKS       INT
 CPU TIMES  *         4.46      4.02      0.31
 REAL TIME  *         5.53 SEC
 DISK USED  *        35.68 MB      
 **********************************************************************************************************************************


 PROGRAM * Intrinsic Basis Bonding Analysis (IBBA)          Author: G. Knizia

 Molecular orbitals read from record     2200.2  Type=UKS/ALPHA (state 1.1)
 Fock matrix read from record            2200.2  Type=UKS/TOTAL (state 1.1)
 Orbital energies read from record       2200.2  Type=UKS/ALPHA (state 1.1)
 Density matrix read from record         2200.2  Type=UKS/CHARGE (state 1.1)

 Number of core orbitals:           4 (   4 )
 Number of closed-shell orbitals:  12 (  12 )
 Number of active  orbitals:        1 (   1 )

 Basis set MINAO-AUTO-PP generated.      Number of basis functions:   29 

 Polarized AO type:                A = (O Ot + (1-O)(1-Ot)) P12
 Orthogonalization method:         Symmetric (Loewdin)
 Localization functional:          L = sum[A,i] <i|n_A|i>^4 -> max

 Localization group 1:  16 orbitals, occupancy  2.000
 Iterative localization: IB/PM,    8 iter; Final gradient 0.52E-09

 Bond order analysis:       [THRPRINT= 0.020]

   CEN ATOM   CEN ATOM     WIBERG.BO      RENORM.BO
     1   H  -   2   C       0.896925       0.996884
     1   H  -   3   C       0.046667       0.181344

     2   C  -   3   C       1.109185       1.310837
     2   C  -   7   H       0.951253       0.989149
     2   C  -   6   H       0.951253       0.989149
     2   C  -   1   H       0.896925       0.996884

     3   C  -   2   C       1.109185       1.310837
     3   C  -   5   C       1.109172       1.310802
     3   C  -   4   C       1.109172       1.310802
     3   C  -   1   H       0.046667       0.181344
     3   C  -  11   H       0.046637       0.181226
     3   C  -   8   H       0.046637       0.181226

     4   C  -   3   C       1.109172       1.310802
     4   C  -   9   H       0.951302       0.989142
     4   C  -  10   H       0.951183       0.989161
     4   C  -   8   H       0.896957       0.996879

     5   C  -   3   C       1.109172       1.310802
     5   C  -  12   H       0.951302       0.989142
     5   C  -  13   H       0.951183       0.989161
     5   C  -  11   H       0.896957       0.996879

     6   H  -   2   C       0.951253       0.989149

     7   H  -   2   C       0.951253       0.989149

     8   H  -   4   C       0.896957       0.996879
     8   H  -   3   C       0.046637       0.181226

     9   H  -   4   C       0.951302       0.989142

    10   H  -   4   C       0.951183       0.989161

    11   H  -   5   C       0.896957       0.996879
    11   H  -   3   C       0.046637       0.181226

    12   H  -   5   C       0.951302       0.989142

    13   H  -   5   C       0.951183       0.989161


 Valency analysis:

   CEN ATOM   TOT.VALENCE
     1   H       0.966629
     2   C       3.942893
     3   C       3.524413
     4   C       3.942890
     5   C       3.942890
     6   H       0.979330
     7   H       0.979330
     8   H       0.966633
     9   H       0.979343
    10   H       0.979316
    11   H       0.966633
    12   H       0.979343
    13   H       0.979316
 Localization group 2:   1 orbitals, occupancy  1.000
 Iterative localization: IB/PM,    1 iter; Final gradient 0.00E+00

 Bond order analysis:       [THRPRINT= 0.020]

   CEN ATOM   CEN ATOM     WIBERG.BO      RENORM.BO
     1   H  -   3   C       0.076754       0.500000


     3   C  -   1   H       0.076754       0.500000
     3   C  -  11   H       0.076748       0.500000
     3   C  -   8   H       0.076748       0.500000





     8   H  -   3   C       0.076748       0.500000



    11   H  -   3   C       0.076748       0.500000




 Valency analysis:

   CEN ATOM   TOT.VALENCE
     1   H       0.095236
     2   C       0.016067
     3   C       0.358986
     4   C       0.016046
     5   C       0.016046
     6   H       0.019729
     7   H       0.019729
     8   H       0.095228
     9   H       0.019656
    10   H       0.019826
    11   H       0.095228
    12   H       0.019656
    13   H       0.019826

 Total charge composition:

   CEN ATOM         s          p       ELECTRONS ->P.CHARGE
     1   H       0.86745                 0.86745    0.13255
     2   C       2.98796    3.37120      6.35916   -0.35916
     3   C       3.01426    3.10873      6.12299   -0.12299
     4   C       2.98795    3.37120      6.35915   -0.35915
     5   C       2.98795    3.37120      6.35915   -0.35915
     6   H       0.86619                 0.86619    0.13381
     7   H       0.86619                 0.86619    0.13381
     8   H       0.86746                 0.86746    0.13254
     9   H       0.86620                 0.86620    0.13380
    10   H       0.86619                 0.86619    0.13381
    11   H       0.86746                 0.86746    0.13254
    12   H       0.86620                 0.86620    0.13380
    13   H       0.86619                 0.86619    0.13381

 Total charge composition, AO contributions:

   CEN ATOM SHL      SPHERICAL COMPONENTS
     1   H  1s       0.86745

     2   C  1s       1.99197
     2   C  2s       0.99599
     2   C  2p       1.08691    1.11629    1.16800

     3   C  1s       1.99324
     3   C  2s       1.02101
     3   C  2p       1.03011    1.05722    1.02140

     4   C  1s       1.99197
     4   C  2s       0.99598
     4   C  2p       1.13546    1.15032    1.08543

     5   C  1s       1.99197
     5   C  2s       0.99598
     5   C  2p       1.13546    1.15032    1.08543

     6   H  1s       0.86619

     7   H  1s       0.86619

     8   H  1s       0.86746

     9   H  1s       0.86620

    10   H  1s       0.86619

    11   H  1s       0.86746

    12   H  1s       0.86620

    13   H  1s       0.86619

 Active orbital charges:

   CEN ATOM         s          p       ELECTRONS ->SPIN.DEN
     1   H       0.05013                 0.05013    0.05013
     2   C       0.00017    0.00793      0.00810    0.00810
     3   C       0.01166    0.75388      0.76553    0.76553
     4   C       0.00017    0.00792      0.00809    0.00809
     5   C       0.00017    0.00792      0.00809    0.00809
     6   H       0.00996                 0.00996    0.00996
     7   H       0.00996                 0.00996    0.00996
     8   H       0.05013                 0.05013    0.05013
     9   H       0.00993                 0.00993    0.00993
    10   H       0.01001                 0.01001    0.01001
    11   H       0.05013                 0.05013    0.05013
    12   H       0.00993                 0.00993    0.00993
    13   H       0.01001                 0.01001    0.01001

 Active orbital charges, AO contributions:

   CEN ATOM SHL      SPHERICAL COMPONENTS
     1   H  1s       0.05013

     2   C  1s       0.00000
     2   C  2s       0.00017
     2   C  2p       0.00018    0.00775    0.00000

     3   C  1s       0.00002
     3   C  2s       0.01164
     3   C  2p       0.14753    0.60634    0.00000

     4   C  1s       0.00000
     4   C  2s       0.00017
     4   C  2p       0.00246    0.00491    0.00055

     5   C  1s       0.00000
     5   C  2s       0.00017
     5   C  2p       0.00246    0.00491    0.00055

     6   H  1s       0.00996

     7   H  1s       0.00996

     8   H  1s       0.05013

     9   H  1s       0.00993

    10   H  1s       0.01001

    11   H  1s       0.05013

    12   H  1s       0.00993

    13   H  1s       0.01001

 Summary of localized orbital composition:   [THRPRINT= 0.020]

   ORB  GRP  ORB.ENERGY      CENTERS/CHARGES
     1   1    -9.594962      C  2   2.000
     2   1    -9.594958      C  5   2.000
     3   1    -9.594958      C  4   2.000
     4   1    -9.582443      C  3   2.000
     5   1    -0.479389      C  3   1.007   C  4   0.980
     6   1    -0.479389      C  3   1.007   C  5   0.980
     7   1    -0.479368      C  3   1.007   C  2   0.980
     8   1    -0.407984      C  2   1.107   H  1   0.811   C  3   0.076
     9   1    -0.407981      C  5   1.107   H 11   0.811   C  3   0.076
    10   1    -0.407981      C  4   1.107   H  8   0.811   C  3   0.076
    11   1    -0.403759      C  2   1.128   H  7   0.849   (other: 0.023)
    12   1    -0.403759      C  2   1.128   H  6   0.849   (other: 0.023)
    13   1    -0.403757      C  5   1.128   H 12   0.849   (other: 0.023)
    14   1    -0.403757      C  4   1.128   H  9   0.849   (other: 0.023)
    15   1    -0.403735      C  5   1.128   H 13   0.849   (other: 0.023)
    16   1    -0.403735      C  4   1.128   H 10   0.849   (other: 0.023)
    17   2    -0.008378      C  3   0.766   H  1   0.050   H 11   0.050   H  8   0.050   (other: 0.084)

 Localized orbitals saved to record      2200.2  (orbital set 4)


 **********************************************************************************************************************************
 DATASETS  * FILE   NREC   LENGTH (MB)   RECORD NAMES
              1      20       32.07       500      610      700      900      950      970     1000      129      960     1100   
                                          VAR    BASINP    GEOM    SYMINP    ZMAT    AOBASIS   BASIS     P2S    ABASIS      S 
                                         1400     1410     1200     1210     1080     1600     1650     1300     1700     1800   
                                           T        V       H0       H01     AOSYM     SMH    MOLCAS    ERIS     OPER     GRID   

              2       5        3.01       700     1000      520     1800     2200   
                                         GEOM     BASIS   MCVARS    GRID      UKS  

 PROGRAMS   *        TOTAL      IBBA       UKS       INT
 CPU TIMES  *         4.49      0.03      4.02      0.31
 REAL TIME  *         5.63 SEC
 DISK USED  *        35.68 MB      
 **********************************************************************************************************************************
 Molecular orbitals read from record     2200.2  Type=UKS/LOCAL(IBO)  
 Occupation numbers read from record     2200.2  Type=UKS/LOCAL(IBO)  
 Orbital energies read from record       2200.2  Type=UKS/LOCAL(IBO)  
 Redundancy group numbers read from rec  2200.2  Type=UKS/BETA (state 1.1)

 IBBA/STO-3G energy=      0.000000000000

        UKS-SCF 
   -155.67443685
 **********************************************************************************************************************************
 Molpro calculation terminated
