
 Primary working directories    : /local
 Secondary working directories  : /local
 Wavefunction directory         : /local/
 Main file repository           : /local/

 SHA1      : b4a5b34a9e711420743f49e6833241d17c61fb3c
 NAME      : 2099.9.b4a5b34
 ARCHNAME  : linux/x86_64_openmp
 FC        : /cm/shared/languages/GCC-6.1/bin/gfortran
 BLASLIB   : -lblas
 id        : simonbennie

 Nodes     nprocs
 node35-042    1

 Using customized tuning parameters: mindgm=1; mindgv=20; mindgc=4; mindgr=1; noblas=0; minvec=7
 default implementation of scratch files=df  

 memory,500,m
 geomtyp=xyz
 nosym
 noorient
 geometry={
 C         -1.53233        0.02247        0.00000
 C         -0.00192        0.01421        0.00000
 O          0.37239        1.40356        0.00000
 H          1.34248        1.44036        0.00000
 H         -1.92991       -0.99819        0.00000
 H         -1.90797        0.54382       -0.88653
 H         -1.90797        0.54382        0.88653
 C          0.54303       -0.66466       -1.26580
 C          0.54303       -0.66466        1.26580
 H          0.17836       -0.14752       -2.15943
 H          0.17836       -0.14752        2.15943
 H          0.23752       -1.71600       -1.32280
 H          0.23752       -1.71600        1.32280
 H          1.64084       -0.63767       -1.28032
 H          1.64084       -0.63767        1.28032
 }
 basis={ default,tzvp }
 {uks,SOGGA11-X,direct;wf,42,1,0}
 {ibba,bonds=1}

 Variables initialized (895), CPU time= 0.00 sec
 Commands  initialized (725), CPU time= 0.02 sec, 591 directives.
 Default parameters read. Elapsed time= 0.14 sec

 Checking input...
 Passed
1


                                         ***  PROGRAM SYSTEM MOLPRO  ***
                                       Copyright, TTI GmbH Stuttgart, 2015
                                    Version 2099.9 linked May 26 2017 16:03:21


 **********************************************************************************************************************************
 LABEL *                                                                                 
  64 bit serial version                                                                  DATE: 12-Jun-17          TIME: 18:40:15  
 **********************************************************************************************************************************

 SHA1:             b4a5b34a9e711420743f49e6833241d17c61fb3c
 **********************************************************************************************************************************
 SETTING GEOMTYP        =    XYZ

 Variable memory set to  500000000 words,  buffer space 

 ZSYMEL=NOSYM

 SETTING BASIS          =    TZVP


 Recomputing integrals since basis changed


 Using spherical harmonics

 Library entry C      S def2-TZVP            selected for orbital group  1
 Library entry C      P def2-TZVP            selected for orbital group  1
 Library entry C      D def2-TZVP            selected for orbital group  1
 Library entry C      F def2-TZVP            selected for orbital group  1
 Library entry O      S def2-TZVP            selected for orbital group  2
 Library entry O      P def2-TZVP            selected for orbital group  2
 Library entry O      D def2-TZVP            selected for orbital group  2
 Library entry O      F def2-TZVP            selected for orbital group  2
 Library entry H      S def2-TZVP            selected for orbital group  3
 Library entry H      P def2-TZVP            selected for orbital group  3


 PROGRAM * SEWARD (Integral evaluation for generally contracted gaussian basis sets)     Author: Roland Lindh, 1990

 Geometry written to block  1 of record 700


 Point group  C1  



 ATOMIC COORDINATES

 NR  ATOM    CHARGE       X              Y              Z

   1  C       6.00   -2.895684032    0.042462146    0.000000000
   2  C       6.00   -0.003628274    0.026853008    0.000000000
   3  O       8.00    0.703715112    2.652343999    0.000000000
   4  H       1.00    2.536919528    2.721885921    0.000000000
   5  H       1.00   -3.647001345   -1.886305720    0.000000000
   6  H       1.00   -3.605540754    1.027670861   -1.675298901
   7  H       1.00   -3.605540754    1.027670861    1.675298901
   8  C       6.00    1.026177977   -1.256025366   -2.392015328
   9  C       6.00    1.026177977   -1.256025366    2.392015328
  10  H       1.00    0.337051552   -0.278772398   -4.080731285
  11  H       1.00    0.337051552   -0.278772398    4.080731285
  12  H       1.00    0.448847749   -3.242770030   -2.499729718
  13  H       1.00    0.448847749   -3.242770030    2.499729718
  14  H       1.00    3.100738214   -1.205021658   -2.419454152
  15  H       1.00    3.100738214   -1.205021658    2.419454152

 Bond lengths in Bohr (Angstrom)

 1-2  2.892097881  1-5  2.069933136  1-6  2.069096224  1-7  2.069096224  2-3  2.719106031
     ( 1.530432290)     ( 1.095361444)     ( 1.094918569)     ( 1.094918569)     ( 1.438888946)

  2- 8  2.903104402   2- 9  2.903104402   3- 4  1.834522965   8-10  2.069222119   8-12  2.071730422
       ( 1.536256691)       ( 1.536256691)       ( 0.970787746)       ( 1.094985190)       ( 1.096312526)

  8-14  2.075368508   9-11  2.069222119   9-13  2.071730422   9-15  2.075368508
       ( 1.098237719)       ( 1.094985190)       ( 1.096312526)       ( 1.098237719)

 Bond angles

  1-2-3  104.76902697   1-2-8  110.92255387   1-2-9  110.92255387   2-1-5  110.97328220

  2- 1- 6  110.22090701   2- 1- 7  110.22090701   2- 3- 4  107.25071562   2- 8-10  110.21836376

  2- 8-12  111.57747468   2- 8-14  110.77023896   2- 9-11  110.21836376   2- 9-13  111.57747468

  2- 9-15  110.77023896   3- 2- 8  109.53648747   3- 2- 9  109.53648747   5- 1- 6  108.61190457

  5- 1- 7  108.61190457   6- 1- 7  108.12870271   8- 2- 9  110.96453384  10- 8-12  108.52192632

 10- 8-14  108.08997829  11- 9-13  108.52192632  11- 9-15  108.08997829  12- 8-14  107.54424578

 13- 9-15  107.54424578

 NUCLEAR CHARGE:                   42
 NUMBER OF PRIMITIVE AOS:         335
 NUMBER OF SYMMETRY AOS:          310
 NUMBER OF CONTRACTIONS:          215   ( 215A   )
 NUMBER OF CORE ORBITALS:           5   (   5A   )
 NUMBER OF VALENCE ORBITALS:       30   (  30A   )


 NUCLEAR REPULSION ENERGY  198.77359127


 Eigenvalues of metric

         1 0.262E-03 0.510E-03 0.539E-03 0.594E-03 0.697E-03 0.755E-03 0.210E-02 0.239E-02


 Contracted 2-electron integrals neglected if value below      1.0D-11
 AO integral compression algorithm  1   Integral accuracy      1.0D-11

     977.797 MB (compressed) written to integral file ( 41.7%)


 NUMBER OF SORTED TWO-ELECTRON INTEGRALS:  269595810.     BUFFER LENGTH:  32768
 NUMBER OF SEGMENTS:  17  SEGMENT LENGTH:   15999762      RECORD LENGTH: 524288

 Memory used in sort:      16.56 MW

 SORT1 READ   292827432. AND WROTE   238500613. INTEGRALS IN    690 RECORDS. CPU TIME:     3.41 SEC, REAL TIME:     6.67 SEC
 SORT2 READ   238500613. AND WROTE   269595810. INTEGRALS IN   3730 RECORDS. CPU TIME:     6.45 SEC, REAL TIME:    34.48 SEC

 FILE SIZES:   FILE 1:  1009.7 MBYTE,  FILE 4:  2894.1 MBYTE,   TOTAL:   3903.8 MBYTE

 OPERATOR DM      FOR CENTER  0  COORDINATES:    0.000000    0.000000    0.000000


 **********************************************************************************************************************************
 DATASETS  * FILE   NREC   LENGTH (MB)   RECORD NAMES
              1      19      926.27       500      610      700      900      950      970     1000      129      960     1100   
                                          VAR    BASINP    GEOM    SYMINP    ZMAT    AOBASIS   BASIS     P2S    ABASIS      S 
                                         1400     1410     1200     1210     1080     1600     1650     1300     1700   
                                           T        V       H0       H01     AOSYM     SMH    MOLCAS    ERIS     OPER   

 PROGRAMS   *        TOTAL       INT
 CPU TIMES  *        26.59     26.44
 REAL TIME  *        61.04 SEC
 DISK USED  *         3.90 GB      
 **********************************************************************************************************************************

 Density functional group SOGGA11-X=XC-SOGGA11-X
 Functional: XC-SOGGA11-X(via MFM 1.6)                                         Gradient terms: 1
 Use grid at  1800.2


 Exact exchange will be calculated, factor:  0.4015

 Functional: XC-SOGGA11-X              Factor:  1.0000

 Generated new metagrid on record  1800.2 with target accuracy 1.0D-06 and 54812 points in CPU time    1.7
 Computed new grid on record 1800.1 in CPU time    1.9
  175219 words reserved for DFT integration

 PROGRAM * UKS-SCF (Unrestricted Kohn-Sham)     Authors: W. Meyer, H.-J. Werner, P.J. Knowles, 1993

 NUMBER OF ELECTRONS:      21+   21-    SPACE SYMMETRY=1    SPIN SYMMETRY: Singlet 
 CONVERGENCE THRESHOLDS:    1.00E-05 (Density)    1.00E-06 (Energy)
 MAX. NUMBER OF ITERATIONS:       60
 INTERPOLATION TYPE:            DIIS
 INTERPOLATION STEPS:              2 (START)      1 (STEP)
 LEVEL SHIFTS:                 -0.20 (ALPHA)  -0.20 (BETA) 



 Use fine grid record 1800.2 for energy threshold  1.0D-06
 Orbital guess generated from atomic densities. Full valence occupancy:   21

 Molecular orbital dump at record        2200.2

 Initial alpha occupation  21
 Initial beta  occupation  21

 ITERATION    DDIFF          GRAD             ENERGY        2-EL.EN.            DIPOLE MOMENTS         DIIS
    1      0.000D+00      0.000D+00      -233.58384779    605.646694    0.68957   -0.80961   -0.00000    0
    2      0.305D-02      0.228D-02      -233.69411594    593.106861    0.31910   -0.49750   -0.00000    1
    3      0.898D-03      0.924D-03      -233.70633553    595.631824    0.37752   -0.55494   -0.00000    2
    4      0.398D-03      0.182D-03      -233.70739237    595.486190    0.36573   -0.51888   -0.00000    3
    5      0.306D-03      0.896D-04      -233.70774766    595.414083    0.36003   -0.51844   -0.00000    4
    6      0.154D-03      0.230D-04      -233.70778065    595.401031    0.35814   -0.51495   -0.00000    5
    7      0.407D-04      0.516D-05      -233.70778220    595.385821    0.35732   -0.51466   -0.00000    6
    8      0.830D-05      0.228D-05      -233.70778237    595.391468    0.35732   -0.51477   -0.00000    7
    9      0.340D-05      0.488D-06      -233.70778238    595.391282    0.35724   -0.51469   -0.00000    6

 Final alpha occupancy:  21
 Final beta  occupancy:  21

 !UKS STATE 1.1 Energy               -233.707782381949
 Nuclear energy                       198.77359127
 One-electron energy                 -709.22217568
 Two-electron energy                  297.69564082
 Density functional                   -20.95483880     XC-SOGGA11-X=-20.95483880
 Virial quotient                       -1.00426543
 !UKS STATE 1.1 Dipole moment           0.35724381    -0.51469045    -0.00000018
 Dipole moment /Debye                   0.90796373    -1.30812694    -0.00000047

 Orbital energies for positive spin:

         1.1          2.1          3.1          4.1          5.1          6.1          7.1          8.1          9.1         10.1
    -19.493021   -10.501979   -10.431887   -10.431879   -10.426383    -1.121738    -0.874095    -0.769737    -0.768457    -0.632398

        11.1         12.1         13.1         14.1         15.1         16.1         17.1         18.1         19.1         20.1
     -0.545610    -0.505545    -0.502299    -0.463536    -0.447093    -0.426988    -0.413391    -0.403531    -0.395616    -0.365736

        21.1         22.1         23.1
     -0.322469     0.046843     0.095536

 Orbital energies for negative spin:

         1.1          2.1          3.1          4.1          5.1          6.1          7.1          8.1          9.1         10.1
    -19.493016   -10.501981   -10.431885   -10.431877   -10.426381    -1.121732    -0.874093    -0.769735    -0.768455    -0.632397

        11.1         12.1         13.1         14.1         15.1         16.1         17.1         18.1         19.1         20.1
     -0.545608    -0.505544    -0.502298    -0.463535    -0.447092    -0.426987    -0.413391    -0.403528    -0.395615    -0.365734

        21.1         22.1         23.1
     -0.322465     0.046844     0.095538

 HOMO    -21.1    -0.322465 =      -8.7747eV
 LUMO     22.1     0.046843 =       1.2747eV
 LUMO-HOMO         0.369308 =      10.0494eV

 EXPECTATION VALUE OF S**2:             0.00000000

 Occupation number threshold for canonical orbitals:  1.999000 (occupied),  0.001000 (virtual)

 Number of pseudo-canonical orbitals per symmetry:   21
 Number of active natural orbitals per symmetry:      0

 Natural orbitals saved to record    2200.2 (Orbital set 3)

 Orbital spaces for UNO-CAS (Min. occupation: 0.020  Max. occupation: 1.980):

 Closed:       21
 Active:        0


 **********************************************************************************************************************************
 DATASETS  * FILE   NREC   LENGTH (MB)   RECORD NAMES
              1      20      928.03       500      610      700      900      950      970     1000      129      960     1100   
                                          VAR    BASINP    GEOM    SYMINP    ZMAT    AOBASIS   BASIS     P2S    ABASIS      S 
                                         1400     1410     1200     1210     1080     1600     1650     1300     1700     1800   
                                           T        V       H0       H01     AOSYM     SMH    MOLCAS    ERIS     OPER     GRID   

              2       5        4.89       700     1000      520     1800     2200   
                                         GEOM     BASIS   MCVARS    GRID      UKS  

 PROGRAMS   *        TOTAL       UKS       INT
 CPU TIMES  *       120.07     93.48     26.44
 REAL TIME  *       158.31 SEC
 DISK USED  *         3.90 GB      
 **********************************************************************************************************************************


 PROGRAM * Intrinsic Basis Bonding Analysis (IBBA)          Author: G. Knizia

 Molecular orbitals read from record     2200.2  Type=UKS/ALPHA (state 1.1)
 Fock matrix read from record            2200.2  Type=UKS/TOTAL (state 1.1)
 Orbital energies read from record       2200.2  Type=UKS/ALPHA (state 1.1)
 Density matrix read from record         2200.2  Type=UKS/CHARGE (state 1.1)

 Number of core orbitals:           5 (   5 )
 Number of closed-shell orbitals:  16 (  16 )

 Basis set MINAO-AUTO-PP generated.      Number of basis functions:   35 

 Polarized AO type:                A = (O Ot + (1-O)(1-Ot)) P12
 Orthogonalization method:         Symmetric (Loewdin)
 Localization functional:          L = sum[A,i] <i|n_A|i>^4 -> max

 Localization group 1:  21 orbitals, occupancy  2.000
 Iterative localization: IB/PM,    7 iter; Final gradient 0.36E-08

 Bond order analysis:       [THRPRINT= 0.020]

   CEN ATOM   CEN ATOM     WIBERG.BO      RENORM.BO
     1   C  -   2   C       0.996942       0.994083
     1   C  -   5   H       0.965538       0.987743
     1   C  -   6   H       0.960819       0.982525
     1   C  -   7   H       0.960819       0.982525

     2   C  -   1   C       0.996942       0.994083
     2   C  -   9   C       0.995442       0.977201
     2   C  -   8   C       0.995442       0.977201
     2   C  -   3   O       0.931323       0.952961

     3   O  -   2   C       0.931323       0.952961
     3   O  -   4   H       0.862651       0.978181
     3   O  -   8   C       0.025867       0.013208
     3   O  -   9   C       0.025867       0.013208

     4   H  -   3   O       0.862651       0.978181

     5   H  -   1   C       0.965538       0.987743

     6   H  -   1   C       0.960819       0.982525

     7   H  -   1   C       0.960819       0.982525

     8   C  -   2   C       0.995442       0.977201
     8   C  -  14   H       0.965076       0.983114
     8   C  -  12   H       0.961773       0.982880
     8   C  -  10   H       0.961319       0.982437
     8   C  -   3   O       0.025867       0.013208

     9   C  -   2   C       0.995442       0.977201
     9   C  -  15   H       0.965076       0.983114
     9   C  -  13   H       0.961773       0.982880
     9   C  -  11   H       0.961319       0.982437
     9   C  -   3   O       0.025867       0.013208

    10   H  -   8   C       0.961319       0.982437

    11   H  -   9   C       0.961319       0.982437

    12   H  -   8   C       0.961773       0.982880

    13   H  -   9   C       0.961773       0.982880

    14   H  -   8   C       0.965076       0.983114

    15   H  -   9   C       0.965076       0.983114


 Valency analysis:

   CEN ATOM   TOT.VALENCE
     1   C       3.940756
     2   C       3.928220
     3   O       1.908078
     4   H       0.881081
     5   H       0.982909
     6   H       0.980254
     7   H       0.980254
     8   C       3.943357
     9   C       3.943357
    10   H       0.980279
    11   H       0.980279
    12   H       0.982095
    13   H       0.982095
    14   H       0.984451
    15   H       0.984451

 Total charge composition:

   CEN ATOM         s          p       ELECTRONS ->P.CHARGE
     1   C       3.04834    3.35755      6.40588   -0.40588
     2   C       2.94560    2.78715      5.73276    0.26724
     3   O       3.65217    4.92741      8.57958   -0.57958
     4   H       0.65515                 0.65515    0.34485
     5   H       0.86927                 0.86927    0.13073
     6   H       0.85948                 0.85948    0.14052
     7   H       0.85948                 0.85948    0.14052
     8   C       3.05425    3.36388      6.41813   -0.41813
     9   C       3.05425    3.36388      6.41813   -0.41813
    10   H       0.85957                 0.85957    0.14043
    11   H       0.85957                 0.85957    0.14043
    12   H       0.86619                 0.86619    0.13381
    13   H       0.86619                 0.86619    0.13381
    14   H       0.87531                 0.87531    0.12469
    15   H       0.87531                 0.87531    0.12469

 Total charge composition, AO contributions:

   CEN ATOM SHL      SPHERICAL COMPONENTS
     1   C  1s       1.99058
     1   C  2s       1.05775
     1   C  2p       1.03628    1.15461    1.16666

     2   C  1s       1.99226
     2   C  2s       0.95334
     2   C  2p       1.00204    0.78080    1.00431

     3   O  1s       1.99700
     3   O  2s       1.65517
     3   O  2p       1.47400    1.49406    1.95936

     4   H  1s       0.65515

     5   H  1s       0.86927

     6   H  1s       0.85948

     7   H  1s       0.85948

     8   C  1s       1.99069
     8   C  2s       1.06357
     8   C  2p       1.13667    1.13717    1.09003

     9   C  1s       1.99069
     9   C  2s       1.06357
     9   C  2p       1.13667    1.13717    1.09003

    10   H  1s       0.85957

    11   H  1s       0.85957

    12   H  1s       0.86619

    13   H  1s       0.86619

    14   H  1s       0.87531

    15   H  1s       0.87531

 Summary of localized orbital composition:   [THRPRINT= 0.020]

   ORB  GRP  ORB.ENERGY      CENTERS/CHARGES
     1   1   -19.323045      O  3   2.000
     2   1   -10.406804      C  2   2.000
     3   1   -10.312508      C  9   2.000
     4   1   -10.312508      C  8   2.000
     5   1   -10.306156      C  1   2.000
     6   1    -0.833379      O  3   1.346   H  4   0.644
     7   1    -0.788438      O  3   1.288   C  2   0.695
     8   1    -0.662366      O  3   1.983
     9   1    -0.636567      C  8   1.009   C  2   0.976
    10   1    -0.636567      C  9   1.009   C  2   0.976
    11   1    -0.635817      C  1   0.992   C  2   0.986   (other: 0.022)
    12   1    -0.563206      C  8   1.129   H 12   0.857
    13   1    -0.563206      C  9   1.129   H 13   0.857
    14   1    -0.561172      C  9   1.120   H 15   0.869
    15   1    -0.561172      C  8   1.120   H 14   0.869
    16   1    -0.558679      C  1   1.125   H  5   0.863
    17   1    -0.557348      C  9   1.138   H 11   0.852
    18   1    -0.557348      C  8   1.138   H 10   0.852
    19   1    -0.552485      C  1   1.137   H  6   0.852
    20   1    -0.552485      C  1   1.137   H  7   0.852
    21   1    -0.362000      O  3   1.959   (other: 0.041)

 Localized orbitals saved to record      2200.2  (orbital set 4)


 **********************************************************************************************************************************
 DATASETS  * FILE   NREC   LENGTH (MB)   RECORD NAMES
              1      20      928.03       500      610      700      900      950      970     1000      129      960     1100   
                                          VAR    BASINP    GEOM    SYMINP    ZMAT    AOBASIS   BASIS     P2S    ABASIS      S 
                                         1400     1410     1200     1210     1080     1600     1650     1300     1700     1800   
                                           T        V       H0       H01     AOSYM     SMH    MOLCAS    ERIS     OPER     GRID   

              2       5        5.27       700     1000      520     1800     2200   
                                         GEOM     BASIS   MCVARS    GRID      UKS  

 PROGRAMS   *        TOTAL      IBBA       UKS       INT
 CPU TIMES  *       120.13      0.06     93.48     26.44
 REAL TIME  *       158.48 SEC
 DISK USED  *         3.90 GB      
 **********************************************************************************************************************************
 Molecular orbitals read from record     2200.2  Type=UKS/LOCAL(IBO)  
 Occupation numbers read from record     2200.2  Type=UKS/LOCAL(IBO)  
 Orbital energies read from record       2200.2  Type=UKS/LOCAL(IBO)  
 Redundancy group numbers read from rec  2200.2  Type=UKS/BETA (state 1.1)

 IBBA/TZVP energy=      0.000000000000

        UKS-SCF 
   -233.70778238
 **********************************************************************************************************************************
 Molpro calculation terminated
