
 Primary working directories    : /tmp/sb13343
 Secondary working directories  : /tmp/sb13343
 Wavefunction directory         : /panfs/panasas01/chem/sb13343/wfu/
 Main file repository           : /tmp/sb13343/

 SHA1      : b4a5b34a9e711420743f49e6833241d17c61fb3c
 NAME      : 2099.9.b4a5b34
 ARCHNAME  : linux/x86_64_openmp
 FC        : /cm/shared/languages/GCC-6.1/bin/gfortran
 BLASLIB   : -lblas
 id        : simonbennie

 Nodes     nprocs
 node32-002    1

 Using customized tuning parameters: mindgm=1; mindgv=20; mindgc=4; mindgr=1; noblas=0; minvec=7
 default implementation of scratch files=df  

 memory,500,m
 geomtyp=xyz
 nosym
 noorient
 geometry={
 C          0.00000        0.00000        0.00000
 C          0.00000        0.00000        1.53307
 O          1.40344        0.00000        1.86307
 C          1.76314        0.00000        3.22887
 H         -1.02289        0.00000       -0.39176
 H          0.51995       -0.88625       -0.37815
 H          0.51995        0.88625       -0.37815
 H          2.85677        0.00000        3.25413
 H          1.40708       -0.89217        3.76475
 H          1.40708        0.89217        3.76475
 C         -0.69252       -1.26694        2.06222
 C         -0.69252        1.26694        2.06222
 H         -0.15366       -2.16088        1.72982
 H         -0.15366        2.16088        1.72982
 H         -1.72011       -1.32515        1.68649
 H         -1.72011        1.32515        1.68649
 H         -0.74365       -1.28188        3.15638
 H         -0.74365        1.28188        3.15638
 }
 basis={ default,sto-3g }
 {ks,B-P,direct;wf,50,1,0}
 {ibba,bonds=1}

 Variables initialized (895), CPU time= 0.00 sec
 Commands  initialized (725), CPU time= 0.02 sec, 591 directives.
 Default parameters read. Elapsed time= 0.12 sec

 Checking input...
 Passed
1


                                         ***  PROGRAM SYSTEM MOLPRO  ***
                                       Copyright, TTI GmbH Stuttgart, 2015
                                    Version 2099.9 linked May 26 2017 16:03:21


 **********************************************************************************************************************************
 LABEL *                                                                                 
  64 bit serial version                                                                  DATE: 09-Jun-17          TIME: 01:30:37  
 **********************************************************************************************************************************

 SHA1:             b4a5b34a9e711420743f49e6833241d17c61fb3c
 **********************************************************************************************************************************
 SETTING GEOMTYP        =    XYZ

 Variable memory set to  500000000 words,  buffer space 

 ZSYMEL=NOSYM

 SETTING BASIS          =    STO-3G


 Recomputing integrals since basis changed


 Using spherical harmonics

 Library entry C      S STO-3G               selected for orbital group  1
 Library entry C      P STO-3G               selected for orbital group  1
 Library entry O      S STO-3G               selected for orbital group  2
 Library entry O      P STO-3G               selected for orbital group  2
 Library entry H      S STO-3G               selected for orbital group  4


 PROGRAM * SEWARD (Integral evaluation for generally contracted gaussian basis sets)     Author: Roland Lindh, 1990

 Geometry written to block  1 of record 700


 Point group  C1  



 ATOMIC COORDINATES

 NR  ATOM    CHARGE       X              Y              Z

   1  C       6.00    0.000000000    0.000000000    0.000000000
   2  C       6.00    0.000000000    0.000000000    2.897082430
   3  O       8.00    2.652117232    0.000000000    3.520692051
   4  C       6.00    3.331851719    0.000000000    6.101679992
   5  H       1.00   -1.932981956    0.000000000   -0.740319107
   6  H       1.00    0.982563098   -1.674769778   -0.714599934
   7  H       1.00    0.982563098    1.674769778   -0.714599934
   8  H       1.00    5.398512901    0.000000000    6.149414474
   9  H       1.00    2.658995835   -1.685956957    7.114346427
  10  H       1.00    2.658995835    1.685956957    7.114346427
  11  C       6.00   -1.308673136   -2.394169616    3.897031009
  12  C       6.00   -1.308673136    2.394169616    3.897031009
  13  H       1.00   -0.290375316   -4.083471388    3.268886045
  14  H       1.00   -0.290375316    4.083471388    3.268886045
  15  H       1.00   -3.250536804   -2.504170574    3.187004212
  16  H       1.00   -3.250536804    2.504170574    3.187004212
  17  H       1.00   -1.405294833   -2.422402125    5.964693745
  18  H       1.00   -1.405294833    2.422402125    5.964693745

 Bond lengths in Bohr (Angstrom)

 1-2  2.897082430  1-5  2.069901355  1-6  2.069042560  1-7  2.069042560  2-3  2.724447609
     ( 1.533070000)     ( 1.095344626)     ( 1.094890171)     ( 1.094890171)     ( 1.441715587)

  2-11  2.905954351   2-12  2.905954351   3- 4  2.668995640   4- 8  2.067212379   4- 9  2.078624355
       ( 1.537764818)       ( 1.537764818)       ( 1.412371669)       ( 1.093921681)       ( 1.099960639)

  4-10  2.078624355  11-13  2.070081404  11-15  2.070524757  11-17  2.070111596  12-14  2.070081404
       ( 1.099960639)       ( 1.095439904)       ( 1.095674516)       ( 1.095455880)       ( 1.095439904)

 12-16  2.070524757  12-18  2.070111596
       ( 1.095674516)       ( 1.095455880)

 Bond angles

  1- 2- 3  103.23196371   1- 2-11  110.12706952   1- 2-12  110.12706952   2- 1- 5  110.95650426

  2- 1- 6  110.20481748   2- 1- 7  110.20481748   2- 3- 4  117.98647004   2-11-13  110.26679927

  2-11-15  110.37287188   2-11-17  112.08316935   2-12-14  110.26679927   2-12-16  110.37287188

  2-12-18  112.08316935   3- 2-11  111.07703285   3- 2-12  111.07703285   3- 4- 8  106.07765410

  3- 4- 9  112.87219182   3- 4-10  112.87219182   5- 1- 6  108.65976572   5- 1- 7  108.65976572

  6- 1- 7  108.08288210   8- 4- 9  108.20190897   8- 4-10  108.20190897   9- 4-10  108.40564999

 11- 2-12  110.95103964  13-11-15  108.29648994  13-11-17  108.35544687  14-12-16  108.29648994

 14-12-18  108.35544687  15-11-17  107.33851825  16-12-18  107.33851825

 NUCLEAR CHARGE:                   50
 NUMBER OF PRIMITIVE AOS:         126
 NUMBER OF SYMMETRY AOS:          126
 NUMBER OF CONTRACTIONS:           42   (  42A   )
 NUMBER OF CORE ORBITALS:           6   (   6A   )
 NUMBER OF VALENCE ORBITALS:       36   (  36A   )


 NUCLEAR REPULSION ENERGY  270.15500869


 Eigenvalues of metric

         1 0.207E+00 0.226E+00 0.228E+00 0.234E+00 0.307E+00 0.355E+00 0.359E+00 0.362E+00


 Contracted 2-electron integrals neglected if value below      1.0D-11
 AO integral compression algorithm  1   Integral accuracy      1.0D-11

     2.884 MB (compressed) written to integral file ( 84.3%)


 NUMBER OF SORTED TWO-ELECTRON INTEGRALS:     408156.     BUFFER LENGTH:  32768
 NUMBER OF SEGMENTS:   1  SEGMENT LENGTH:     408156      RECORD LENGTH: 524288

 Memory used in sort:       0.97 MW

 SORT1 READ      453477. AND WROTE      382834. INTEGRALS IN      2 RECORDS. CPU TIME:     0.01 SEC, REAL TIME:     0.04 SEC
 SORT2 READ      382834. AND WROTE      408156. INTEGRALS IN     11 RECORDS. CPU TIME:     0.03 SEC, REAL TIME:     0.05 SEC

 FILE SIZES:   FILE 1:    33.2 MBYTE,  FILE 4:     8.4 MBYTE,   TOTAL:     41.6 MBYTE

 OPERATOR DM      FOR CENTER  0  COORDINATES:    0.000000    0.000000    0.000000


 **********************************************************************************************************************************
 DATASETS  * FILE   NREC   LENGTH (MB)   RECORD NAMES
              1      19       31.98       500      610      700      900      950      970     1000      129      960     1100   
                                          VAR    BASINP    GEOM    SYMINP    ZMAT    AOBASIS   BASIS     P2S    ABASIS      S 
                                         1400     1410     1200     1210     1080     1600     1650     1300     1700   
                                           T        V       H0       H01     AOSYM     SMH    MOLCAS    ERIS     OPER   

 PROGRAMS   *        TOTAL       INT
 CPU TIMES  *         0.84      0.70
 REAL TIME  *         2.27 SEC
 DISK USED  *        42.19 MB      
 **********************************************************************************************************************************

 Density functional group B-P=B88+P86
 Functional: B88(Automatically generated (new) B88)                            Gradient terms: 1
 Functional: P86(Automatically generated (new) P86)                            Gradient terms: 1
 Use grid at  1800.2

 Functional: B88                       Factor:  1.0000
 Functional: P86                       Factor:  1.0000

 Generated new metagrid on record  1800.2 with target accuracy 1.0D-06 and 66012 points in CPU time    2.0
 Computed new grid on record 1800.1 in CPU time    2.3
   38106 words reserved for DFT integration

 PROGRAM * RKS-SCF (Restricted closed shell Kohn-Sham)     Authors: W. Meyer, H.-J. Werner, P.J. Knowles, 1993

 NUMBER OF ELECTRONS:      25+   25-    SPACE SYMMETRY=1    SPIN SYMMETRY: Singlet 
 CONVERGENCE THRESHOLDS:    1.00E-05 (Density)    1.00E-06 (Energy)
 MAX. NUMBER OF ITERATIONS:       60
 INTERPOLATION TYPE:            DIIS
 INTERPOLATION STEPS:              2 (START)      1 (STEP)
 LEVEL SHIFTS:                  0.00 (CLOSED)  0.00 (OPEN) 



 Use fine grid record 1800.2 for energy threshold  1.0D-06
 Orbital guess generated from atomic densities. Full valence occupancy:   25

 Molecular orbital dump at record        2100.2

 Initial occupancy:  25

 ITERATION    DDIFF          GRAD             ENERGY        2-EL.EN.            DIPOLE MOMENTS         DIIS   ORB.
    1      0.000D+00      0.000D+00      -269.14296966    824.792913   -0.89668    0.00000    0.83058    0    start
    2      0.000D+00      0.273D-01      -269.08908535    783.170106    0.23312   -0.00000   -1.07600    1    diag
    3      0.100D+00      0.293D-01      -269.57719069    803.486143   -0.42648    0.00000    0.40233    2    diag
    4      0.544D-01      0.376D-02      -269.58319915    803.685752   -0.25771    0.00000    0.16882    3    diag
    5      0.825D-02      0.160D-02      -269.58441715    803.633789   -0.33627    0.00000    0.19626    4    diag
    6      0.258D-02      0.268D-03      -269.58445628    803.620464   -0.32191    0.00000    0.20231    5    diag
    7      0.531D-03      0.498D-04      -269.58445765    803.622542   -0.32374    0.00000    0.20572    6    diag
    8      0.924D-04      0.741D-05      -269.58445767    803.623432   -0.32383    0.00000    0.20553    7    diag
    9      0.161D-04      0.246D-05      -269.58445768    803.623331   -0.32376    0.00000    0.20541    8    diag
   10      0.440D-05      0.202D-06      -269.58445768    803.623461   -0.32378    0.00000    0.20545    0    orth

 Final occupancy:  25

 !RKS STATE 1.1 Energy               -269.584457677683
 Nuclear energy                       270.15500869
 One-electron energy                 -901.26802006
 Two-electron energy                  401.81173051
 Density functional                   -40.28317682     B88=-38.45811015 P86= -1.82506667
 Virial quotient                       -1.01660795
 !RKS STATE 1.1 Dipole moment          -0.32378264     0.00000000     0.20544860
 Dipole moment /Debye                  -0.82291947     0.00000000     0.52216405

 Orbital energies:

         1.1          2.1          3.1          4.1          5.1          6.1          7.1          8.1          9.1         10.1
    -18.510735    -9.788802    -9.764614    -9.723918    -9.722451    -9.722371    -0.871842    -0.682183    -0.591584    -0.588704

        11.1         12.1         13.1         14.1         15.1         16.1         17.1         18.1         19.1         20.1
     -0.565408    -0.447197    -0.389328    -0.366993    -0.362572    -0.344373    -0.325633    -0.310739    -0.300974    -0.286517

        21.1         22.1         23.1         24.1         25.1         26.1         27.1
     -0.285832    -0.255731    -0.251551    -0.138240    -0.069946     0.229854     0.311205

 HOMO     25.1    -0.069946 =      -1.9033eV
 LUMO     26.1     0.229854 =       6.2547eV
 LUMO-HOMO         0.299800 =       8.1580eV


 **********************************************************************************************************************************
 DATASETS  * FILE   NREC   LENGTH (MB)   RECORD NAMES
              1      20       34.09       500      610      700      900      950      970     1000      129      960     1100   
                                          VAR    BASINP    GEOM    SYMINP    ZMAT    AOBASIS   BASIS     P2S    ABASIS      S 
                                         1400     1410     1200     1210     1080     1600     1650     1300     1700     1800   
                                           T        V       H0       H01     AOSYM     SMH    MOLCAS    ERIS     OPER     GRID   

              2       5        3.09       700     1000      520     1800     2100   
                                         GEOM     BASIS   MCVARS    GRID      RKS  

 PROGRAMS   *        TOTAL        KS       INT
 CPU TIMES  *         8.22      7.38      0.70
 REAL TIME  *        13.61 SEC
 DISK USED  *        42.19 MB      
 **********************************************************************************************************************************


 PROGRAM * Intrinsic Basis Bonding Analysis (IBBA)          Author: G. Knizia

 Molecular orbitals read from record     2100.2  Type=RKS/CANONICAL (state 1.1)
 Fock matrix read from record            2100.2  Type=RKS/TOTAL (state 1.1)
 Orbital energies read from record       2100.2  Type=RKS/CANONICAL (state 1.1)
 Density matrix read from record         2100.2  Type=RKS/CHARGE (state 1.1)

 Number of core orbitals:           6 (   6 )
 Number of closed-shell orbitals:  19 (  19 )

 Basis set MINAO-AUTO-PP generated.      Number of basis functions:   42 

 Polarized AO type:                A = (O Ot + (1-O)(1-Ot)) P12
 Orthogonalization method:         Symmetric (Loewdin)
 Localization functional:          L = sum[A,i] <i|n_A|i>^4 -> max

 Localization group 1:  25 orbitals, occupancy  2.000
 Iterative localization: IB/PM,    7 iter; Final gradient 0.63E-08

 Bond order analysis:       [THRPRINT= 0.020]

   CEN ATOM   CEN ATOM     WIBERG.BO      RENORM.BO
     1   C  -   2   C       0.990171       0.987240
     1   C  -   5   H       0.965245       0.989429
     1   C  -   6   H       0.962370       0.986551
     1   C  -   7   H       0.962370       0.986551

     2   C  -   1   C       0.990171       0.987240
     2   C  -  12   C       0.985403       0.959171
     2   C  -  11   C       0.985403       0.959171
     2   C  -   3   O       0.979681       0.958396

     3   O  -   4   C       1.025975       1.015942
     3   O  -   2   C       0.979681       0.958396
     3   O  -   9   H       0.033186       0.019738
     3   O  -  10   H       0.033186       0.019738
     3   O  -  12   C       0.028218       0.014967
     3   O  -  11   C       0.028218       0.014967

     4   C  -   3   O       1.025975       1.015942
     4   C  -   8   H       0.952814       0.972758
     4   C  -   9   H       0.949816       0.939497
     4   C  -  10   H       0.949816       0.939497

     5   H  -   1   C       0.965245       0.989429

     6   H  -   1   C       0.962370       0.986551

     7   H  -   1   C       0.962370       0.986551

     8   H  -   4   C       0.952814       0.972758

     9   H  -   4   C       0.949816       0.939497
     9   H  -   3   O       0.033186       0.019738

    10   H  -   4   C       0.949816       0.939497
    10   H  -   3   O       0.033186       0.019738

    11   C  -   2   C       0.985403       0.959171
    11   C  -  17   H       0.964276       0.985237
    11   C  -  13   H       0.963028       0.986340
    11   C  -  15   H       0.962837       0.988810
    11   C  -   3   O       0.028218       0.014967

    12   C  -   2   C       0.985403       0.959171
    12   C  -  18   H       0.964276       0.985237
    12   C  -  14   H       0.963028       0.986340
    12   C  -  16   H       0.962837       0.988810
    12   C  -   3   O       0.028218       0.014967

    13   H  -  11   C       0.963028       0.986340

    14   H  -  12   C       0.963028       0.986340

    15   H  -  11   C       0.962837       0.988810

    16   H  -  12   C       0.962837       0.988810

    17   H  -  11   C       0.964276       0.985237

    18   H  -  12   C       0.964276       0.985237


 Valency analysis:

   CEN ATOM   TOT.VALENCE
     1   C       3.932914
     2   C       3.971322
     3   O       2.188330
     4   C       3.902249
     5   H       0.982434
     6   H       0.980799
     7   H       0.980799
     8   H       0.979921
     9   H       0.987582
    10   H       0.987582
    11   C       3.934496
    12   C       3.934496
    13   H       0.981553
    14   H       0.981553
    15   H       0.981600
    16   H       0.981600
    17   H       0.983332
    18   H       0.983332

 Total charge composition:

   CEN ATOM         s          p       ELECTRONS ->P.CHARGE
     1   C       3.00224    3.39357      6.39580   -0.39580
     2   C       2.95093    2.93117      5.88211    0.11789
     3   O       3.66347    4.54672      8.21019   -0.21019
     4   C       3.00811    3.26147      6.26957   -0.26957
     5   H       0.86746                 0.86746    0.13254
     6   H       0.86143                 0.86143    0.13857
     7   H       0.86143                 0.86143    0.13857
     8   H       0.85830                 0.85830    0.14170
     9   H       0.88857                 0.88857    0.11143
    10   H       0.88857                 0.88857    0.11143
    11   C       3.00283    3.40602      6.40886   -0.40886
    12   C       3.00283    3.40602      6.40886   -0.40886
    13   H       0.86418                 0.86418    0.13582
    14   H       0.86418                 0.86418    0.13582
    15   H       0.86435                 0.86435    0.13565
    16   H       0.86435                 0.86435    0.13565
    17   H       0.87089                 0.87089    0.12911
    18   H       0.87089                 0.87089    0.12911

 Total charge composition, AO contributions:

   CEN ATOM SHL      SPHERICAL COMPONENTS
     1   C  1s       1.99203
     1   C  2s       1.01021
     1   C  2p       1.16855    1.17678    1.04824

     2   C  1s       1.99345
     2   C  2s       0.95748
     2   C  2p       0.86845    1.03256    1.03017

     3   O  1s       1.99748
     3   O  2s       1.66599
     3   O  2p       1.31212    1.90362    1.33098

     4   C  1s       1.99256
     4   C  2s       1.01554
     4   C  2p       1.16707    1.17813    0.91626

     5   H  1s       0.86746

     6   H  1s       0.86143

     7   H  1s       0.86143

     8   H  1s       0.85830

     9   H  1s       0.88857

    10   H  1s       0.88857

    11   C  1s       1.99209
    11   C  2s       1.01075
    11   C  2p       1.15064    1.09936    1.15602

    12   C  1s       1.99209
    12   C  2s       1.01075
    12   C  2p       1.15064    1.09936    1.15602

    13   H  1s       0.86418

    14   H  1s       0.86418

    15   H  1s       0.86435

    16   H  1s       0.86435

    17   H  1s       0.87089

    18   H  1s       0.87089

 Summary of localized orbital composition:   [THRPRINT= 0.020]

   ORB  GRP  ORB.ENERGY      CENTERS/CHARGES
     1   1   -18.353413      O  3   2.000
     2   1    -9.698235      C  2   2.000
     3   1    -9.659462      C  4   2.000
     4   1    -9.614156      C  1   2.000
     5   1    -9.613332      C 12   2.000
     6   1    -9.613332      C 11   2.000
     7   1    -0.596409      O  3   1.161   C  4   0.830
     8   1    -0.562383      O  3   1.169   C  2   0.805   (other: 0.026)
     9   1    -0.470903      C  2   0.995   C  1   0.981   (other: 0.024)
    10   1    -0.470057      C 11   0.994   C  2   0.991
    11   1    -0.470057      C 12   0.994   C  2   0.991
    12   1    -0.431197      C  4   1.141   H  8   0.849
    13   1    -0.429730      C  4   1.130   H 10   0.868
    14   1    -0.429730      C  4   1.130   H  9   0.868
    15   1    -0.427468      O  3   1.967   (other: 0.033)
    16   1    -0.416697      C  1   1.128   H  5   0.861
    17   1    -0.416245      C 12   1.127   H 18   0.864
    18   1    -0.416245      C 11   1.127   H 17   0.864
    19   1    -0.416103      C 11   1.131   H 15   0.857
    20   1    -0.416103      C 12   1.131   H 16   0.857
    21   1    -0.412610      C 12   1.134   H 14   0.857
    22   1    -0.412610      C 11   1.134   H 13   0.857
    23   1    -0.410135      C  1   1.136   H  6   0.854
    24   1    -0.410135      C  1   1.136   H  7   0.854
    25   1    -0.101490      O  3   1.903   C  2   0.023   (other: 0.074)

 Localized orbitals saved to record      2100.2  (orbital set 2)


 **********************************************************************************************************************************
 DATASETS  * FILE   NREC   LENGTH (MB)   RECORD NAMES
              1      20       34.09       500      610      700      900      950      970     1000      129      960     1100   
                                          VAR    BASINP    GEOM    SYMINP    ZMAT    AOBASIS   BASIS     P2S    ABASIS      S 
                                         1400     1410     1200     1210     1080     1600     1650     1300     1700     1800   
                                           T        V       H0       H01     AOSYM     SMH    MOLCAS    ERIS     OPER     GRID   

              2       5        3.11       700     1000      520     1800     2100   
                                         GEOM     BASIS   MCVARS    GRID      RKS  

 PROGRAMS   *        TOTAL      IBBA        KS       INT
 CPU TIMES  *         8.27      0.04      7.38      0.70
 REAL TIME  *        13.78 SEC
 DISK USED  *        42.19 MB      
 **********************************************************************************************************************************
 Molecular orbitals read from record     2100.2  Type=RKS/LOCAL(IBO)  
 Occupation numbers read from record     2100.2  Type=RKS/LOCAL(IBO)  
 Orbital energies read from record       2100.2  Type=RKS/LOCAL(IBO)  
 Redundancy group numbers read from rec  2100.2  Type=RKS/LOCAL(IBO)  

 IBBA/STO-3G energy=      0.000000000000

        KS-SCF  
   -269.58445768
 **********************************************************************************************************************************
 Molpro calculation terminated
