
 Primary working directories    : /local
 Secondary working directories  : /local
 Wavefunction directory         : /local/
 Main file repository           : /local/

 SHA1      : b4a5b34a9e711420743f49e6833241d17c61fb3c
 NAME      : 2099.9.b4a5b34
 ARCHNAME  : linux/x86_64_openmp
 FC        : /cm/shared/languages/GCC-6.1/bin/gfortran
 BLASLIB   : -lblas
 id        : simonbennie

 Nodes     nprocs
 node35-036    1

 Using customized tuning parameters: mindgm=1; mindgv=20; mindgc=4; mindgr=1; noblas=0; minvec=7
 default implementation of scratch files=df  

 memory,500,m
 geomtyp=xyz
 nosym
 noorient
 geometry={
 C         -1.53233        0.02247        0.00000
 C         -0.00192        0.01421        0.00000
 O          0.37239        1.40356        0.00000
 H          1.34248        1.44036        0.00000
 H         -1.92991       -0.99819        0.00000
 H         -1.90797        0.54382       -0.88653
 H         -1.90797        0.54382        0.88653
 C          0.54303       -0.66466       -1.26580
 C          0.54303       -0.66466        1.26580
 H          0.17836       -0.14752       -2.15943
 H          0.17836       -0.14752        2.15943
 H          0.23752       -1.71600       -1.32280
 H          0.23752       -1.71600        1.32280
 H          1.64084       -0.63767       -1.28032
 H          1.64084       -0.63767        1.28032
 }
 basis={ default,SV(P) }
 {uks,M08-SO,direct;wf,42,1,0}
 {ibba,bonds=1}

 Variables initialized (895), CPU time= 0.00 sec
 Commands  initialized (725), CPU time= 0.02 sec, 591 directives.
 Default parameters read. Elapsed time= 0.11 sec

 Checking input...
 Passed
1


                                         ***  PROGRAM SYSTEM MOLPRO  ***
                                       Copyright, TTI GmbH Stuttgart, 2015
                                    Version 2099.9 linked May 26 2017 16:03:21


 **********************************************************************************************************************************
 LABEL *                                                                                 
  64 bit serial version                                                                  DATE: 12-Jun-17          TIME: 20:16:14  
 **********************************************************************************************************************************

 SHA1:             b4a5b34a9e711420743f49e6833241d17c61fb3c
 **********************************************************************************************************************************
 SETTING GEOMTYP        =    XYZ

 Variable memory set to  500000000 words,  buffer space 

 ZSYMEL=NOSYM

 SETTING BASIS          =    SV(P)


 Recomputing integrals since basis changed


 Using spherical harmonics

 Library entry C      S def2-SV(P)           selected for orbital group  1
 Library entry C      P def2-SV(P)           selected for orbital group  1
 Library entry C      D def2-SV(P)           selected for orbital group  1
 Library entry O      S def2-SV(P)           selected for orbital group  2
 Library entry O      P def2-SV(P)           selected for orbital group  2
 Library entry O      D def2-SV(P)           selected for orbital group  2
 Library entry H      S def2-SV(P)           selected for orbital group  3


 PROGRAM * SEWARD (Integral evaluation for generally contracted gaussian basis sets)     Author: Roland Lindh, 1990

 Geometry written to block  1 of record 700


 Point group  C1  



 ATOMIC COORDINATES

 NR  ATOM    CHARGE       X              Y              Z

   1  C       6.00   -2.895684032    0.042462146    0.000000000
   2  C       6.00   -0.003628274    0.026853008    0.000000000
   3  O       8.00    0.703715112    2.652343999    0.000000000
   4  H       1.00    2.536919528    2.721885921    0.000000000
   5  H       1.00   -3.647001345   -1.886305720    0.000000000
   6  H       1.00   -3.605540754    1.027670861   -1.675298901
   7  H       1.00   -3.605540754    1.027670861    1.675298901
   8  C       6.00    1.026177977   -1.256025366   -2.392015328
   9  C       6.00    1.026177977   -1.256025366    2.392015328
  10  H       1.00    0.337051552   -0.278772398   -4.080731285
  11  H       1.00    0.337051552   -0.278772398    4.080731285
  12  H       1.00    0.448847749   -3.242770030   -2.499729718
  13  H       1.00    0.448847749   -3.242770030    2.499729718
  14  H       1.00    3.100738214   -1.205021658   -2.419454152
  15  H       1.00    3.100738214   -1.205021658    2.419454152

 Bond lengths in Bohr (Angstrom)

 1-2  2.892097881  1-5  2.069933136  1-6  2.069096224  1-7  2.069096224  2-3  2.719106031
     ( 1.530432290)     ( 1.095361444)     ( 1.094918569)     ( 1.094918569)     ( 1.438888946)

  2- 8  2.903104402   2- 9  2.903104402   3- 4  1.834522965   8-10  2.069222119   8-12  2.071730422
       ( 1.536256691)       ( 1.536256691)       ( 0.970787746)       ( 1.094985190)       ( 1.096312526)

  8-14  2.075368508   9-11  2.069222119   9-13  2.071730422   9-15  2.075368508
       ( 1.098237719)       ( 1.094985190)       ( 1.096312526)       ( 1.098237719)

 Bond angles

  1-2-3  104.76902697   1-2-8  110.92255387   1-2-9  110.92255387   2-1-5  110.97328220

  2- 1- 6  110.22090701   2- 1- 7  110.22090701   2- 3- 4  107.25071562   2- 8-10  110.21836376

  2- 8-12  111.57747468   2- 8-14  110.77023896   2- 9-11  110.21836376   2- 9-13  111.57747468

  2- 9-15  110.77023896   3- 2- 8  109.53648747   3- 2- 9  109.53648747   5- 1- 6  108.61190457

  5- 1- 7  108.61190457   6- 1- 7  108.12870271   8- 2- 9  110.96453384  10- 8-12  108.52192632

 10- 8-14  108.08997829  11- 9-13  108.52192632  11- 9-15  108.08997829  12- 8-14  107.54424578

 13- 9-15  107.54424578

 NUCLEAR CHARGE:                   42
 NUMBER OF PRIMITIVE AOS:         165
 NUMBER OF SYMMETRY AOS:          160
 NUMBER OF CONTRACTIONS:           90   (  90A   )
 NUMBER OF CORE ORBITALS:           5   (   5A   )
 NUMBER OF VALENCE ORBITALS:       30   (  30A   )


 NUCLEAR REPULSION ENERGY  198.77359127


 Eigenvalues of metric

         1 0.179E-02 0.600E-02 0.603E-02 0.144E-01 0.286E-01 0.297E-01 0.300E-01 0.361E-01


 Contracted 2-electron integrals neglected if value below      1.0D-11
 AO integral compression algorithm  1   Integral accuracy      1.0D-11

     37.487 MB (compressed) written to integral file ( 49.6%)


 NUMBER OF SORTED TWO-ELECTRON INTEGRALS:    8386560.     BUFFER LENGTH:  32768
 NUMBER OF SEGMENTS:   1  SEGMENT LENGTH:    8386560      RECORD LENGTH: 524288

 Memory used in sort:       8.94 MW

 SORT1 READ     9478508. AND WROTE     7931434. INTEGRALS IN     23 RECORDS. CPU TIME:     0.11 SEC, REAL TIME:     0.25 SEC
 SORT2 READ     7931434. AND WROTE     8386560. INTEGRALS IN    143 RECORDS. CPU TIME:     0.24 SEC, REAL TIME:     0.32 SEC

 FILE SIZES:   FILE 1:    68.0 MBYTE,  FILE 4:    96.5 MBYTE,   TOTAL:    164.5 MBYTE

 OPERATOR DM      FOR CENTER  0  COORDINATES:    0.000000    0.000000    0.000000


 **********************************************************************************************************************************
 DATASETS  * FILE   NREC   LENGTH (MB)   RECORD NAMES
              1      19       63.39       500      610      700      900      950      970     1000      129      960     1100   
                                          VAR    BASINP    GEOM    SYMINP    ZMAT    AOBASIS   BASIS     P2S    ABASIS      S 
                                         1400     1410     1200     1210     1080     1600     1650     1300     1700   
                                           T        V       H0       H01     AOSYM     SMH    MOLCAS    ERIS     OPER   

 PROGRAMS   *        TOTAL       INT
 CPU TIMES  *         1.89      1.75
 REAL TIME  *         2.67 SEC
 DISK USED  *       165.03 MB      
 **********************************************************************************************************************************

 Density functional group M08-SO=XC-M08-SO
 Functional: XC-M08-SO(via MFM 1.6)                                            Gradient terms: 1
 Use grid at  1800.2


 Exact exchange will be calculated, factor:  0.5679

 Functional: XC-M08-SO                 Factor:  1.0000

 Generated new metagrid on record  1800.2 with target accuracy 1.0D-06 and 53396 points in CPU time    1.6
 Computed new grid on record 1800.1 in CPU time    1.8
   75909 words reserved for DFT integration

 PROGRAM * UKS-SCF (Unrestricted Kohn-Sham)     Authors: W. Meyer, H.-J. Werner, P.J. Knowles, 1993

 NUMBER OF ELECTRONS:      21+   21-    SPACE SYMMETRY=1    SPIN SYMMETRY: Singlet 
 CONVERGENCE THRESHOLDS:    1.00E-05 (Density)    1.00E-06 (Energy)
 MAX. NUMBER OF ITERATIONS:       60
 INTERPOLATION TYPE:            DIIS
 INTERPOLATION STEPS:              2 (START)      1 (STEP)
 LEVEL SHIFTS:                 -0.20 (ALPHA)  -0.20 (BETA) 



 Use fine grid record 1800.2 for energy threshold  1.0D-06
 Orbital guess generated from atomic densities. Full valence occupancy:   21

 Molecular orbital dump at record        2200.2

 Initial alpha occupation  21
 Initial beta  occupation  21

 ITERATION    DDIFF          GRAD             ENERGY        2-EL.EN.            DIPOLE MOMENTS         DIIS
    1      0.000D+00      0.000D+00      -233.18983025    593.959359    0.76238   -0.85685    0.00000    0
    2      0.112D-01      0.551D-02      -233.30724837    582.020548    0.41026   -0.51524    0.00000    1
    3      0.311D-02      0.198D-02      -233.31911583    584.350215    0.43239   -0.55805    0.00000    2
    4      0.119D-02      0.439D-03      -233.32038015    584.194734    0.41183   -0.51562    0.00000    3
    5      0.913D-03      0.209D-03      -233.32077106    584.133159    0.40025   -0.51183    0.00000    4
    6      0.360D-03      0.451D-04      -233.32079677    584.121676    0.39849   -0.51088    0.00000    5
    7      0.725D-04      0.848D-05      -233.32079777    584.116103    0.39808   -0.51125    0.00000    6
    8      0.119D-04      0.280D-05      -233.32079785    584.118802    0.39808   -0.51132    0.00000    6
    9      0.663D-05      0.119D-05      -233.32079787    584.118565    0.39801   -0.51129    0.00000    6
   10      0.147D-05      0.303D-06      -233.32079787    584.118330    0.39800   -0.51130    0.00000    7

 Final alpha occupancy:  21
 Final beta  occupancy:  21

 !UKS STATE 1.1 Energy               -233.320797868866
 Nuclear energy                       198.77359127
 One-electron energy                 -708.75628209
 Two-electron energy                  292.05916491
 Density functional                   -15.39727196     XC-M08-SO=-15.39727196
 Virial quotient                       -1.01115395
 !UKS STATE 1.1 Dipole moment           0.39800177    -0.51130062     0.00000000
 Dipole moment /Debye                   1.01155334    -1.29951142     0.00000000

 Orbital energies for positive spin:

         1.1          2.1          3.1          4.1          5.1          6.1          7.1          8.1          9.1         10.1
    -19.564119   -10.566880   -10.497691   -10.497663   -10.491406    -1.112993    -0.878512    -0.777606    -0.776254    -0.647022

        11.1         12.1         13.1         14.1         15.1         16.1         17.1         18.1         19.1         20.1
     -0.566454    -0.529352    -0.527141    -0.485841    -0.471378    -0.449448    -0.436499    -0.426280    -0.419385    -0.386764

        21.1         22.1         23.1
     -0.346487     0.060133     0.110161

 Orbital energies for negative spin:

         1.1          2.1          3.1          4.1          5.1          6.1          7.1          8.1          9.1         10.1
    -19.564119   -10.566880   -10.497691   -10.497663   -10.491406    -1.112993    -0.878512    -0.777606    -0.776254    -0.647022

        11.1         12.1         13.1         14.1         15.1         16.1         17.1         18.1         19.1         20.1
     -0.566454    -0.529352    -0.527141    -0.485841    -0.471378    -0.449448    -0.436499    -0.426280    -0.419385    -0.386764

        21.1         22.1         23.1
     -0.346487     0.060133     0.110161

 HOMO     21.1    -0.346487 =      -9.4284eV
 LUMO     22.1     0.060133 =       1.6363eV
 LUMO-HOMO         0.406620 =      11.0647eV

 EXPECTATION VALUE OF S**2:             0.00000000

 Natural orbitals saved to record    2200.2 (Orbital set 3)

 Orbital spaces for UNO-CAS (Min. occupation: 0.020  Max. occupation: 1.980):

 Closed:       21
 Active:        0


 **********************************************************************************************************************************
 DATASETS  * FILE   NREC   LENGTH (MB)   RECORD NAMES
              1      20       65.10       500      610      700      900      950      970     1000      129      960     1100   
                                          VAR    BASINP    GEOM    SYMINP    ZMAT    AOBASIS   BASIS     P2S    ABASIS      S 
                                         1400     1410     1200     1210     1080     1600     1650     1300     1700     1800   
                                           T        V       H0       H01     AOSYM     SMH    MOLCAS    ERIS     OPER     GRID   

              2       5        3.34       700     1000      520     1800     2200   
                                         GEOM     BASIS   MCVARS    GRID      UKS  

 PROGRAMS   *        TOTAL       UKS       INT
 CPU TIMES  *        42.40     40.51      1.75
 REAL TIME  *        43.98 SEC
 DISK USED  *       165.03 MB      
 **********************************************************************************************************************************


 PROGRAM * Intrinsic Basis Bonding Analysis (IBBA)          Author: G. Knizia

 Molecular orbitals read from record     2200.2  Type=UKS/ALPHA (state 1.1)
 Fock matrix read from record            2200.2  Type=UKS/TOTAL (state 1.1)
 Orbital energies read from record       2200.2  Type=UKS/ALPHA (state 1.1)
 Density matrix read from record         2200.2  Type=UKS/CHARGE (state 1.1)

 Number of core orbitals:           5 (   5 )
 Number of closed-shell orbitals:  16 (  16 )

 Basis set MINAO-AUTO-PP generated.      Number of basis functions:   35 

 Polarized AO type:                A = (O Ot + (1-O)(1-Ot)) P12
 Orthogonalization method:         Symmetric (Loewdin)
 Localization functional:          L = sum[A,i] <i|n_A|i>^4 -> max

 Localization group 1:  21 orbitals, occupancy  2.000
 Iterative localization: IB/PM,    7 iter; Final gradient 0.18E-08

 Bond order analysis:       [THRPRINT= 0.020]

   CEN ATOM   CEN ATOM     WIBERG.BO      RENORM.BO
     1   C  -   2   C       0.993678       0.993077
     1   C  -   5   H       0.967699       0.987921
     1   C  -   6   H       0.963290       0.983278
     1   C  -   7   H       0.963290       0.983278

     2   C  -   1   C       0.993678       0.993077
     2   C  -   9   C       0.993386       0.977005
     2   C  -   8   C       0.993386       0.977005
     2   C  -   3   O       0.940209       0.956627

     3   O  -   2   C       0.940209       0.956627
     3   O  -   4   H       0.881913       0.978782
     3   O  -   9   C       0.025098       0.012947
     3   O  -   8   C       0.025098       0.012947

     4   H  -   3   O       0.881913       0.978782

     5   H  -   1   C       0.967699       0.987921

     6   H  -   1   C       0.963290       0.983278

     7   H  -   1   C       0.963290       0.983278

     8   C  -   2   C       0.993386       0.977005
     8   C  -  14   H       0.967026       0.983729
     8   C  -  12   H       0.964305       0.984517
     8   C  -  10   H       0.963523       0.983062
     8   C  -   3   O       0.025098       0.012947

     9   C  -   2   C       0.993386       0.977005
     9   C  -  15   H       0.967026       0.983729
     9   C  -  13   H       0.964305       0.984517
     9   C  -  11   H       0.963523       0.983062
     9   C  -   3   O       0.025098       0.012947

    10   H  -   8   C       0.963523       0.983062

    11   H  -   9   C       0.963523       0.983062

    12   H  -   8   C       0.964305       0.984517

    13   H  -   9   C       0.964305       0.984517

    14   H  -   8   C       0.967026       0.983729

    15   H  -   9   C       0.967026       0.983729


 Valency analysis:

   CEN ATOM   TOT.VALENCE
     1   C       3.944262
     2   C       3.932758
     3   O       1.932155
     4   H       0.899437
     5   H       0.985831
     6   H       0.983601
     7   H       0.983601
     8   C       3.946386
     9   C       3.946386
    10   H       0.983452
    11   H       0.983452
    12   H       0.984856
    13   H       0.984856
    14   H       0.987313
    15   H       0.987313

 Total charge composition:

   CEN ATOM         s          p       ELECTRONS ->P.CHARGE
     1   C       3.00558    3.36026      6.36585   -0.36585
     2   C       2.91280    2.83853      5.75133    0.24867
     3   O       3.61594    4.92311      8.53904   -0.53904
     4   H       0.68288                 0.68288    0.31712
     5   H       0.88097                 0.88097    0.11903
     6   H       0.87194                 0.87194    0.12806
     7   H       0.87194                 0.87194    0.12806
     8   C       3.01133    3.37102      6.38235   -0.38235
     9   C       3.01133    3.37102      6.38235   -0.38235
    10   H       0.87136                 0.87136    0.12864
    11   H       0.87136                 0.87136    0.12864
    12   H       0.87694                 0.87694    0.12306
    13   H       0.87694                 0.87694    0.12306
    14   H       0.88736                 0.88736    0.11264
    15   H       0.88736                 0.88736    0.11264

 Total charge composition, AO contributions:

   CEN ATOM SHL      SPHERICAL COMPONENTS
     1   C  1s       1.99108
     1   C  2s       1.01451
     1   C  2p       1.04326    1.15303    1.16398

     2   C  1s       1.99266
     2   C  2s       0.92014
     2   C  2p       1.02077    0.80051    1.01725

     3   O  1s       1.99713
     3   O  2s       1.61881
     3   O  2p       1.46426    1.49792    1.96093

     4   H  1s       0.68288

     5   H  1s       0.88097

     6   H  1s       0.87194

     7   H  1s       0.87194

     8   C  1s       1.99117
     8   C  2s       1.02016
     8   C  2p       1.13601    1.13850    1.09652

     9   C  1s       1.99117
     9   C  2s       1.02016
     9   C  2p       1.13601    1.13850    1.09652

    10   H  1s       0.87136

    11   H  1s       0.87136

    12   H  1s       0.87694

    13   H  1s       0.87694

    14   H  1s       0.88736

    15   H  1s       0.88736

 Summary of localized orbital composition:   [THRPRINT= 0.020]

   ORB  GRP  ORB.ENERGY      CENTERS/CHARGES
     1   1   -19.409914      O  3   2.000
     2   1   -10.473472      C  2   2.000
     3   1   -10.382297      C  9   2.000
     4   1   -10.382297      C  8   2.000
     5   1   -10.375199      C  1   2.000
     6   1    -0.850300      O  3   1.319   H  4   0.673
     7   1    -0.814188      O  3   1.273   C  2   0.711
     8   1    -0.653463      C  8   1.007   C  2   0.978
     9   1    -0.653463      C  9   1.007   C  2   0.978
    10   1    -0.652138      C  2   0.991   C  1   0.986   (other: 0.023)
    11   1    -0.635725      O  3   1.983
    12   1    -0.580833      C  9   1.119   H 13   0.868
    13   1    -0.580833      C  8   1.119   H 12   0.868
    14   1    -0.579967      C  9   1.109   H 15   0.881
    15   1    -0.579967      C  8   1.109   H 14   0.881
    16   1    -0.576641      C  1   1.114   H  5   0.874
    17   1    -0.574348      C  9   1.127   H 11   0.864
    18   1    -0.574348      C  8   1.127   H 10   0.864
    19   1    -0.568148      C  1   1.125   H  7   0.864
    20   1    -0.568148      C  1   1.125   H  6   0.864
    21   1    -0.389574      O  3   1.961   (other: 0.039)

 Localized orbitals saved to record      2200.2  (orbital set 4)


 **********************************************************************************************************************************
 DATASETS  * FILE   NREC   LENGTH (MB)   RECORD NAMES
              1      20       65.10       500      610      700      900      950      970     1000      129      960     1100   
                                          VAR    BASINP    GEOM    SYMINP    ZMAT    AOBASIS   BASIS     P2S    ABASIS      S 
                                         1400     1410     1200     1210     1080     1600     1650     1300     1700     1800   
                                           T        V       H0       H01     AOSYM     SMH    MOLCAS    ERIS     OPER     GRID   

              2       5        3.40       700     1000      520     1800     2200   
                                         GEOM     BASIS   MCVARS    GRID      UKS  

 PROGRAMS   *        TOTAL      IBBA       UKS       INT
 CPU TIMES  *        42.43      0.03     40.51      1.75
 REAL TIME  *        44.11 SEC
 DISK USED  *       165.03 MB      
 **********************************************************************************************************************************
 Molecular orbitals read from record     2200.2  Type=UKS/LOCAL(IBO)  
 Occupation numbers read from record     2200.2  Type=UKS/LOCAL(IBO)  
 Orbital energies read from record       2200.2  Type=UKS/LOCAL(IBO)  
 Redundancy group numbers read from rec  2200.2  Type=UKS/BETA (state 1.1)

 IBBA/SV(P) energy=      0.000000000000

        UKS-SCF 
   -233.32079787
 **********************************************************************************************************************************
 Molpro calculation terminated
