
 Primary working directories    : /tmp/sb13343
 Secondary working directories  : /tmp/sb13343
 Wavefunction directory         : /panfs/panasas01/chem/sb13343/wfu/
 Main file repository           : /tmp/sb13343/

 SHA1      : b4a5b34a9e711420743f49e6833241d17c61fb3c
 NAME      : 2099.9.b4a5b34
 ARCHNAME  : linux/x86_64_openmp
 FC        : /cm/shared/languages/GCC-6.1/bin/gfortran
 BLASLIB   : -lblas
 id        : simonbennie

 Nodes     nprocs
 node32-029    1

 Using customized tuning parameters: mindgm=1; mindgv=20; mindgc=4; mindgr=1; noblas=0; minvec=7
 default implementation of scratch files=df  

 memory,500,m
 geomtyp=xyz
 nosym
 noorient
 geometry={
 C          0.00000        0.00000        0.00000
 C          0.00000        0.00000        1.53307
 O          1.40344        0.00000        1.86307
 C          1.76314        0.00000        3.22887
 H         -1.02289        0.00000       -0.39176
 H          0.51995       -0.88625       -0.37815
 H          0.51995        0.88625       -0.37815
 H          2.85677        0.00000        3.25413
 H          1.40708       -0.89217        3.76475
 H          1.40708        0.89217        3.76475
 C         -0.69252       -1.26694        2.06222
 C         -0.69252        1.26694        2.06222
 H         -0.15366       -2.16088        1.72982
 H         -0.15366        2.16088        1.72982
 H         -1.72011       -1.32515        1.68649
 H         -1.72011        1.32515        1.68649
 H         -0.74365       -1.28188        3.15638
 H         -0.74365        1.28188        3.15638
 }
 basis={ default,svp }
 {uks,B97,direct;wf,50,1,0}
 {ibba,bonds=1}

 Variables initialized (895), CPU time= 0.00 sec
 Commands  initialized (725), CPU time= 0.02 sec, 591 directives.
 Default parameters read. Elapsed time= 0.08 sec

 Checking input...
 Passed
1


                                         ***  PROGRAM SYSTEM MOLPRO  ***
                                       Copyright, TTI GmbH Stuttgart, 2015
                                    Version 2099.9 linked May 26 2017 16:03:21


 **********************************************************************************************************************************
 LABEL *                                                                                 
  64 bit serial version                                                                  DATE: 09-Jun-17          TIME: 01:51:25  
 **********************************************************************************************************************************

 SHA1:             b4a5b34a9e711420743f49e6833241d17c61fb3c
 **********************************************************************************************************************************
 SETTING GEOMTYP        =    XYZ

 Variable memory set to  500000000 words,  buffer space 

 ZSYMEL=NOSYM

 SETTING BASIS          =    SVP


 Recomputing integrals since basis changed


 Using spherical harmonics

 Library entry C      S def2-SVP             selected for orbital group  1
 Library entry C      P def2-SVP             selected for orbital group  1
 Library entry C      D def2-SVP             selected for orbital group  1
 Library entry O      S def2-SVP             selected for orbital group  2
 Library entry O      P def2-SVP             selected for orbital group  2
 Library entry O      D def2-SVP             selected for orbital group  2
 Library entry H      S def2-SVP             selected for orbital group  4
 Library entry H      P def2-SVP             selected for orbital group  4


 PROGRAM * SEWARD (Integral evaluation for generally contracted gaussian basis sets)     Author: Roland Lindh, 1990

 Geometry written to block  1 of record 700


 Point group  C1  



 ATOMIC COORDINATES

 NR  ATOM    CHARGE       X              Y              Z

   1  C       6.00    0.000000000    0.000000000    0.000000000
   2  C       6.00    0.000000000    0.000000000    2.897082430
   3  O       8.00    2.652117232    0.000000000    3.520692051
   4  C       6.00    3.331851719    0.000000000    6.101679992
   5  H       1.00   -1.932981956    0.000000000   -0.740319107
   6  H       1.00    0.982563098   -1.674769778   -0.714599934
   7  H       1.00    0.982563098    1.674769778   -0.714599934
   8  H       1.00    5.398512901    0.000000000    6.149414474
   9  H       1.00    2.658995835   -1.685956957    7.114346427
  10  H       1.00    2.658995835    1.685956957    7.114346427
  11  C       6.00   -1.308673136   -2.394169616    3.897031009
  12  C       6.00   -1.308673136    2.394169616    3.897031009
  13  H       1.00   -0.290375316   -4.083471388    3.268886045
  14  H       1.00   -0.290375316    4.083471388    3.268886045
  15  H       1.00   -3.250536804   -2.504170574    3.187004212
  16  H       1.00   -3.250536804    2.504170574    3.187004212
  17  H       1.00   -1.405294833   -2.422402125    5.964693745
  18  H       1.00   -1.405294833    2.422402125    5.964693745

 Bond lengths in Bohr (Angstrom)

 1-2  2.897082430  1-5  2.069901355  1-6  2.069042560  1-7  2.069042560  2-3  2.724447609
     ( 1.533070000)     ( 1.095344626)     ( 1.094890171)     ( 1.094890171)     ( 1.441715587)

  2-11  2.905954351   2-12  2.905954351   3- 4  2.668995640   4- 8  2.067212379   4- 9  2.078624355
       ( 1.537764818)       ( 1.537764818)       ( 1.412371669)       ( 1.093921681)       ( 1.099960639)

  4-10  2.078624355  11-13  2.070081404  11-15  2.070524757  11-17  2.070111596  12-14  2.070081404
       ( 1.099960639)       ( 1.095439904)       ( 1.095674516)       ( 1.095455880)       ( 1.095439904)

 12-16  2.070524757  12-18  2.070111596
       ( 1.095674516)       ( 1.095455880)

 Bond angles

  1- 2- 3  103.23196371   1- 2-11  110.12706952   1- 2-12  110.12706952   2- 1- 5  110.95650426

  2- 1- 6  110.20481748   2- 1- 7  110.20481748   2- 3- 4  117.98647004   2-11-13  110.26679927

  2-11-15  110.37287188   2-11-17  112.08316935   2-12-14  110.26679927   2-12-16  110.37287188

  2-12-18  112.08316935   3- 2-11  111.07703285   3- 2-12  111.07703285   3- 4- 8  106.07765410

  3- 4- 9  112.87219182   3- 4-10  112.87219182   5- 1- 6  108.65976572   5- 1- 7  108.65976572

  6- 1- 7  108.08288210   8- 4- 9  108.20190897   8- 4-10  108.20190897   9- 4-10  108.40564999

 11- 2-12  110.95103964  13-11-15  108.29648994  13-11-17  108.35544687  14-12-16  108.29648994

 14-12-18  108.35544687  15-11-17  107.33851825  16-12-18  107.33851825

 NUCLEAR CHARGE:                   50
 NUMBER OF PRIMITIVE AOS:         234
 NUMBER OF SYMMETRY AOS:          228
 NUMBER OF CONTRACTIONS:          144   ( 144A   )
 NUMBER OF CORE ORBITALS:           6   (   6A   )
 NUMBER OF VALENCE ORBITALS:       36   (  36A   )


 NUCLEAR REPULSION ENERGY  270.15500869


 Eigenvalues of metric

         1 0.176E-02 0.508E-02 0.513E-02 0.102E-01 0.124E-01 0.215E-01 0.221E-01 0.252E-01


 Contracted 2-electron integrals neglected if value below      1.0D-11
 AO integral compression algorithm  1   Integral accuracy      1.0D-11

     186.384 MB (compressed) written to integral file ( 41.3%)


 NUMBER OF SORTED TWO-ELECTRON INTEGRALS:   54502020.     BUFFER LENGTH:  32768
 NUMBER OF SEGMENTS:   4  SEGMENT LENGTH:   15999503      RECORD LENGTH: 524288

 Memory used in sort:      16.56 MW

 SORT1 READ    56333432. AND WROTE    45703433. INTEGRALS IN    132 RECORDS. CPU TIME:     0.82 SEC, REAL TIME:     1.67 SEC
 SORT2 READ    45703433. AND WROTE    54502020. INTEGRALS IN    711 RECORDS. CPU TIME:     1.30 SEC, REAL TIME:     4.61 SEC

 FILE SIZES:   FILE 1:   217.4 MBYTE,  FILE 4:   553.7 MBYTE,   TOTAL:    771.1 MBYTE

 OPERATOR DM      FOR CENTER  0  COORDINATES:    0.000000    0.000000    0.000000


 **********************************************************************************************************************************
 DATASETS  * FILE   NREC   LENGTH (MB)   RECORD NAMES
              1      19      194.45       500      610      700      900      950      970     1000      129      960     1100   
                                          VAR    BASINP    GEOM    SYMINP    ZMAT    AOBASIS   BASIS     P2S    ABASIS      S 
                                         1400     1410     1200     1210     1080     1600     1650     1300     1700   
                                           T        V       H0       H01     AOSYM     SMH    MOLCAS    ERIS     OPER   

 PROGRAMS   *        TOTAL       INT
 CPU TIMES  *         8.16      8.01
 REAL TIME  *        17.14 SEC
 DISK USED  *       771.70 MB      
 **********************************************************************************************************************************

 Density functional group B97=B97DF
 Functional: B97DF(Automatically generated (new) B97DF)                        Gradient terms: 1
 Use grid at  1800.2


 Exact exchange will be calculated, factor:  0.1943

 Functional: B97DF                     Factor:  1.0000

 Generated new metagrid on record  1800.2 with target accuracy 1.0D-06 and 66012 points in CPU time    2.1
 Computed new grid on record 1800.1 in CPU time    2.3
  118710 words reserved for DFT integration

 PROGRAM * UKS-SCF (Unrestricted Kohn-Sham)     Authors: W. Meyer, H.-J. Werner, P.J. Knowles, 1993

 NUMBER OF ELECTRONS:      25+   25-    SPACE SYMMETRY=1    SPIN SYMMETRY: Singlet 
 CONVERGENCE THRESHOLDS:    1.00E-05 (Density)    1.00E-06 (Energy)
 MAX. NUMBER OF ITERATIONS:       60
 INTERPOLATION TYPE:            DIIS
 INTERPOLATION STEPS:              2 (START)      1 (STEP)
 LEVEL SHIFTS:                 -0.20 (ALPHA)  -0.20 (BETA) 



 Use fine grid record 1800.2 for energy threshold  1.0D-06
 Orbital guess generated from atomic densities. Full valence occupancy:   25

 Molecular orbital dump at record        2200.2

 Initial alpha occupation  25
 Initial beta  occupation  25

 ITERATION    DDIFF          GRAD             ENERGY        2-EL.EN.            DIPOLE MOMENTS         DIIS
    1      0.000D+00      0.000D+00      -272.48339816    801.898735   -0.68347    0.00000    0.62349    0
    2      0.883D-02      0.409D-02      -272.65445313    782.781369   -0.35535    0.00000    0.26535    1
    3      0.256D-02      0.159D-02      -272.67564963    787.077247   -0.39724    0.00000    0.34883    2
    4      0.735D-03      0.259D-03      -272.67651311    786.774100   -0.36305    0.00000    0.32690    3
    5      0.511D-03      0.133D-03      -272.67682666    786.720732   -0.36281    0.00000    0.32858    4
    6      0.307D-03      0.397D-04      -272.67687481    786.675086   -0.35665    0.00000    0.32686    5
    7      0.478D-04      0.799D-05      -272.67687619    786.662190   -0.35776    0.00000    0.32724    6
    8      0.110D-04      0.394D-05      -272.67687640    786.666471   -0.35749    0.00000    0.32738    7
    9      0.442D-05      0.901D-06      -272.67687641    786.665503   -0.35738    0.00000    0.32732    7
   10      0.136D-05      0.274D-06      -272.67687641    786.666141   -0.35745    0.00000    0.32737    7

 Final alpha occupancy:  25
 Final beta  occupancy:  25

 !UKS STATE 1.1 Energy               -272.676876414643
 Nuclear energy                       270.15500869
 One-electron energy                 -903.52986679
 Two-electron energy                  393.33307062
 Density functional                   -32.63508893     B97DF=-32.63508893
 Virial quotient                       -1.01116639
 !UKS STATE 1.1 Dipole moment          -0.35744652     0.00000000     0.32736719
 Dipole moment /Debye                  -0.90847893     0.00000000     0.83202989

 Orbital energies for positive spin:

         1.1          2.1          3.1          4.1          5.1          6.1          7.1          8.1          9.1         10.1
    -19.103409   -10.224630   -10.207921   -10.161375   -10.161364   -10.155947    -1.007861    -0.786529    -0.686359    -0.680998

        11.1         12.1         13.1         14.1         15.1         16.1         17.1         18.1         19.1         20.1
     -0.658778    -0.540502    -0.478983    -0.457002    -0.454057    -0.425560    -0.408326    -0.393545    -0.377573    -0.368866

        21.1         22.1         23.1         24.1         25.1         26.1         27.1
     -0.360883    -0.338392    -0.338236    -0.291754    -0.246340     0.056349     0.087292

 Orbital energies for negative spin:

         1.1          2.1          3.1          4.1          5.1          6.1          7.1          8.1          9.1         10.1
    -19.103408   -10.224631   -10.207921   -10.161374   -10.161363   -10.155947    -1.007859    -0.786529    -0.686358    -0.680997

        11.1         12.1         13.1         14.1         15.1         16.1         17.1         18.1         19.1         20.1
     -0.658777    -0.540502    -0.478982    -0.457001    -0.454056    -0.425560    -0.408326    -0.393545    -0.377573    -0.368866

        21.1         22.1         23.1         24.1         25.1         26.1         27.1
     -0.360883    -0.338391    -0.338236    -0.291753    -0.246339     0.056350     0.087293

 HOMO    -25.1    -0.246339 =      -6.7032eV
 LUMO     26.1     0.056349 =       1.5333eV
 LUMO-HOMO         0.302688 =       8.2366eV

 EXPECTATION VALUE OF S**2:             0.00000000

 Occupation number threshold for canonical orbitals:  1.999000 (occupied),  0.001000 (virtual)

 Number of pseudo-canonical orbitals per symmetry:   25
 Number of active natural orbitals per symmetry:      0

 Natural orbitals saved to record    2200.2 (Orbital set 3)

 Orbital spaces for UNO-CAS (Min. occupation: 0.020  Max. occupation: 1.980):

 Closed:       25
 Active:        0


 **********************************************************************************************************************************
 DATASETS  * FILE   NREC   LENGTH (MB)   RECORD NAMES
              1      20      196.57       500      610      700      900      950      970     1000      129      960     1100   
                                          VAR    BASINP    GEOM    SYMINP    ZMAT    AOBASIS   BASIS     P2S    ABASIS      S 
                                         1400     1410     1200     1210     1080     1600     1650     1300     1700     1800   
                                           T        V       H0       H01     AOSYM     SMH    MOLCAS    ERIS     OPER     GRID   

              2       5        3.91       700     1000      520     1800     2200   
                                         GEOM     BASIS   MCVARS    GRID      UKS  

 PROGRAMS   *        TOTAL       UKS       INT
 CPU TIMES  *        51.46     43.30      8.01
 REAL TIME  *        60.97 SEC
 DISK USED  *       771.70 MB      
 **********************************************************************************************************************************


 PROGRAM * Intrinsic Basis Bonding Analysis (IBBA)          Author: G. Knizia

 Molecular orbitals read from record     2200.2  Type=UKS/ALPHA (state 1.1)
 Fock matrix read from record            2200.2  Type=UKS/TOTAL (state 1.1)
 Orbital energies read from record       2200.2  Type=UKS/ALPHA (state 1.1)
 Density matrix read from record         2200.2  Type=UKS/CHARGE (state 1.1)

 Number of core orbitals:           6 (   6 )
 Number of closed-shell orbitals:  19 (  19 )

 Basis set MINAO-AUTO-PP generated.      Number of basis functions:   42 

 Polarized AO type:                A = (O Ot + (1-O)(1-Ot)) P12
 Orthogonalization method:         Symmetric (Loewdin)
 Localization functional:          L = sum[A,i] <i|n_A|i>^4 -> max

 Localization group 1:  25 orbitals, occupancy  2.000
 Iterative localization: IB/PM,    7 iter; Final gradient 0.14E-08

 Bond order analysis:       [THRPRINT= 0.020]

   CEN ATOM   CEN ATOM     WIBERG.BO      RENORM.BO
     1   C  -   2   C       0.996090       0.995272
     1   C  -   5   H       0.965383       0.985950
     1   C  -   7   H       0.960906       0.981793
     1   C  -   6   H       0.960906       0.981793

     2   C  -   1   C       0.996090       0.995272
     2   C  -  12   C       0.992070       0.972628
     2   C  -  11   C       0.992070       0.972628
     2   C  -   3   O       0.926375       0.937548

     3   O  -   4   C       0.988601       1.014671
     3   O  -   2   C       0.926375       0.937548
     3   O  -   9   H       0.032999       0.019446
     3   O  -  10   H       0.032999       0.019446
     3   O  -  12   C       0.025870       0.013482
     3   O  -  11   C       0.025870       0.013482

     4   C  -   3   O       0.988601       1.014671
     4   C  -   8   H       0.957809       0.978188
     4   C  -   9   H       0.950899       0.938299
     4   C  -  10   H       0.950899       0.938299

     5   H  -   1   C       0.965383       0.985950

     6   H  -   1   C       0.960906       0.981793

     7   H  -   1   C       0.960906       0.981793

     8   H  -   4   C       0.957809       0.978188

     9   H  -   4   C       0.950899       0.938299
     9   H  -   3   O       0.032999       0.019446

    10   H  -   4   C       0.950899       0.938299
    10   H  -   3   O       0.032999       0.019446

    11   C  -   2   C       0.992070       0.972628
    11   C  -  17   H       0.963610       0.981534
    11   C  -  15   H       0.961838       0.986595
    11   C  -  13   H       0.961282       0.981787
    11   C  -   3   O       0.025870       0.013482

    12   C  -   2   C       0.992070       0.972628
    12   C  -  18   H       0.963610       0.981534
    12   C  -  16   H       0.961838       0.986595
    12   C  -  14   H       0.961282       0.981787
    12   C  -   3   O       0.025870       0.013482

    13   H  -  11   C       0.961282       0.981787

    14   H  -  12   C       0.961282       0.981787

    15   H  -  11   C       0.961838       0.986595

    16   H  -  12   C       0.961838       0.986595

    17   H  -  11   C       0.963610       0.981534

    18   H  -  12   C       0.963610       0.981534


 Valency analysis:

   CEN ATOM   TOT.VALENCE
     1   C       3.942115
     2   C       3.934732
     3   O       2.100069
     4   C       3.871463
     5   H       0.984621
     6   H       0.981713
     7   H       0.981713
     8   H       0.978758
     9   H       0.988269
    10   H       0.988269
    11   C       3.942326
    12   C       3.942326
    13   H       0.981981
    14   H       0.981981
    15   H       0.982567
    16   H       0.982567
    17   H       0.984488
    18   H       0.984488

 Total charge composition:

   CEN ATOM         s          p       ELECTRONS ->P.CHARGE
     1   C       3.02596    3.36249      6.38845   -0.38845
     2   C       2.92722    2.82629      5.75351    0.24649
     3   O       3.60302    4.80036      8.40337   -0.40337
     4   C       3.01383    3.16429      6.17811   -0.17811
     5   H       0.87599                 0.87599    0.12401
     6   H       0.86477                 0.86477    0.13523
     7   H       0.86477                 0.86477    0.13523
     8   H       0.85425                 0.85425    0.14575
     9   H       0.89169                 0.89169    0.10831
    10   H       0.89169                 0.89169    0.10831
    11   C       3.02607    3.38143      6.40751   -0.40751
    12   C       3.02607    3.38143      6.40751   -0.40751
    13   H       0.86577                 0.86577    0.13423
    14   H       0.86577                 0.86577    0.13423
    15   H       0.86797                 0.86797    0.13203
    16   H       0.86797                 0.86797    0.13203
    17   H       0.87545                 0.87545    0.12455
    18   H       0.87545                 0.87545    0.12455

 Total charge composition, AO contributions:

   CEN ATOM SHL      SPHERICAL COMPONENTS
     1   C  1s       1.99094
     1   C  2s       1.03502
     1   C  2p       1.15424    1.16771    1.04054

     2   C  1s       1.99263
     2   C  2s       0.93459
     2   C  2p       0.79566    1.01539    1.01524

     3   O  1s       1.99724
     3   O  2s       1.60578
     3   O  2p       1.43727    1.91237    1.45072

     4   C  1s       1.99159
     4   C  2s       1.02224
     4   C  2p       1.15441    1.16279    0.84709

     5   H  1s       0.87599

     6   H  1s       0.86477

     7   H  1s       0.86477

     8   H  1s       0.85425

     9   H  1s       0.89169

    10   H  1s       0.89169

    11   C  1s       1.99099
    11   C  2s       1.03508
    11   C  2p       1.14025    1.09462    1.14656

    12   C  1s       1.99099
    12   C  2s       1.03508
    12   C  2p       1.14025    1.09462    1.14656

    13   H  1s       0.86577

    14   H  1s       0.86577

    15   H  1s       0.86797

    16   H  1s       0.86797

    17   H  1s       0.87545

    18   H  1s       0.87545

 Summary of localized orbital composition:   [THRPRINT= 0.020]

   ORB  GRP  ORB.ENERGY      CENTERS/CHARGES
     1   1   -18.958928      O  3   2.000
     2   1   -10.133591      C  2   2.000
     3   1   -10.098441      C  4   2.000
     4   1   -10.047083      C 12   2.000
     5   1   -10.047083      C 11   2.000
     6   1   -10.040989      C  1   2.000
     7   1    -0.752490      O  3   1.250   C  4   0.742
     8   1    -0.725113      O  3   1.274   C  2   0.702   (other: 0.024)
     9   1    -0.567516      C 11   1.007   C  2   0.977
    10   1    -0.567516      C 12   1.007   C  2   0.977
    11   1    -0.564360      C  1   0.990   C  2   0.988   (other: 0.023)
    12   1    -0.535810      O  3   1.962   (other: 0.038)
    13   1    -0.513308      C  4   1.127   H 10   0.872
    14   1    -0.513308      C  4   1.127   H  9   0.872
    15   1    -0.510657      C  4   1.144   H  8   0.847
    16   1    -0.498292      C 11   1.125   H 15   0.860
    17   1    -0.498292      C 12   1.125   H 16   0.860
    18   1    -0.496759      C 12   1.122   H 18   0.868
    19   1    -0.496759      C 11   1.122   H 17   0.868
    20   1    -0.494139      C  1   1.118   H  5   0.869
    21   1    -0.492617      C 12   1.132   H 14   0.858
    22   1    -0.492617      C 11   1.132   H 13   0.858
    23   1    -0.487145      C  1   1.132   H  6   0.857
    24   1    -0.487145      C  1   1.132   H  7   0.857
    25   1    -0.295076      O  3   1.912   (other: 0.088)

 Localized orbitals saved to record      2200.2  (orbital set 4)


 **********************************************************************************************************************************
 DATASETS  * FILE   NREC   LENGTH (MB)   RECORD NAMES
              1      20      196.57       500      610      700      900      950      970     1000      129      960     1100   
                                          VAR    BASINP    GEOM    SYMINP    ZMAT    AOBASIS   BASIS     P2S    ABASIS      S 
                                         1400     1410     1200     1210     1080     1600     1650     1300     1700     1800   
                                           T        V       H0       H01     AOSYM     SMH    MOLCAS    ERIS     OPER     GRID   

              2       5        4.08       700     1000      520     1800     2200   
                                         GEOM     BASIS   MCVARS    GRID      UKS  

 PROGRAMS   *        TOTAL      IBBA       UKS       INT
 CPU TIMES  *        51.52      0.06     43.30      8.01
 REAL TIME  *        61.15 SEC
 DISK USED  *       771.70 MB      
 **********************************************************************************************************************************
 Molecular orbitals read from record     2200.2  Type=UKS/LOCAL(IBO)  
 Occupation numbers read from record     2200.2  Type=UKS/LOCAL(IBO)  
 Orbital energies read from record       2200.2  Type=UKS/LOCAL(IBO)  
 Redundancy group numbers read from rec  2200.2  Type=UKS/BETA (state 1.1)

 IBBA/SVP energy=      0.000000000000

        UKS-SCF 
   -272.67687641
 **********************************************************************************************************************************
 Molpro calculation terminated
