
 Primary working directories    : /tmp/sb13343
 Secondary working directories  : /tmp/sb13343
 Wavefunction directory         : /panfs/panasas01/chem/sb13343/wfu/
 Main file repository           : /tmp/sb13343/

 SHA1      : b4a5b34a9e711420743f49e6833241d17c61fb3c
 NAME      : 2099.9.b4a5b34
 ARCHNAME  : linux/x86_64_openmp
 FC        : /cm/shared/languages/GCC-6.1/bin/gfortran
 BLASLIB   : -lblas
 id        : simonbennie

 Nodes     nprocs
 node32-007    1

 Using customized tuning parameters: mindgm=1; mindgv=20; mindgc=4; mindgr=1; noblas=0; minvec=7
 default implementation of scratch files=df  

 memory,500,m
 geomtyp=xyz
 nosym
 noorient
 geometry={
 C          0.00000        0.00000        0.00000
 C          0.00000        0.00000        1.53307
 O          1.40344        0.00000        1.86307
 C          1.76314        0.00000        3.22887
 H         -1.02289        0.00000       -0.39176
 H          0.51995       -0.88625       -0.37815
 H          0.51995        0.88625       -0.37815
 H          2.85677        0.00000        3.25413
 H          1.40708       -0.89217        3.76475
 H          1.40708        0.89217        3.76475
 C         -0.69252       -1.26694        2.06222
 C         -0.69252        1.26694        2.06222
 H         -0.15366       -2.16088        1.72982
 H         -0.15366        2.16088        1.72982
 H         -1.72011       -1.32515        1.68649
 H         -1.72011        1.32515        1.68649
 H         -0.74365       -1.28188        3.15638
 H         -0.74365        1.28188        3.15638
 }
 basis={ default,sto-3g }
 {uks,M05-2X,direct;wf,50,1,0}
 {ibba,bonds=1}

 Variables initialized (895), CPU time= 0.00 sec
 Commands  initialized (725), CPU time= 0.01 sec, 591 directives.
 Default parameters read. Elapsed time= 0.07 sec

 Checking input...
 Passed
1


                                         ***  PROGRAM SYSTEM MOLPRO  ***
                                       Copyright, TTI GmbH Stuttgart, 2015
                                    Version 2099.9 linked May 26 2017 16:03:21


 **********************************************************************************************************************************
 LABEL *                                                                                 
  64 bit serial version                                                                  DATE: 09-Jun-17          TIME: 01:45:33  
 **********************************************************************************************************************************

 SHA1:             b4a5b34a9e711420743f49e6833241d17c61fb3c
 **********************************************************************************************************************************
 SETTING GEOMTYP        =    XYZ

 Variable memory set to  500000000 words,  buffer space 

 ZSYMEL=NOSYM

 SETTING BASIS          =    STO-3G


 Recomputing integrals since basis changed


 Using spherical harmonics

 Library entry C      S STO-3G               selected for orbital group  1
 Library entry C      P STO-3G               selected for orbital group  1
 Library entry O      S STO-3G               selected for orbital group  2
 Library entry O      P STO-3G               selected for orbital group  2
 Library entry H      S STO-3G               selected for orbital group  4


 PROGRAM * SEWARD (Integral evaluation for generally contracted gaussian basis sets)     Author: Roland Lindh, 1990

 Geometry written to block  1 of record 700


 Point group  C1  



 ATOMIC COORDINATES

 NR  ATOM    CHARGE       X              Y              Z

   1  C       6.00    0.000000000    0.000000000    0.000000000
   2  C       6.00    0.000000000    0.000000000    2.897082430
   3  O       8.00    2.652117232    0.000000000    3.520692051
   4  C       6.00    3.331851719    0.000000000    6.101679992
   5  H       1.00   -1.932981956    0.000000000   -0.740319107
   6  H       1.00    0.982563098   -1.674769778   -0.714599934
   7  H       1.00    0.982563098    1.674769778   -0.714599934
   8  H       1.00    5.398512901    0.000000000    6.149414474
   9  H       1.00    2.658995835   -1.685956957    7.114346427
  10  H       1.00    2.658995835    1.685956957    7.114346427
  11  C       6.00   -1.308673136   -2.394169616    3.897031009
  12  C       6.00   -1.308673136    2.394169616    3.897031009
  13  H       1.00   -0.290375316   -4.083471388    3.268886045
  14  H       1.00   -0.290375316    4.083471388    3.268886045
  15  H       1.00   -3.250536804   -2.504170574    3.187004212
  16  H       1.00   -3.250536804    2.504170574    3.187004212
  17  H       1.00   -1.405294833   -2.422402125    5.964693745
  18  H       1.00   -1.405294833    2.422402125    5.964693745

 Bond lengths in Bohr (Angstrom)

 1-2  2.897082430  1-5  2.069901355  1-6  2.069042560  1-7  2.069042560  2-3  2.724447609
     ( 1.533070000)     ( 1.095344626)     ( 1.094890171)     ( 1.094890171)     ( 1.441715587)

  2-11  2.905954351   2-12  2.905954351   3- 4  2.668995640   4- 8  2.067212379   4- 9  2.078624355
       ( 1.537764818)       ( 1.537764818)       ( 1.412371669)       ( 1.093921681)       ( 1.099960639)

  4-10  2.078624355  11-13  2.070081404  11-15  2.070524757  11-17  2.070111596  12-14  2.070081404
       ( 1.099960639)       ( 1.095439904)       ( 1.095674516)       ( 1.095455880)       ( 1.095439904)

 12-16  2.070524757  12-18  2.070111596
       ( 1.095674516)       ( 1.095455880)

 Bond angles

  1- 2- 3  103.23196371   1- 2-11  110.12706952   1- 2-12  110.12706952   2- 1- 5  110.95650426

  2- 1- 6  110.20481748   2- 1- 7  110.20481748   2- 3- 4  117.98647004   2-11-13  110.26679927

  2-11-15  110.37287188   2-11-17  112.08316935   2-12-14  110.26679927   2-12-16  110.37287188

  2-12-18  112.08316935   3- 2-11  111.07703285   3- 2-12  111.07703285   3- 4- 8  106.07765410

  3- 4- 9  112.87219182   3- 4-10  112.87219182   5- 1- 6  108.65976572   5- 1- 7  108.65976572

  6- 1- 7  108.08288210   8- 4- 9  108.20190897   8- 4-10  108.20190897   9- 4-10  108.40564999

 11- 2-12  110.95103964  13-11-15  108.29648994  13-11-17  108.35544687  14-12-16  108.29648994

 14-12-18  108.35544687  15-11-17  107.33851825  16-12-18  107.33851825

 NUCLEAR CHARGE:                   50
 NUMBER OF PRIMITIVE AOS:         126
 NUMBER OF SYMMETRY AOS:          126
 NUMBER OF CONTRACTIONS:           42   (  42A   )
 NUMBER OF CORE ORBITALS:           6   (   6A   )
 NUMBER OF VALENCE ORBITALS:       36   (  36A   )


 NUCLEAR REPULSION ENERGY  270.15500869


 Eigenvalues of metric

         1 0.207E+00 0.226E+00 0.228E+00 0.234E+00 0.307E+00 0.355E+00 0.359E+00 0.362E+00


 Contracted 2-electron integrals neglected if value below      1.0D-11
 AO integral compression algorithm  1   Integral accuracy      1.0D-11

     2.884 MB (compressed) written to integral file ( 84.3%)


 NUMBER OF SORTED TWO-ELECTRON INTEGRALS:     408156.     BUFFER LENGTH:  32768
 NUMBER OF SEGMENTS:   1  SEGMENT LENGTH:     408156      RECORD LENGTH: 524288

 Memory used in sort:       0.97 MW

 SORT1 READ      453477. AND WROTE      382834. INTEGRALS IN      2 RECORDS. CPU TIME:     0.01 SEC, REAL TIME:     0.02 SEC
 SORT2 READ      382834. AND WROTE      408156. INTEGRALS IN     11 RECORDS. CPU TIME:     0.03 SEC, REAL TIME:     0.04 SEC

 FILE SIZES:   FILE 1:    33.2 MBYTE,  FILE 4:     8.4 MBYTE,   TOTAL:     41.6 MBYTE

 OPERATOR DM      FOR CENTER  0  COORDINATES:    0.000000    0.000000    0.000000


 **********************************************************************************************************************************
 DATASETS  * FILE   NREC   LENGTH (MB)   RECORD NAMES
              1      19       31.98       500      610      700      900      950      970     1000      129      960     1100   
                                          VAR    BASINP    GEOM    SYMINP    ZMAT    AOBASIS   BASIS     P2S    ABASIS      S 
                                         1400     1410     1200     1210     1080     1600     1650     1300     1700   
                                           T        V       H0       H01     AOSYM     SMH    MOLCAS    ERIS     OPER   

 PROGRAMS   *        TOTAL       INT
 CPU TIMES  *         0.97      0.82
 REAL TIME  *         1.36 SEC
 DISK USED  *        42.19 MB      
 **********************************************************************************************************************************

 Density functional group M05-2X=XC-M05-2X
 Functional: XC-M05-2X(via MFM 1.6)                                            Gradient terms: 1
 Use grid at  1800.2


 Exact exchange will be calculated, factor:  0.5600

 Functional: XC-M05-2X                 Factor:  1.0000

 Generated new metagrid on record  1800.2 with target accuracy 1.0D-06 and 66012 points in CPU time    2.0
 Computed new grid on record 1800.1 in CPU time    2.3
   38106 words reserved for DFT integration

 PROGRAM * UKS-SCF (Unrestricted Kohn-Sham)     Authors: W. Meyer, H.-J. Werner, P.J. Knowles, 1993

 NUMBER OF ELECTRONS:      25+   25-    SPACE SYMMETRY=1    SPIN SYMMETRY: Singlet 
 CONVERGENCE THRESHOLDS:    1.00E-05 (Density)    1.00E-06 (Energy)
 MAX. NUMBER OF ITERATIONS:       60
 INTERPOLATION TYPE:            DIIS
 INTERPOLATION STEPS:              2 (START)      1 (STEP)
 LEVEL SHIFTS:                 -0.20 (ALPHA)  -0.20 (BETA) 



 Use fine grid record 1800.2 for energy threshold  1.0D-06
 Orbital guess generated from atomic densities. Full valence occupancy:   25

 Molecular orbital dump at record        2200.2

 Initial alpha occupation  25
 Initial beta  occupation  25

 ITERATION    DDIFF          GRAD             ENERGY        2-EL.EN.            DIPOLE MOMENTS         DIIS
    1      0.000D+00      0.000D+00      -269.38946343    777.144433   -0.94237    0.00000    0.79556    0
    2      0.392D-01      0.154D-01      -269.69165373    760.836783   -0.36094   -0.00000    0.23500    1
    3      0.322D-02      0.146D-02      -269.69464204    760.544839   -0.34849   -0.00000    0.24086    2
    4      0.161D-02      0.509D-03      -269.69515551    760.463710   -0.35582   -0.00000    0.24747    3
    5      0.646D-03      0.152D-03      -269.69521272    760.459305   -0.35710   -0.00000    0.24956    4
    6      0.245D-03      0.439D-04      -269.69521902    760.459755   -0.35580   -0.00000    0.24928    5
    7      0.574D-04      0.119D-04      -269.69521937    760.458395   -0.35594   -0.00000    0.24944    5
    8      0.126D-04      0.308D-05      -269.69521939    760.459437   -0.35585   -0.00000    0.24942    6
    9      0.356D-05      0.780D-06      -269.69521940    760.459085   -0.35585   -0.00000    0.24942    7
   10      0.373D-06      0.104D-06      -269.69521940    760.459122   -0.35585   -0.00000    0.24942    6

 Final alpha occupancy:  25
 Final beta  occupancy:  25

 !UKS STATE 1.1 Energy               -269.695219395134
 Nuclear energy                       270.15500869
 One-electron energy                 -901.27628980
 Two-electron energy                  380.22956120
 Density functional                   -18.80349948     XC-M05-2X=-18.80349948
 Virial quotient                       -1.01654492
 !UKS STATE 1.1 Dipole moment          -0.35585417    -0.00000000     0.24941544
 Dipole moment /Debye                  -0.90443185    -0.00000000     0.63390929

 Orbital energies for positive spin:

         1.1          2.1          3.1          4.1          5.1          6.1          7.1          8.1          9.1         10.1
    -19.411212   -10.463937   -10.441665   -10.398498   -10.398426   -10.397752    -1.078656    -0.857627    -0.753776    -0.750759

        11.1         12.1         13.1         14.1         15.1         16.1         17.1         18.1         19.1         20.1
     -0.722359    -0.585039    -0.514132    -0.491394    -0.491014    -0.467924    -0.444697    -0.426860    -0.416886    -0.400880

        21.1         22.1         23.1         24.1         25.1         26.1         27.1
     -0.396499    -0.364675    -0.354810    -0.264498    -0.212741     0.350285     0.432164

 Orbital energies for negative spin:

         1.1          2.1          3.1          4.1          5.1          6.1          7.1          8.1          9.1         10.1
    -19.411212   -10.463937   -10.441665   -10.398498   -10.398426   -10.397752    -1.078656    -0.857627    -0.753776    -0.750759

        11.1         12.1         13.1         14.1         15.1         16.1         17.1         18.1         19.1         20.1
     -0.722359    -0.585039    -0.514132    -0.491394    -0.491014    -0.467924    -0.444697    -0.426860    -0.416886    -0.400880

        21.1         22.1         23.1         24.1         25.1         26.1         27.1
     -0.396499    -0.364675    -0.354810    -0.264498    -0.212741     0.350285     0.432164

 HOMO     25.1    -0.212741 =      -5.7890eV
 LUMO     26.1     0.350285 =       9.5317eV
 LUMO-HOMO         0.563026 =      15.3207eV

 EXPECTATION VALUE OF S**2:            -0.00000000

 Natural orbitals saved to record    2200.2 (Orbital set 3)

 Orbital spaces for UNO-CAS (Min. occupation: 0.020  Max. occupation: 1.980):

 Closed:       25
 Active:        0


 **********************************************************************************************************************************
 DATASETS  * FILE   NREC   LENGTH (MB)   RECORD NAMES
              1      20       34.09       500      610      700      900      950      970     1000      129      960     1100   
                                          VAR    BASINP    GEOM    SYMINP    ZMAT    AOBASIS   BASIS     P2S    ABASIS      S 
                                         1400     1410     1200     1210     1080     1600     1650     1300     1700     1800   
                                           T        V       H0       H01     AOSYM     SMH    MOLCAS    ERIS     OPER     GRID   

              2       5        3.13       700     1000      520     1800     2200   
                                         GEOM     BASIS   MCVARS    GRID      UKS  

 PROGRAMS   *        TOTAL       UKS       INT
 CPU TIMES  *        19.73     18.76      0.82
 REAL TIME  *        20.29 SEC
 DISK USED  *        42.19 MB      
 **********************************************************************************************************************************


 PROGRAM * Intrinsic Basis Bonding Analysis (IBBA)          Author: G. Knizia

 Molecular orbitals read from record     2200.2  Type=UKS/ALPHA (state 1.1)
 Fock matrix read from record            2200.2  Type=UKS/TOTAL (state 1.1)
 Orbital energies read from record       2200.2  Type=UKS/ALPHA (state 1.1)
 Density matrix read from record         2200.2  Type=UKS/CHARGE (state 1.1)

 Number of core orbitals:           6 (   6 )
 Number of closed-shell orbitals:  19 (  19 )

 Basis set MINAO-AUTO-PP generated.      Number of basis functions:   42 

 Polarized AO type:                A = (O Ot + (1-O)(1-Ot)) P12
 Orthogonalization method:         Symmetric (Loewdin)
 Localization functional:          L = sum[A,i] <i|n_A|i>^4 -> max

 Localization group 1:  25 orbitals, occupancy  2.000
 Iterative localization: IB/PM,    7 iter; Final gradient 0.17E-08

 Bond order analysis:       [THRPRINT= 0.020]

   CEN ATOM   CEN ATOM     WIBERG.BO      RENORM.BO
     1   C  -   2   C       0.990543       0.989729
     1   C  -   5   H       0.967593       0.990750
     1   C  -   7   H       0.964065       0.988511
     1   C  -   6   H       0.964065       0.988511

     2   C  -   1   C       0.990543       0.989729
     2   C  -  12   C       0.989002       0.969726
     2   C  -  11   C       0.989002       0.969726
     2   C  -   3   O       0.975205       0.963329

     3   O  -   4   C       1.014395       1.010841
     3   O  -   2   C       0.975205       0.963329
     3   O  -   9   H       0.024843       0.014646
     3   O  -  10   H       0.024843       0.014646
     3   O  -  12   C       0.021275       0.011251
     3   O  -  11   C       0.021275       0.011251

     4   C  -   3   O       1.014395       1.010841
     4   C  -   9   H       0.958364       0.955302
     4   C  -  10   H       0.958364       0.955302
     4   C  -   8   H       0.956312       0.977768

     5   H  -   1   C       0.967593       0.990750

     6   H  -   1   C       0.964065       0.988511

     7   H  -   1   C       0.964065       0.988511

     8   H  -   4   C       0.956312       0.977768

     9   H  -   4   C       0.958364       0.955302
     9   H  -   3   O       0.024843       0.014646

    10   H  -   4   C       0.958364       0.955302
    10   H  -   3   O       0.024843       0.014646

    11   C  -   2   C       0.989002       0.969726
    11   C  -  17   H       0.966411       0.987532
    11   C  -  15   H       0.965336       0.991028
    11   C  -  13   H       0.964634       0.988489
    11   C  -   3   O       0.021275       0.011251

    12   C  -   2   C       0.989002       0.969726
    12   C  -  18   H       0.966411       0.987532
    12   C  -  16   H       0.965336       0.991028
    12   C  -  14   H       0.964634       0.988489
    12   C  -   3   O       0.021275       0.011251

    13   H  -  11   C       0.964634       0.988489

    14   H  -  12   C       0.964634       0.988489

    15   H  -  11   C       0.965336       0.991028

    16   H  -  12   C       0.965336       0.991028

    17   H  -  11   C       0.966411       0.987532

    18   H  -  12   C       0.966411       0.987532


 Valency analysis:

   CEN ATOM   TOT.VALENCE
     1   C       3.931426
     2   C       3.972202
     3   O       2.130000
     4   C       3.907774
     5   H       0.983215
     6   H       0.981170
     7   H       0.981170
     8   H       0.979935
     9   H       0.987245
    10   H       0.987245
    11   C       3.932892
    12   C       3.932892
    13   H       0.981737
    14   H       0.981737
    15   H       0.982103
    16   H       0.982103
    17   H       0.983813
    18   H       0.983813

 Total charge composition:

   CEN ATOM         s          p       ELECTRONS ->P.CHARGE
     1   C       2.99120    3.39826      6.38946   -0.38946
     2   C       2.94249    2.93579      5.87828    0.12172
     3   O       3.64560    4.58249      8.22808   -0.22808
     4   C       2.99792    3.26558      6.26350   -0.26350
     5   H       0.87044                 0.87044    0.12956
     6   H       0.86278                 0.86278    0.13722
     7   H       0.86278                 0.86278    0.13722
     8   H       0.85835                 0.85835    0.14165
     9   H       0.88706                 0.88706    0.11294
    10   H       0.88706                 0.88706    0.11294
    11   C       2.99178    3.41048      6.40226   -0.40226
    12   C       2.99178    3.41048      6.40226   -0.40226
    13   H       0.86486                 0.86486    0.13514
    14   H       0.86486                 0.86486    0.13514
    15   H       0.86622                 0.86622    0.13378
    16   H       0.86622                 0.86622    0.13378
    17   H       0.87277                 0.87277    0.12723
    18   H       0.87277                 0.87277    0.12723

 Total charge composition, AO contributions:

   CEN ATOM SHL      SPHERICAL COMPONENTS
     1   C  1s       1.99149
     1   C  2s       0.99970
     1   C  2p       1.17008    1.17905    1.04913

     2   C  1s       1.99298
     2   C  2s       0.94951
     2   C  2p       0.87390    1.02963    1.03226

     3   O  1s       1.99735
     3   O  2s       1.64825
     3   O  2p       1.31728    1.93059    1.33462

     4   C  1s       1.99206
     4   C  2s       1.00586
     4   C  2p       1.16832    1.17249    0.92478

     5   H  1s       0.87044

     6   H  1s       0.86278

     7   H  1s       0.86278

     8   H  1s       0.85835

     9   H  1s       0.88706

    10   H  1s       0.88706

    11   C  1s       1.99155
    11   C  2s       1.00023
    11   C  2p       1.15276    1.10064    1.15708

    12   C  1s       1.99155
    12   C  2s       1.00023
    12   C  2p       1.15276    1.10064    1.15708

    13   H  1s       0.86486

    14   H  1s       0.86486

    15   H  1s       0.86622

    16   H  1s       0.86622

    17   H  1s       0.87277

    18   H  1s       0.87277

 Summary of localized orbital composition:   [THRPRINT= 0.020]

   ORB  GRP  ORB.ENERGY      CENTERS/CHARGES
     1   1   -19.236688      O  3   2.000
     2   1   -10.368005      C  2   2.000
     3   1   -10.330461      C  4   2.000
     4   1   -10.282962      C 12   2.000
     5   1   -10.282962      C 11   2.000
     6   1   -10.281601      C  1   2.000
     7   1    -0.747520      O  3   1.152   C  4   0.840
     8   1    -0.711894      O  3   1.162   C  2   0.816   (other: 0.022)
     9   1    -0.610103      O  3   1.974   (other: 0.026)
    10   1    -0.605071      C 12   0.995   C  2   0.992
    11   1    -0.605071      C 11   0.995   C  2   0.992
    12   1    -0.603936      C  2   0.998   C  1   0.980   (other: 0.022)
    13   1    -0.562024      C  4   1.126   H  9   0.872
    14   1    -0.562024      C  4   1.126   H 10   0.872
    15   1    -0.560957      C  4   1.141   H  8   0.850
    16   1    -0.547115      C 11   1.125   H 17   0.866
    17   1    -0.547115      C 12   1.125   H 18   0.866
    18   1    -0.546111      C 11   1.130   H 15   0.860
    19   1    -0.546111      C 12   1.130   H 16   0.860
    20   1    -0.545248      C  1   1.127   H  5   0.864
    21   1    -0.543081      C 12   1.133   H 14   0.858
    22   1    -0.543081      C 11   1.133   H 13   0.858
    23   1    -0.538900      C  1   1.135   H  7   0.856
    24   1    -0.538900      C  1   1.135   H  6   0.856
    25   1    -0.259766      O  3   1.931   (other: 0.069)

 Localized orbitals saved to record      2200.2  (orbital set 4)


 **********************************************************************************************************************************
 DATASETS  * FILE   NREC   LENGTH (MB)   RECORD NAMES
              1      20       34.09       500      610      700      900      950      970     1000      129      960     1100   
                                          VAR    BASINP    GEOM    SYMINP    ZMAT    AOBASIS   BASIS     P2S    ABASIS      S 
                                         1400     1410     1200     1210     1080     1600     1650     1300     1700     1800   
                                           T        V       H0       H01     AOSYM     SMH    MOLCAS    ERIS     OPER     GRID   

              2       5        3.15       700     1000      520     1800     2200   
                                         GEOM     BASIS   MCVARS    GRID      UKS  

 PROGRAMS   *        TOTAL      IBBA       UKS       INT
 CPU TIMES  *        19.78      0.05     18.76      0.82
 REAL TIME  *        20.45 SEC
 DISK USED  *        42.19 MB      
 **********************************************************************************************************************************
 Molecular orbitals read from record     2200.2  Type=UKS/LOCAL(IBO)  
 Occupation numbers read from record     2200.2  Type=UKS/LOCAL(IBO)  
 Orbital energies read from record       2200.2  Type=UKS/LOCAL(IBO)  
 Redundancy group numbers read from rec  2200.2  Type=UKS/BETA (state 1.1)

 IBBA/STO-3G energy=      0.000000000000

        UKS-SCF 
   -269.69521940
 **********************************************************************************************************************************
 Molpro calculation terminated
