
 Primary working directories    : /local
 Secondary working directories  : /local
 Wavefunction directory         : /local/
 Main file repository           : /local/

 SHA1      : b4a5b34a9e711420743f49e6833241d17c61fb3c
 NAME      : 2099.9.b4a5b34
 ARCHNAME  : linux/x86_64_openmp
 FC        : /cm/shared/languages/GCC-6.1/bin/gfortran
 BLASLIB   : -lblas
 id        : simonbennie

 Nodes     nprocs
 node36-029    1

 Using customized tuning parameters: mindgm=1; mindgv=20; mindgc=4; mindgr=1; noblas=0; minvec=7
 default implementation of scratch files=df  

 memory,500,m
 geomtyp=xyz
 nosym
 noorient
 geometry={
 C         -1.53233        0.02247        0.00000
 C         -0.00192        0.01421        0.00000
 O          0.37239        1.40356        0.00000
 H          1.34248        1.44036        0.00000
 H         -1.92991       -0.99819        0.00000
 H         -1.90797        0.54382       -0.88653
 H         -1.90797        0.54382        0.88653
 C          0.54303       -0.66466       -1.26580
 C          0.54303       -0.66466        1.26580
 H          0.17836       -0.14752       -2.15943
 H          0.17836       -0.14752        2.15943
 H          0.23752       -1.71600       -1.32280
 H          0.23752       -1.71600        1.32280
 H          1.64084       -0.63767       -1.28032
 H          1.64084       -0.63767        1.28032
 }
 basis={ default,avtz }
 {ks,B3LYP5,direct;wf,42,1,0}
 {ibba,bonds=1}

 Variables initialized (895), CPU time= 0.00 sec
 Commands  initialized (725), CPU time= 0.02 sec, 591 directives.
 Default parameters read. Elapsed time= 0.16 sec

 Checking input...
 Passed
1


                                         ***  PROGRAM SYSTEM MOLPRO  ***
                                       Copyright, TTI GmbH Stuttgart, 2015
                                    Version 2099.9 linked May 26 2017 16:03:21


 **********************************************************************************************************************************
 LABEL *                                                                                 
  64 bit serial version                                                                  DATE: 12-Jun-17          TIME: 16:02:21  
 **********************************************************************************************************************************

 SHA1:             b4a5b34a9e711420743f49e6833241d17c61fb3c
 **********************************************************************************************************************************
 SETTING GEOMTYP        =    XYZ

 Variable memory set to  500000000 words,  buffer space 

 ZSYMEL=NOSYM

 SETTING BASIS          =    AVTZ


 Recomputing integrals since basis changed


 Using spherical harmonics

 Library entry C      S aug-cc-pVTZ          selected for orbital group  1
 Library entry C      P aug-cc-pVTZ          selected for orbital group  1
 Library entry C      D aug-cc-pVTZ          selected for orbital group  1
 Library entry C      F aug-cc-pVTZ          selected for orbital group  1
 Library entry O      S aug-cc-pVTZ          selected for orbital group  2
 Library entry O      P aug-cc-pVTZ          selected for orbital group  2
 Library entry O      D aug-cc-pVTZ          selected for orbital group  2
 Library entry O      F aug-cc-pVTZ          selected for orbital group  2
 Library entry H      S aug-cc-pVTZ          selected for orbital group  3
 Library entry H      P aug-cc-pVTZ          selected for orbital group  3
 Library entry H      D aug-cc-pVTZ          selected for orbital group  3


 PROGRAM * SEWARD (Integral evaluation for generally contracted gaussian basis sets)     Author: Roland Lindh, 1990

 Geometry written to block  1 of record 700


 Point group  C1  



 ATOMIC COORDINATES

 NR  ATOM    CHARGE       X              Y              Z

   1  C       6.00   -2.895684032    0.042462146    0.000000000
   2  C       6.00   -0.003628274    0.026853008    0.000000000
   3  O       8.00    0.703715112    2.652343999    0.000000000
   4  H       1.00    2.536919528    2.721885921    0.000000000
   5  H       1.00   -3.647001345   -1.886305720    0.000000000
   6  H       1.00   -3.605540754    1.027670861   -1.675298901
   7  H       1.00   -3.605540754    1.027670861    1.675298901
   8  C       6.00    1.026177977   -1.256025366   -2.392015328
   9  C       6.00    1.026177977   -1.256025366    2.392015328
  10  H       1.00    0.337051552   -0.278772398   -4.080731285
  11  H       1.00    0.337051552   -0.278772398    4.080731285
  12  H       1.00    0.448847749   -3.242770030   -2.499729718
  13  H       1.00    0.448847749   -3.242770030    2.499729718
  14  H       1.00    3.100738214   -1.205021658   -2.419454152
  15  H       1.00    3.100738214   -1.205021658    2.419454152

 Bond lengths in Bohr (Angstrom)

 1-2  2.892097881  1-5  2.069933136  1-6  2.069096224  1-7  2.069096224  2-3  2.719106031
     ( 1.530432290)     ( 1.095361444)     ( 1.094918569)     ( 1.094918569)     ( 1.438888946)

  2- 8  2.903104402   2- 9  2.903104402   3- 4  1.834522965   8-10  2.069222119   8-12  2.071730422
       ( 1.536256691)       ( 1.536256691)       ( 0.970787746)       ( 1.094985190)       ( 1.096312526)

  8-14  2.075368508   9-11  2.069222119   9-13  2.071730422   9-15  2.075368508
       ( 1.098237719)       ( 1.094985190)       ( 1.096312526)       ( 1.098237719)

 Bond angles

  1-2-3  104.76902697   1-2-8  110.92255387   1-2-9  110.92255387   2-1-5  110.97328220

  2- 1- 6  110.22090701   2- 1- 7  110.22090701   2- 3- 4  107.25071562   2- 8-10  110.21836376

  2- 8-12  111.57747468   2- 8-14  110.77023896   2- 9-11  110.21836376   2- 9-13  111.57747468

  2- 9-15  110.77023896   3- 2- 8  109.53648747   3- 2- 9  109.53648747   5- 1- 6  108.61190457

  5- 1- 7  108.61190457   6- 1- 7  108.12870271   8- 2- 9  110.96453384  10- 8-12  108.52192632

 10- 8-14  108.08997829  11- 9-13  108.52192632  11- 9-15  108.08997829  12- 8-14  107.54424578

 13- 9-15  107.54424578

 NUCLEAR CHARGE:                   42
 NUMBER OF PRIMITIVE AOS:         605
 NUMBER OF SYMMETRY AOS:          540
 NUMBER OF CONTRACTIONS:          460   ( 460A   )
 NUMBER OF CORE ORBITALS:           5   (   5A   )
 NUMBER OF VALENCE ORBITALS:       30   (  30A   )


 NUCLEAR REPULSION ENERGY  198.77359127


 Eigenvalues of metric

         1 0.351E-05 0.596E-05 0.770E-05 0.977E-05 0.161E-04 0.173E-04 0.207E-04 0.297E-04


 Contracted 2-electron integrals neglected if value below      1.0D-12
 AO integral compression algorithm  1   Integral accuracy      1.0D-12

     24892.932 MB (compressed) written to integral file ( 51.7%)


 NUMBER OF SORTED TWO-ELECTRON INTEGRALS: 5621233465.     BUFFER LENGTH:  32768
 NUMBER OF SEGMENTS: 176  SEGMENT LENGTH:   31999951      RECORD LENGTH: 131072

 Memory used in sort:      32.16 MW

 SORT1 READ  6020115514. AND WROTE  5366777799. INTEGRALS IN  61513 RECORDS. CPU TIME:    87.64 SEC, REAL TIME:  3949.80 SEC
 SORT2 READ  5366777799. AND WROTE  5621233465. INTEGRALS IN  94959 RECORDS. CPU TIME:   135.45 SEC, REAL TIME:  4231.74 SEC

 FILE SIZES:   FILE 1: 24930.9 MBYTE,  FILE 4: 64501.1 MBYTE,   TOTAL:  89432.0 MBYTE

 OPERATOR DM      FOR CENTER  0  COORDINATES:    0.000000    0.000000    0.000000


 **********************************************************************************************************************************
 DATASETS  * FILE   NREC   LENGTH (MB)   RECORD NAMES
              1      19    23757.53       500      610      700      900      950      970     1000      129      960     1100   
                                          VAR    BASINP    GEOM    SYMINP    ZMAT    AOBASIS   BASIS     P2S    ABASIS      S 
                                         1400     1410     1200     1210     1080     1600     1650     1300     1700   
                                           T        V       H0       H01     AOSYM     SMH    MOLCAS    ERIS     OPER   

 PROGRAMS   *        TOTAL       INT
 CPU TIMES  *       431.79    431.64
 REAL TIME  *      8948.29 SEC
 DISK USED  *        89.43 GB      
 **********************************************************************************************************************************

 Density functional group B3LYP5=B88+DIRAC+LYP+VWN5
 Functional: B88(Automatically generated (new) B88)                            Gradient terms: 1
 Functional: DIRAC(Automatically generated (new) DIRAC)                        Gradient terms: 0
 Functional: LYP(Automatically generated (new) LYP)                            Gradient terms: 1
 Functional: VWN5(Automatically generated (new) VWN5)                          Gradient terms: 0
 Use grid at  1800.2


 Exact exchange will be calculated, factor:  0.2000

 Functional: B88                       Factor:  0.7200
 Functional: DIRAC                     Factor:  0.0800
 Functional: LYP                       Factor:  0.8100
 Functional: VWN5                      Factor:  0.1900

 Generated new metagrid on record  1800.2 with target accuracy 1.0D-06 and 55396 points in CPU time    1.6
 Computed new grid on record 1800.1 in CPU time    1.8
  370324 words reserved for DFT integration

 PROGRAM * RKS-SCF (Restricted closed shell Kohn-Sham)     Authors: W. Meyer, H.-J. Werner, P.J. Knowles, 1993

 NUMBER OF ELECTRONS:      21+   21-    SPACE SYMMETRY=1    SPIN SYMMETRY: Singlet 
 CONVERGENCE THRESHOLDS:    1.00E-05 (Density)    1.00E-06 (Energy)
 MAX. NUMBER OF ITERATIONS:       60
 INTERPOLATION TYPE:            DIIS
 INTERPOLATION STEPS:              2 (START)      1 (STEP)
 LEVEL SHIFTS:                  0.00 (CLOSED)  0.00 (OPEN) 



 Use fine grid record 1800.2 for energy threshold  1.0D-06
 Orbital guess generated from atomic densities. Full valence occupancy:   35

 Molecular orbital dump at record        2100.2

 Initial occupancy:  21

 ITERATION    DDIFF          GRAD             ENERGY        2-EL.EN.            DIPOLE MOMENTS         DIIS   ORB.
    1      0.000D+00      0.000D+00      -233.39616262    624.131062    0.69821   -0.82940    0.00000    0    start
    2      0.000D+00      0.499D-02      -233.21545194    587.182135   -0.30696   -0.09086   -0.00000    1    diag
    3      0.109D-01      0.679D-02      -233.61463812    609.875074    0.37490   -0.66001    0.00000    2    diag
    4      0.598D-02      0.899D-03      -233.61980111    608.925802    0.33164   -0.49279    0.00000    3    diag
    5      0.802D-03      0.262D-03      -233.62024386    608.763513    0.32908   -0.55306    0.00000    4    diag
    6      0.214D-03      0.772D-04      -233.62028878    608.888899    0.33113   -0.54205    0.00000    5    diag
    7      0.669D-04      0.219D-04      -233.62029216    608.876145    0.33183   -0.54046    0.00000    6    diag
    8      0.188D-04      0.236D-05      -233.62029221    608.882480    0.33169   -0.54196    0.00000    7    diag
    9      0.259D-05      0.657D-06      -233.62029221    608.881696    0.33183   -0.54123    0.00000    0    orth

 Final occupancy:  21

 !RKS STATE 1.1 Energy               -233.620292213040
 Nuclear energy                       198.77359127
 One-electron energy                 -709.42646380
 Two-electron energy                  304.44084798
 SCF exchange energy                  -32.49586575     Factor= 0.2000
 Density functional                   -27.40826767     B88=-32.56047753 DIRAC=-29.34248626 LYP= -1.37423986 VWN5= -2.65363503
 Virial quotient                       -1.00636105
 !RKS STATE 1.1 Dipole moment           0.33183051    -0.54123286     0.00000000
 Dipole moment /Debye                   0.84337380    -1.37558660     0.00000000

 Orbital energies:

         1.1          2.1          3.1          4.1          5.1          6.1          7.1          8.1          9.1         10.1
    -19.123449   -10.232065   -10.163257   -10.163241   -10.157936    -1.018087    -0.787291    -0.691429    -0.690332    -0.568772

        11.1         12.1         13.1         14.1         15.1         16.1         17.1         18.1         19.1         20.1
     -0.489736    -0.452238    -0.449439    -0.413164    -0.398533    -0.380692    -0.367406    -0.356787    -0.349655    -0.321767

        21.1         22.1         23.1
     -0.274783    -0.015417     0.007038

 HOMO     21.1    -0.274783 =      -7.4772eV
 LUMO     22.1    -0.015417 =      -0.4195eV
 LUMO-HOMO         0.259366 =       7.0577eV


 **********************************************************************************************************************************
 DATASETS  * FILE   NREC   LENGTH (MB)   RECORD NAMES
              1      20    23759.30       500      610      700      900      950      970     1000      129      960     1100   
                                          VAR    BASINP    GEOM    SYMINP    ZMAT    AOBASIS   BASIS     P2S    ABASIS      S 
                                         1400     1410     1200     1210     1080     1600     1650     1300     1700     1800   
                                           T        V       H0       H01     AOSYM     SMH    MOLCAS    ERIS     OPER     GRID   

              2       5        7.31       700     1000      520     1800     2100   
                                         GEOM     BASIS   MCVARS    GRID      RKS  

 PROGRAMS   *        TOTAL        KS       INT
 CPU TIMES  *      1503.15   1071.36    431.64
 REAL TIME  *     28654.86 SEC
 DISK USED  *        89.43 GB      
 **********************************************************************************************************************************


 PROGRAM * Intrinsic Basis Bonding Analysis (IBBA)          Author: G. Knizia

 Molecular orbitals read from record     2100.2  Type=RKS/CANONICAL (state 1.1)
 Fock matrix read from record            2100.2  Type=RKS/TOTAL (state 1.1)
 Orbital energies read from record       2100.2  Type=RKS/CANONICAL (state 1.1)
 Density matrix read from record         2100.2  Type=RKS/CHARGE (state 1.1)

 Number of core orbitals:           5 (   5 )
 Number of closed-shell orbitals:  16 (  16 )

 Basis set MINAO-AUTO-PP generated.      Number of basis functions:   35 

 Polarized AO type:                A = (O Ot + (1-O)(1-Ot)) P12
 Orthogonalization method:         Symmetric (Loewdin)
 Localization functional:          L = sum[A,i] <i|n_A|i>^4 -> max

 Localization group 1:  21 orbitals, occupancy  2.000
 Iterative localization: IB/PM,    7 iter; Final gradient 0.29E-08

 Bond order analysis:       [THRPRINT= 0.020]

   CEN ATOM   CEN ATOM     WIBERG.BO      RENORM.BO
     1   C  -   2   C       0.996398       0.994043
     1   C  -   5   H       0.963784       0.987179
     1   C  -   6   H       0.959095       0.981685
     1   C  -   7   H       0.959095       0.981685

     2   C  -   1   C       0.996398       0.994043
     2   C  -   9   C       0.995279       0.976609
     2   C  -   8   C       0.995279       0.976609
     2   C  -   3   O       0.930975       0.950172

     3   O  -   2   C       0.930975       0.950172
     3   O  -   4   H       0.861344       0.976114
     3   O  -   8   C       0.027297       0.013962
     3   O  -   9   C       0.027297       0.013962

     4   H  -   3   O       0.861344       0.976114

     5   H  -   1   C       0.963784       0.987179

     6   H  -   1   C       0.959095       0.981685

     7   H  -   1   C       0.959095       0.981685

     8   C  -   2   C       0.995279       0.976609
     8   C  -  14   H       0.963220       0.982407
     8   C  -  12   H       0.959617       0.981641
     8   C  -  10   H       0.959570       0.981522
     8   C  -   3   O       0.027297       0.013962

     9   C  -   2   C       0.995279       0.976609
     9   C  -  15   H       0.963220       0.982407
     9   C  -  13   H       0.959617       0.981641
     9   C  -  11   H       0.959570       0.981522
     9   C  -   3   O       0.027297       0.013962

    10   H  -   8   C       0.959570       0.981522

    11   H  -   9   C       0.959570       0.981522

    12   H  -   8   C       0.959617       0.981641

    13   H  -   9   C       0.959617       0.981641

    14   H  -   8   C       0.963220       0.982407

    15   H  -   9   C       0.963220       0.982407


 Valency analysis:

   CEN ATOM   TOT.VALENCE
     1   C       3.937681
     2   C       3.928031
     3   O       1.913174
     4   H       0.881008
     5   H       0.982256
     6   H       0.979621
     7   H       0.979621
     8   C       3.940242
     9   C       3.940242
    10   H       0.979620
    11   H       0.979620
    12   H       0.981447
    13   H       0.981447
    14   H       0.983694
    15   H       0.983694

 Total charge composition:

   CEN ATOM         s          p       ELECTRONS ->P.CHARGE
     1   C       3.04206    3.36893      6.41099   -0.41099
     2   C       2.93908    2.79987      5.73895    0.26105
     3   O       3.64907    4.92956      8.57863   -0.57863
     4   H       0.65505                 0.65505    0.34495
     5   H       0.86679                 0.86679    0.13321
     6   H       0.85724                 0.85724    0.14276
     7   H       0.85724                 0.85724    0.14276
     8   C       3.04847    3.37575      6.42422   -0.42422
     9   C       3.04847    3.37575      6.42422   -0.42422
    10   H       0.85724                 0.85724    0.14276
    11   H       0.85724                 0.85724    0.14276
    12   H       0.86379                 0.86379    0.13621
    13   H       0.86379                 0.86379    0.13621
    14   H       0.87230                 0.87230    0.12770
    15   H       0.87230                 0.87230    0.12770

 Total charge composition, AO contributions:

   CEN ATOM SHL      SPHERICAL COMPONENTS
     1   C  1s       1.99121
     1   C  2s       1.05085
     1   C  2p       1.03725    1.15961    1.17207

     2   C  1s       1.99283
     2   C  2s       0.94625
     2   C  2p       1.00703    0.78289    1.00996

     3   O  1s       1.99715
     3   O  2s       1.65192
     3   O  2p       1.47602    1.49661    1.95694

     4   H  1s       0.65505

     5   H  1s       0.86679

     6   H  1s       0.85724

     7   H  1s       0.85724

     8   C  1s       1.99131
     8   C  2s       1.05716
     8   C  2p       1.14181    1.14160    1.09235

     9   C  1s       1.99131
     9   C  2s       1.05716
     9   C  2p       1.14181    1.14160    1.09235

    10   H  1s       0.85724

    11   H  1s       0.85724

    12   H  1s       0.86379

    13   H  1s       0.86379

    14   H  1s       0.87230

    15   H  1s       0.87230

 Summary of localized orbital composition:   [THRPRINT= 0.020]

   ORB  GRP  ORB.ENERGY      CENTERS/CHARGES
     1   1   -18.963074      O  3   2.000
     2   1   -10.140083      C  2   2.000
     3   1   -10.048161      C  8   2.000
     4   1   -10.048161      C  9   2.000
     5   1   -10.042059      C  1   2.000
     6   1    -0.762797      O  3   1.347   H  4   0.643
     7   1    -0.720332      O  3   1.289   C  2   0.693
     8   1    -0.578128      O  3   1.982
     9   1    -0.574402      C  9   1.007   C  2   0.978
    10   1    -0.574402      C  8   1.007   C  2   0.978
    11   1    -0.573635      C  1   0.990   C  2   0.987   (other: 0.023)
    12   1    -0.506547      C  9   1.132   H 13   0.854
    13   1    -0.506547      C  8   1.132   H 12   0.854
    14   1    -0.504658      C  9   1.123   H 15   0.865
    15   1    -0.504658      C  8   1.123   H 14   0.865
    16   1    -0.502187      C  1   1.127   H  5   0.860
    17   1    -0.500571      C  8   1.140   H 10   0.849
    18   1    -0.500571      C  9   1.140   H 11   0.849
    19   1    -0.495838      C  1   1.140   H  7   0.849
    20   1    -0.495838      C  1   1.140   H  6   0.849
    21   1    -0.307408      O  3   1.957   (other: 0.043)

 Localized orbitals saved to record      2100.2  (orbital set 2)


 **********************************************************************************************************************************
 DATASETS  * FILE   NREC   LENGTH (MB)   RECORD NAMES
              1      20    23759.30       500      610      700      900      950      970     1000      129      960     1100   
                                          VAR    BASINP    GEOM    SYMINP    ZMAT    AOBASIS   BASIS     P2S    ABASIS      S 
                                         1400     1410     1200     1210     1080     1600     1650     1300     1700     1800   
                                           T        V       H0       H01     AOSYM     SMH    MOLCAS    ERIS     OPER     GRID   

              2       5        9.01       700     1000      520     1800     2100   
                                         GEOM     BASIS   MCVARS    GRID      RKS  

 PROGRAMS   *        TOTAL      IBBA        KS       INT
 CPU TIMES  *      1503.41      0.25   1071.36    431.64
 REAL TIME  *     28656.14 SEC
 DISK USED  *        89.43 GB      
 **********************************************************************************************************************************
 Molecular orbitals read from record     2100.2  Type=RKS/LOCAL(IBO)  
 Occupation numbers read from record     2100.2  Type=RKS/LOCAL(IBO)  
 Orbital energies read from record       2100.2  Type=RKS/LOCAL(IBO)  
 Redundancy group numbers read from rec  2100.2  Type=RKS/LOCAL(IBO)  

 IBBA/aug-cc-pVTZ energy=      0.000000000000

        KS-SCF  
   -233.62029221
 **********************************************************************************************************************************
 Molpro calculation terminated
