
 Primary working directories    : /local
 Secondary working directories  : /local
 Wavefunction directory         : /local/
 Main file repository           : /local/

 SHA1      : b4a5b34a9e711420743f49e6833241d17c61fb3c
 NAME      : 2099.9.b4a5b34
 ARCHNAME  : linux/x86_64_openmp
 FC        : /cm/shared/languages/GCC-6.1/bin/gfortran
 BLASLIB   : -lblas
 id        : simonbennie

 Nodes     nprocs
 node45-010    1

 Using customized tuning parameters: mindgm=1; mindgv=20; mindgc=4; mindgr=1; noblas=0; minvec=7
 default implementation of scratch files=df  

 memory,500,m
 geomtyp=xyz
 nosym
 noorient
 geometry={
 C         -1.53233        0.02247        0.00000
 C         -0.00192        0.01421        0.00000
 O          0.37239        1.40356        0.00000
 H          1.34248        1.44036        0.00000
 H         -1.92991       -0.99819        0.00000
 H         -1.90797        0.54382       -0.88653
 H         -1.90797        0.54382        0.88653
 C          0.54303       -0.66466       -1.26580
 C          0.54303       -0.66466        1.26580
 H          0.17836       -0.14752       -2.15943
 H          0.17836       -0.14752        2.15943
 H          0.23752       -1.71600       -1.32280
 H          0.23752       -1.71600        1.32280
 H          1.64084       -0.63767       -1.28032
 H          1.64084       -0.63767        1.28032
 }
 basis={ default,qzvp }
 {uks,M06-2X,direct;wf,42,1,0}
 {ibba,bonds=1}

 Variables initialized (895), CPU time= 0.01 sec
 Commands  initialized (725), CPU time= 0.01 sec, 591 directives.
 Default parameters read. Elapsed time= 0.09 sec

 Checking input...
 Passed
1


                                         ***  PROGRAM SYSTEM MOLPRO  ***
                                       Copyright, TTI GmbH Stuttgart, 2015
                                    Version 2099.9 linked May 26 2017 16:03:21


 **********************************************************************************************************************************
 LABEL *                                                                                 
  64 bit serial version                                                                  DATE: 12-Jun-17          TIME: 16:40:14  
 **********************************************************************************************************************************

 SHA1:             b4a5b34a9e711420743f49e6833241d17c61fb3c
 **********************************************************************************************************************************
 SETTING GEOMTYP        =    XYZ

 Variable memory set to  500000000 words,  buffer space 

 ZSYMEL=NOSYM

 SETTING BASIS          =    QZVP


 Recomputing integrals since basis changed


 Using spherical harmonics

 Library entry C      S def2-QZVP            selected for orbital group  1
 Library entry C      P def2-QZVP            selected for orbital group  1
 Library entry C      D def2-QZVP            selected for orbital group  1
 Library entry C      F def2-QZVP            selected for orbital group  1
 Library entry C      G def2-QZVP            selected for orbital group  1
 Library entry O      S def2-QZVP            selected for orbital group  2
 Library entry O      P def2-QZVP            selected for orbital group  2
 Library entry O      D def2-QZVP            selected for orbital group  2
 Library entry O      F def2-QZVP            selected for orbital group  2
 Library entry O      G def2-QZVP            selected for orbital group  2
 Library entry H      S def2-QZVP            selected for orbital group  3
 Library entry H      P def2-QZVP            selected for orbital group  3
 Library entry H      D def2-QZVP            selected for orbital group  3
 Library entry H      F def2-QZVP            selected for orbital group  3


 PROGRAM * SEWARD (Integral evaluation for generally contracted gaussian basis sets)     Author: Roland Lindh, 1990

 Geometry written to block  1 of record 700


 Point group  C1  



 ATOMIC COORDINATES

 NR  ATOM    CHARGE       X              Y              Z

   1  C       6.00   -2.895684032    0.042462146    0.000000000
   2  C       6.00   -0.003628274    0.026853008    0.000000000
   3  O       8.00    0.703715112    2.652343999    0.000000000
   4  H       1.00    2.536919528    2.721885921    0.000000000
   5  H       1.00   -3.647001345   -1.886305720    0.000000000
   6  H       1.00   -3.605540754    1.027670861   -1.675298901
   7  H       1.00   -3.605540754    1.027670861    1.675298901
   8  C       6.00    1.026177977   -1.256025366   -2.392015328
   9  C       6.00    1.026177977   -1.256025366    2.392015328
  10  H       1.00    0.337051552   -0.278772398   -4.080731285
  11  H       1.00    0.337051552   -0.278772398    4.080731285
  12  H       1.00    0.448847749   -3.242770030   -2.499729718
  13  H       1.00    0.448847749   -3.242770030    2.499729718
  14  H       1.00    3.100738214   -1.205021658   -2.419454152
  15  H       1.00    3.100738214   -1.205021658    2.419454152

 Bond lengths in Bohr (Angstrom)

 1-2  2.892097881  1-5  2.069933136  1-6  2.069096224  1-7  2.069096224  2-3  2.719106031
     ( 1.530432290)     ( 1.095361444)     ( 1.094918569)     ( 1.094918569)     ( 1.438888946)

  2- 8  2.903104402   2- 9  2.903104402   3- 4  1.834522965   8-10  2.069222119   8-12  2.071730422
       ( 1.536256691)       ( 1.536256691)       ( 0.970787746)       ( 1.094985190)       ( 1.096312526)

  8-14  2.075368508   9-11  2.069222119   9-13  2.071730422   9-15  2.075368508
       ( 1.098237719)       ( 1.094985190)       ( 1.096312526)       ( 1.098237719)

 Bond angles

  1-2-3  104.76902697   1-2-8  110.92255387   1-2-9  110.92255387   2-1-5  110.97328220

  2- 1- 6  110.22090701   2- 1- 7  110.22090701   2- 3- 4  107.25071562   2- 8-10  110.21836376

  2- 8-12  111.57747468   2- 8-14  110.77023896   2- 9-11  110.21836376   2- 9-13  111.57747468

  2- 9-15  110.77023896   3- 2- 8  109.53648747   3- 2- 9  109.53648747   5- 1- 6  108.61190457

  5- 1- 7  108.61190457   6- 1- 7  108.12870271   8- 2- 9  110.96453384  10- 8-12  108.52192632

 10- 8-14  108.08997829  11- 9-13  108.52192632  11- 9-15  108.08997829  12- 8-14  107.54424578

 13- 9-15  107.54424578

 NUCLEAR CHARGE:                   42
 NUMBER OF PRIMITIVE AOS:         840
 NUMBER OF SYMMETRY AOS:          715
 NUMBER OF CONTRACTIONS:          585   ( 585A   )
 NUMBER OF CORE ORBITALS:           5   (   5A   )
 NUMBER OF VALENCE ORBITALS:       30   (  30A   )


 NUCLEAR REPULSION ENERGY  198.77359127


 Eigenvalues of metric

         1 0.447E-04 0.459E-04 0.470E-04 0.743E-04 0.823E-04 0.917E-04 0.943E-04 0.107E-03


 Contracted 2-electron integrals neglected if value below      1.0D-12
 AO integral compression algorithm  1   Integral accuracy      1.0D-12

     40752.906 MB (compressed) written to integral file ( 33.4%)


 NUMBER OF SORTED TWO-ELECTRON INTEGRALS:14689922715.     BUFFER LENGTH:  32768
 NUMBER OF SEGMENTS: 184  SEGMENT LENGTH:   79999773      RECORD LENGTH: 262144

 Memory used in sort:      80.29 MW

 SORT1 READ 15248138275. AND WROTE 10587813328. INTEGRALS IN  60679 RECORDS. CPU TIME:   181.67 SEC, REAL TIME:  1786.07 SEC
 SORT2 READ 10587813328. AND WROTE 14689922715. INTEGRALS IN 155460 RECORDS. CPU TIME:   280.98 SEC, REAL TIME:  2176.67 SEC

 FILE SIZES:   FILE 1: 40795.6 MBYTE,  FILE 4:127253.1 MBYTE,   TOTAL: 168048.8 MBYTE

 OPERATOR DM      FOR CENTER  0  COORDINATES:    0.000000    0.000000    0.000000


 **********************************************************************************************************************************
 DATASETS  * FILE   NREC   LENGTH (MB)   RECORD NAMES
              1      19    37754.71       500      610      700      900      950      970     1000      129      960     1100   
                                          VAR    BASINP    GEOM    SYMINP    ZMAT    AOBASIS   BASIS     P2S    ABASIS      S 
                                         1400     1410     1200     1210     1080     1600     1650     1300     1700   
                                           T        V       H0       H01     AOSYM     SMH    MOLCAS    ERIS     OPER   

 PROGRAMS   *        TOTAL       INT
 CPU TIMES  *      1124.82   1124.66
 REAL TIME  *      4754.36 SEC
 DISK USED  *       168.05 GB      
 **********************************************************************************************************************************

 Density functional group M06-2X=XC-M06-2X
 Functional: XC-M06-2X(via MFM 1.6)                                            Gradient terms: 1
 Use grid at  1800.2


 Exact exchange will be calculated, factor:  0.5400

 Functional: XC-M06-2X                 Factor:  1.0000

 Generated new metagrid on record  1800.2 with target accuracy 1.0D-06 and 58228 points in CPU time    1.9
 Computed new grid on record 1800.1 in CPU time    2.2
  469144 words reserved for DFT integration

 PROGRAM * UKS-SCF (Unrestricted Kohn-Sham)     Authors: W. Meyer, H.-J. Werner, P.J. Knowles, 1993

 NUMBER OF ELECTRONS:      21+   21-    SPACE SYMMETRY=1    SPIN SYMMETRY: Singlet 
 CONVERGENCE THRESHOLDS:    1.00E-05 (Density)    1.00E-06 (Energy)
 MAX. NUMBER OF ITERATIONS:       60
 INTERPOLATION TYPE:            DIIS
 INTERPOLATION STEPS:              2 (START)      1 (STEP)
 LEVEL SHIFTS:                 -0.20 (ALPHA)  -0.20 (BETA) 



 Use fine grid record 1800.2 for energy threshold  1.0D-06
 Orbital guess generated from atomic densities. Full valence occupancy:   21

 Molecular orbital dump at record        2200.2

 Initial alpha occupation  21
 Initial beta  occupation  21

 ITERATION    DDIFF          GRAD             ENERGY        2-EL.EN.            DIPOLE MOMENTS         DIIS
    1      0.000D+00      0.000D+00      -233.54352443    596.533483    0.69855   -0.84676    0.00000    0
    2      0.183D-02      0.896D-03      -233.66167761    584.271918    0.31369   -0.52525    0.00000    1
    3      0.370D-03      0.368D-03      -233.67524003    586.756096    0.36694   -0.57818    0.00000    2
    4      0.267D-03      0.761D-04      -233.67666704    586.585463    0.35071   -0.54162    0.00000    3
    5      0.174D-03      0.375D-04      -233.67710762    586.532131    0.34439   -0.54587    0.00000    4
    6      0.886D-04      0.109D-04      -233.67716566    586.512396    0.34154   -0.54321    0.00000    5
    7      0.241D-04      0.204D-05      -233.67716817    586.502352    0.34082   -0.54368    0.00000    6
    8      0.451D-05      0.574D-06      -233.67716830    586.506221    0.34080   -0.54374    0.00000    6
    9      0.189D-05      0.263D-06      -233.67716832    586.504947    0.34068   -0.54371    0.00000    7

 Final alpha occupancy:  21
 Final beta  occupancy:  21

 !UKS STATE 1.1 Energy               -233.677168322155
 Nuclear energy                       198.77359127
 One-electron energy                 -709.31489573
 Two-electron energy                  293.25247347
 Density functional                   -16.38833733     XC-M06-2X=-16.38833733
 Virial quotient                       -1.00500841
 !UKS STATE 1.1 Dipole moment           0.34068373    -0.54370942     0.00000000
 Dipole moment /Debye                   0.86587496    -1.38188098     0.00000000

 Orbital energies for positive spin:

         1.1          2.1          3.1          4.1          5.1          6.1          7.1          8.1          9.1         10.1
    -19.619573   -10.601033   -10.531290   -10.531282   -10.525999    -1.138809    -0.887307    -0.783797    -0.782733    -0.649756

        11.1         12.1         13.1         14.1         15.1         16.1         17.1         18.1         19.1         20.1
     -0.564174    -0.525030    -0.521718    -0.482206    -0.465442    -0.444217    -0.430274    -0.423019    -0.414546    -0.382656

        21.1         22.1         23.1
     -0.346024     0.031228     0.063950

 Orbital energies for negative spin:

         1.1          2.1          3.1          4.1          5.1          6.1          7.1          8.1          9.1         10.1
    -19.619573   -10.601033   -10.531290   -10.531282   -10.525999    -1.138809    -0.887307    -0.783797    -0.782733    -0.649756

        11.1         12.1         13.1         14.1         15.1         16.1         17.1         18.1         19.1         20.1
     -0.564174    -0.525030    -0.521718    -0.482206    -0.465442    -0.444217    -0.430274    -0.423019    -0.414546    -0.382656

        21.1         22.1         23.1
     -0.346024     0.031228     0.063950

 HOMO     21.1    -0.346024 =      -9.4158eV
 LUMO     22.1     0.031228 =       0.8498eV
 LUMO-HOMO         0.377252 =      10.2656eV

 EXPECTATION VALUE OF S**2:            -0.00000000

 Natural orbitals saved to record    2200.2 (Orbital set 3)

 Orbital spaces for UNO-CAS (Min. occupation: 0.020  Max. occupation: 1.980):

 Closed:       21
 Active:        0


 **********************************************************************************************************************************
 DATASETS  * FILE   NREC   LENGTH (MB)   RECORD NAMES
              1      20    37756.57       500      610      700      900      950      970     1000      129      960     1100   
                                          VAR    BASINP    GEOM    SYMINP    ZMAT    AOBASIS   BASIS     P2S    ABASIS      S 
                                         1400     1410     1200     1210     1080     1600     1650     1300     1700     1800   
                                           T        V       H0       H01     AOSYM     SMH    MOLCAS    ERIS     OPER     GRID   

              2       5       16.83       700     1000      520     1800     2200   
                                         GEOM     BASIS   MCVARS    GRID      UKS  

 PROGRAMS   *        TOTAL       UKS       INT
 CPU TIMES  *      5055.69   3930.87   1124.66
 REAL TIME  *      8915.84 SEC
 DISK USED  *       168.05 GB      
 **********************************************************************************************************************************


 PROGRAM * Intrinsic Basis Bonding Analysis (IBBA)          Author: G. Knizia

 Molecular orbitals read from record     2200.2  Type=UKS/ALPHA (state 1.1)
 Fock matrix read from record            2200.2  Type=UKS/TOTAL (state 1.1)
 Orbital energies read from record       2200.2  Type=UKS/ALPHA (state 1.1)
 Density matrix read from record         2200.2  Type=UKS/CHARGE (state 1.1)

 Number of core orbitals:           5 (   5 )
 Number of closed-shell orbitals:  16 (  16 )

 Basis set MINAO-AUTO-PP generated.      Number of basis functions:   35 

 Polarized AO type:                A = (O Ot + (1-O)(1-Ot)) P12
 Orthogonalization method:         Symmetric (Loewdin)
 Localization functional:          L = sum[A,i] <i|n_A|i>^4 -> max

 Localization group 1:  21 orbitals, occupancy  2.000
 Iterative localization: IB/PM,    7 iter; Final gradient 0.21E-08

 Bond order analysis:       [THRPRINT= 0.020]

   CEN ATOM   CEN ATOM     WIBERG.BO      RENORM.BO
     1   C  -   2   C       0.996107       0.993171
     1   C  -   5   H       0.964404       0.988025
     1   C  -   6   H       0.959580       0.982958
     1   C  -   7   H       0.959580       0.982958

     2   C  -   1   C       0.996107       0.993171
     2   C  -   9   C       0.995069       0.976867
     2   C  -   8   C       0.995069       0.976867
     2   C  -   3   O       0.932241       0.953341

     3   O  -   2   C       0.932241       0.953341
     3   O  -   4   H       0.861480       0.978125
     3   O  -   9   C       0.025449       0.013050
     3   O  -   8   C       0.025449       0.013050

     4   H  -   3   O       0.861480       0.978125

     5   H  -   1   C       0.964404       0.988025

     6   H  -   1   C       0.959580       0.982958

     7   H  -   1   C       0.959580       0.982958

     8   C  -   2   C       0.995069       0.976867
     8   C  -  14   H       0.963827       0.983548
     8   C  -  12   H       0.960842       0.983950
     8   C  -  10   H       0.959936       0.982812
     8   C  -   3   O       0.025449       0.013050

     9   C  -   2   C       0.995069       0.976867
     9   C  -  15   H       0.963827       0.983548
     9   C  -  13   H       0.960842       0.983950
     9   C  -  11   H       0.959936       0.982812
     9   C  -   3   O       0.025449       0.013050

    10   H  -   8   C       0.959936       0.982812

    11   H  -   9   C       0.959936       0.982812

    12   H  -   8   C       0.960842       0.983950

    13   H  -   9   C       0.960842       0.983950

    14   H  -   8   C       0.963827       0.983548

    15   H  -   9   C       0.963827       0.983548


 Valency analysis:

   CEN ATOM   TOT.VALENCE
     1   C       3.935854
     2   C       3.928510
     3   O       1.905188
     4   H       0.879740
     5   H       0.982006
     6   H       0.979270
     7   H       0.979270
     8   C       3.938501
     9   C       3.938501
    10   H       0.979204
    11   H       0.979204
    12   H       0.981070
    13   H       0.981070
    14   H       0.983478
    15   H       0.983478

 Total charge composition:

   CEN ATOM         s          p       ELECTRONS ->P.CHARGE
     1   C       3.03701    3.37622      6.41323   -0.41323
     2   C       2.93730    2.80265      5.73994    0.26006
     3   O       3.64295    4.93889      8.58184   -0.58184
     4   H       0.65321                 0.65321    0.34679
     5   H       0.86586                 0.86586    0.13414
     6   H       0.85602                 0.85602    0.14398
     7   H       0.85602                 0.85602    0.14398
     8   C       3.04285    3.38442      6.42727   -0.42727
     9   C       3.04285    3.38442      6.42727   -0.42727
    10   H       0.85579                 0.85579    0.14421
    11   H       0.85579                 0.85579    0.14421
    12   H       0.86241                 0.86241    0.13759
    13   H       0.86241                 0.86241    0.13759
    14   H       0.87146                 0.87146    0.12854
    15   H       0.87146                 0.87146    0.12854

 Total charge composition, AO contributions:

   CEN ATOM SHL      SPHERICAL COMPONENTS
     1   C  1s       1.99067
     1   C  2s       1.04634
     1   C  2p       1.03884    1.16264    1.17474

     2   C  1s       1.99235
     2   C  2s       0.94495
     2   C  2p       1.00840    0.78484    1.00940

     3   O  1s       1.99698
     3   O  2s       1.64597
     3   O  2p       1.48037    1.49806    1.96046

     4   H  1s       0.65321

     5   H  1s       0.86586

     6   H  1s       0.85602

     7   H  1s       0.85602

     8   C  1s       1.99077
     8   C  2s       1.05207
     8   C  2p       1.14447    1.14454    1.09541

     9   C  1s       1.99077
     9   C  2s       1.05207
     9   C  2p       1.14447    1.14454    1.09541

    10   H  1s       0.85579

    11   H  1s       0.85579

    12   H  1s       0.86241

    13   H  1s       0.86241

    14   H  1s       0.87146

    15   H  1s       0.87146

 Summary of localized orbital composition:   [THRPRINT= 0.020]

   ORB  GRP  ORB.ENERGY      CENTERS/CHARGES
     1   1   -19.451802      O  3   2.000
     2   1   -10.505911      C  2   2.000
     3   1   -10.412528      C  9   2.000
     4   1   -10.412528      C  8   2.000
     5   1   -10.406401      C  1   2.000
     6   1    -0.855141      O  3   1.348   H  4   0.643
     7   1    -0.810917      O  3   1.287   C  2   0.697
     8   1    -0.678603      O  3   1.983
     9   1    -0.650496      C  8   1.008   C  2   0.978
    10   1    -0.650496      C  9   1.008   C  2   0.978
    11   1    -0.650127      C  2   0.989   C  1   0.989   (other: 0.022)
    12   1    -0.579436      C  9   1.133   H 13   0.854
    13   1    -0.579436      C  8   1.133   H 12   0.854
    14   1    -0.577452      C  8   1.124   H 14   0.865
    15   1    -0.577452      C  9   1.124   H 15   0.865
    16   1    -0.575448      C  1   1.128   H  5   0.859
    17   1    -0.573622      C  9   1.142   H 11   0.848
    18   1    -0.573622      C  8   1.142   H 10   0.848
    19   1    -0.568763      C  1   1.141   H  6   0.848
    20   1    -0.568763      C  1   1.141   H  7   0.848
    21   1    -0.392040      O  3   1.960   (other: 0.040)

 Localized orbitals saved to record      2200.2  (orbital set 4)


 **********************************************************************************************************************************
 DATASETS  * FILE   NREC   LENGTH (MB)   RECORD NAMES
              1      20    37756.57       500      610      700      900      950      970     1000      129      960     1100   
                                          VAR    BASINP    GEOM    SYMINP    ZMAT    AOBASIS   BASIS     P2S    ABASIS      S 
                                         1400     1410     1200     1210     1080     1600     1650     1300     1700     1800   
                                           T        V       H0       H01     AOSYM     SMH    MOLCAS    ERIS     OPER     GRID   

              2       5       19.57       700     1000      520     1800     2200   
                                         GEOM     BASIS   MCVARS    GRID      UKS  

 PROGRAMS   *        TOTAL      IBBA       UKS       INT
 CPU TIMES  *      5056.14      0.44   3930.87   1124.66
 REAL TIME  *      8916.44 SEC
 DISK USED  *       168.05 GB      
 **********************************************************************************************************************************
 Molecular orbitals read from record     2200.2  Type=UKS/LOCAL(IBO)  
 Occupation numbers read from record     2200.2  Type=UKS/LOCAL(IBO)  
 Orbital energies read from record       2200.2  Type=UKS/LOCAL(IBO)  
 Redundancy group numbers read from rec  2200.2  Type=UKS/BETA (state 1.1)

 IBBA/QZVP energy=      0.000000000000

        UKS-SCF 
   -233.67716832
 **********************************************************************************************************************************
 Molpro calculation terminated
