
 Primary working directories    : /local
 Secondary working directories  : /local
 Wavefunction directory         : /local/
 Main file repository           : /local/

 SHA1      : b4a5b34a9e711420743f49e6833241d17c61fb3c
 NAME      : 2099.9.b4a5b34
 ARCHNAME  : linux/x86_64_openmp
 FC        : /cm/shared/languages/GCC-6.1/bin/gfortran
 BLASLIB   : -lblas
 id        : simonbennie

 Nodes     nprocs
 node35-025    1

 Using customized tuning parameters: mindgm=1; mindgv=20; mindgc=4; mindgr=1; noblas=0; minvec=7
 default implementation of scratch files=df  

 memory,500,m
 geomtyp=xyz
 nosym
 noorient
 geometry={
 C         -1.53233        0.02247        0.00000
 C         -0.00192        0.01421        0.00000
 O          0.37239        1.40356        0.00000
 H          1.34248        1.44036        0.00000
 H         -1.92991       -0.99819        0.00000
 H         -1.90797        0.54382       -0.88653
 H         -1.90797        0.54382        0.88653
 C          0.54303       -0.66466       -1.26580
 C          0.54303       -0.66466        1.26580
 H          0.17836       -0.14752       -2.15943
 H          0.17836       -0.14752        2.15943
 H          0.23752       -1.71600       -1.32280
 H          0.23752       -1.71600        1.32280
 H          1.64084       -0.63767       -1.28032
 H          1.64084       -0.63767        1.28032
 }
 basis={ default,avtz }
 {uks,LSDAC,direct;wf,42,1,0}
 {ibba,bonds=1}

 Variables initialized (895), CPU time= 0.00 sec
 Commands  initialized (725), CPU time= 0.02 sec, 591 directives.
 Default parameters read. Elapsed time= 0.19 sec

 Checking input...
 Passed
1


                                         ***  PROGRAM SYSTEM MOLPRO  ***
                                       Copyright, TTI GmbH Stuttgart, 2015
                                    Version 2099.9 linked May 26 2017 16:03:21


 **********************************************************************************************************************************
 LABEL *                                                                                 
  64 bit serial version                                                                  DATE: 12-Jun-17          TIME: 15:12:30  
 **********************************************************************************************************************************

 SHA1:             b4a5b34a9e711420743f49e6833241d17c61fb3c
 **********************************************************************************************************************************
 SETTING GEOMTYP        =    XYZ

 Variable memory set to  500000000 words,  buffer space 

 ZSYMEL=NOSYM

 SETTING BASIS          =    AVTZ


 Recomputing integrals since basis changed


 Using spherical harmonics

 Library entry C      S aug-cc-pVTZ          selected for orbital group  1
 Library entry C      P aug-cc-pVTZ          selected for orbital group  1
 Library entry C      D aug-cc-pVTZ          selected for orbital group  1
 Library entry C      F aug-cc-pVTZ          selected for orbital group  1
 Library entry O      S aug-cc-pVTZ          selected for orbital group  2
 Library entry O      P aug-cc-pVTZ          selected for orbital group  2
 Library entry O      D aug-cc-pVTZ          selected for orbital group  2
 Library entry O      F aug-cc-pVTZ          selected for orbital group  2
 Library entry H      S aug-cc-pVTZ          selected for orbital group  3
 Library entry H      P aug-cc-pVTZ          selected for orbital group  3
 Library entry H      D aug-cc-pVTZ          selected for orbital group  3


 PROGRAM * SEWARD (Integral evaluation for generally contracted gaussian basis sets)     Author: Roland Lindh, 1990

 Geometry written to block  1 of record 700


 Point group  C1  



 ATOMIC COORDINATES

 NR  ATOM    CHARGE       X              Y              Z

   1  C       6.00   -2.895684032    0.042462146    0.000000000
   2  C       6.00   -0.003628274    0.026853008    0.000000000
   3  O       8.00    0.703715112    2.652343999    0.000000000
   4  H       1.00    2.536919528    2.721885921    0.000000000
   5  H       1.00   -3.647001345   -1.886305720    0.000000000
   6  H       1.00   -3.605540754    1.027670861   -1.675298901
   7  H       1.00   -3.605540754    1.027670861    1.675298901
   8  C       6.00    1.026177977   -1.256025366   -2.392015328
   9  C       6.00    1.026177977   -1.256025366    2.392015328
  10  H       1.00    0.337051552   -0.278772398   -4.080731285
  11  H       1.00    0.337051552   -0.278772398    4.080731285
  12  H       1.00    0.448847749   -3.242770030   -2.499729718
  13  H       1.00    0.448847749   -3.242770030    2.499729718
  14  H       1.00    3.100738214   -1.205021658   -2.419454152
  15  H       1.00    3.100738214   -1.205021658    2.419454152

 Bond lengths in Bohr (Angstrom)

 1-2  2.892097881  1-5  2.069933136  1-6  2.069096224  1-7  2.069096224  2-3  2.719106031
     ( 1.530432290)     ( 1.095361444)     ( 1.094918569)     ( 1.094918569)     ( 1.438888946)

  2- 8  2.903104402   2- 9  2.903104402   3- 4  1.834522965   8-10  2.069222119   8-12  2.071730422
       ( 1.536256691)       ( 1.536256691)       ( 0.970787746)       ( 1.094985190)       ( 1.096312526)

  8-14  2.075368508   9-11  2.069222119   9-13  2.071730422   9-15  2.075368508
       ( 1.098237719)       ( 1.094985190)       ( 1.096312526)       ( 1.098237719)

 Bond angles

  1-2-3  104.76902697   1-2-8  110.92255387   1-2-9  110.92255387   2-1-5  110.97328220

  2- 1- 6  110.22090701   2- 1- 7  110.22090701   2- 3- 4  107.25071562   2- 8-10  110.21836376

  2- 8-12  111.57747468   2- 8-14  110.77023896   2- 9-11  110.21836376   2- 9-13  111.57747468

  2- 9-15  110.77023896   3- 2- 8  109.53648747   3- 2- 9  109.53648747   5- 1- 6  108.61190457

  5- 1- 7  108.61190457   6- 1- 7  108.12870271   8- 2- 9  110.96453384  10- 8-12  108.52192632

 10- 8-14  108.08997829  11- 9-13  108.52192632  11- 9-15  108.08997829  12- 8-14  107.54424578

 13- 9-15  107.54424578

 NUCLEAR CHARGE:                   42
 NUMBER OF PRIMITIVE AOS:         605
 NUMBER OF SYMMETRY AOS:          540
 NUMBER OF CONTRACTIONS:          460   ( 460A   )
 NUMBER OF CORE ORBITALS:           5   (   5A   )
 NUMBER OF VALENCE ORBITALS:       30   (  30A   )


 NUCLEAR REPULSION ENERGY  198.77359127


 Eigenvalues of metric

         1 0.351E-05 0.596E-05 0.770E-05 0.977E-05 0.161E-04 0.173E-04 0.207E-04 0.297E-04


 Contracted 2-electron integrals neglected if value below      1.0D-12
 AO integral compression algorithm  1   Integral accuracy      1.0D-12

     24892.932 MB (compressed) written to integral file ( 51.7%)


 NUMBER OF SORTED TWO-ELECTRON INTEGRALS: 5621233465.     BUFFER LENGTH:  32768
 NUMBER OF SEGMENTS: 176  SEGMENT LENGTH:   31999951      RECORD LENGTH: 131072

 Memory used in sort:      32.16 MW

 SORT1 READ  6020115514. AND WROTE  5366777799. INTEGRALS IN  61513 RECORDS. CPU TIME:    85.99 SEC, REAL TIME:  2353.64 SEC
 SORT2 READ  5366777799. AND WROTE  5621233465. INTEGRALS IN  94959 RECORDS. CPU TIME:   141.61 SEC, REAL TIME:  2698.94 SEC

 FILE SIZES:   FILE 1: 24930.9 MBYTE,  FILE 4: 64501.1 MBYTE,   TOTAL:  89432.0 MBYTE

 OPERATOR DM      FOR CENTER  0  COORDINATES:    0.000000    0.000000    0.000000


 **********************************************************************************************************************************
 DATASETS  * FILE   NREC   LENGTH (MB)   RECORD NAMES
              1      19    23757.53       500      610      700      900      950      970     1000      129      960     1100   
                                          VAR    BASINP    GEOM    SYMINP    ZMAT    AOBASIS   BASIS     P2S    ABASIS      S 
                                         1400     1410     1200     1210     1080     1600     1650     1300     1700   
                                           T        V       H0       H01     AOSYM     SMH    MOLCAS    ERIS     OPER   

 PROGRAMS   *        TOTAL       INT
 CPU TIMES  *       453.36    453.21
 REAL TIME  *      5557.41 SEC
 DISK USED  *        89.43 GB      
 **********************************************************************************************************************************

 Density functional group LSDAC=PW92C
 Functional: PW92C(Automatically generated (new) PW92C)                        Gradient terms: 0
 Use grid at  1800.2

 Functional: PW92C                     Factor:  1.0000

 Generated new metagrid on record  1800.2 with target accuracy 1.0D-06 and 55396 points in CPU time    1.7
 Computed new grid on record 1800.1 in CPU time    1.9
  195064 words reserved for DFT integration

 PROGRAM * UKS-SCF (Unrestricted Kohn-Sham)     Authors: W. Meyer, H.-J. Werner, P.J. Knowles, 1993

 NUMBER OF ELECTRONS:      21+   21-    SPACE SYMMETRY=1    SPIN SYMMETRY: Singlet 
 CONVERGENCE THRESHOLDS:    1.00E-05 (Density)    1.00E-06 (Energy)
 MAX. NUMBER OF ITERATIONS:       60
 INTERPOLATION TYPE:            DIIS
 INTERPOLATION STEPS:              2 (START)      1 (STEP)
 LEVEL SHIFTS:                 -0.20 (ALPHA)  -0.20 (BETA) 



 Use fine grid record 1800.2 for energy threshold  1.0D-06
 Orbital guess generated from atomic densities. Full valence occupancy:   35

 Molecular orbital dump at record        2200.2

 Initial alpha occupation  21
 Initial beta  occupation  21

 ITERATION    DDIFF          GRAD             ENERGY        2-EL.EN.            DIPOLE MOMENTS         DIIS
    1      0.000D+00      0.000D+00      -197.35140102    493.027336    3.44066   11.17247   -0.00000    0
    2      0.183D+01      0.601D-02      -187.28814306    698.025622   -4.55976  -19.44075    0.00000    1
    3      0.376D-01      0.143D-01      -200.63842764    641.491444   -0.22656   -5.02760   -0.00000    2
    4      0.134D-01      0.594D-02      -202.62350155    614.463309   -0.50975   -3.89570    0.00000    3
    5      0.913D-02      0.297D-02      -203.33997397    600.465519    0.02836   -1.71778   -0.00000    4
    6      0.129D-01      0.113D-02      -203.48299049    588.493995    0.34970   -0.33581   -0.00000    5
    7      0.640D-02      0.310D-03      -203.49152023    587.659625    0.18904   -0.44017   -0.00000    6
    8      0.326D-02      0.174D-03      -203.49434140    588.524906    0.27515   -0.31133   -0.00000    7
    9      0.224D-02      0.145D-03      -203.49621656    588.638657    0.27634   -0.33483   -0.00000    8
   10      0.362D-02      0.734D-04      -203.49740724    588.963832    0.23051   -0.35772   -0.00000    9
   11      0.218D-02      0.361D-04      -203.49774792    589.105401    0.23226   -0.36577   -0.00000    8
   12      0.906D-03      0.763D-05      -203.49780190    589.082122    0.22286   -0.35987   -0.00000    9
   13      0.855D-03      0.492D-05      -203.49782885    589.071542    0.22008   -0.35561   -0.00000    9
   14      0.740D-03      0.295D-05      -203.49783926    589.062347    0.21759   -0.35169    0.00000    9
   15      0.566D-03      0.152D-05      -203.49784251    589.057526    0.21609   -0.35028    0.00000    9
   16      0.486D-03      0.756D-06      -203.49784349    589.050715    0.21569   -0.34850    0.00000    9
   17      0.951D-04      0.239D-06      -203.49784356    589.047336    0.21579   -0.34854    0.00000    9
   18      0.363D-04      0.150D-06      -203.49784358    589.047247    0.21582   -0.34827   -0.00000    9
   19      0.182D-04      0.966D-07      -203.49784358    589.046881    0.21577   -0.34839    0.00000    9
   20      0.488D-05      0.421D-07      -203.49784358    589.046612    0.21590   -0.34837    0.00000    9
   21      0.164D-05      0.289D-07      -203.49784358    589.046715    0.21589   -0.34838    0.00000    9

 Final alpha occupancy:  21
 Final beta  occupancy:  21

 !UKS STATE 1.1 Energy               -203.497843584773
 Nuclear energy                       198.77359127
 One-electron energy                 -694.24733879
 Two-electron energy                  294.52335746
 Density functional                    -2.54745353     PW92C=-2.54745353
 Virial quotient                       -0.97671085
 !UKS STATE 1.1 Dipole moment           0.21589431    -0.34837795     0.00000000
 Dipole moment /Debye                   0.54871266    -0.88543044     0.00000000

 Orbital energies for positive spin:

         1.1          2.1          3.1          4.1          5.1          6.1          7.1          8.1          9.1         10.1
    -16.841300    -8.449756    -8.398559    -8.398542    -8.393281    -0.675201    -0.474558    -0.382957    -0.381159    -0.279361

        11.1         12.1         13.1         14.1         15.1         16.1         17.1         18.1         19.1         20.1
     -0.220280    -0.194007    -0.193573    -0.149682    -0.136919    -0.116370    -0.089481    -0.089394    -0.084794    -0.063926

        21.1         22.1         23.1
     -0.019639     0.013280     0.026363

 Orbital energies for negative spin:

         1.1          2.1          3.1          4.1          5.1          6.1          7.1          8.1          9.1         10.1
    -16.841300    -8.449756    -8.398559    -8.398542    -8.393281    -0.675201    -0.474558    -0.382957    -0.381159    -0.279361

        11.1         12.1         13.1         14.1         15.1         16.1         17.1         18.1         19.1         20.1
     -0.220280    -0.194007    -0.193573    -0.149682    -0.136919    -0.116370    -0.089481    -0.089394    -0.084794    -0.063926

        21.1         22.1         23.1
     -0.019639     0.013280     0.026363

 HOMO     21.1    -0.019639 =      -0.5344eV
 LUMO     22.1     0.013280 =       0.3614eV
 LUMO-HOMO         0.032919 =       0.8958eV

 EXPECTATION VALUE OF S**2:             0.00000000

 Natural orbitals saved to record    2200.2 (Orbital set 3)

 Orbital spaces for UNO-CAS (Min. occupation: 0.020  Max. occupation: 1.980):

 Closed:       21
 Active:        0


 **********************************************************************************************************************************
 DATASETS  * FILE   NREC   LENGTH (MB)   RECORD NAMES
              1      20    23759.30       500      610      700      900      950      970     1000      129      960     1100   
                                          VAR    BASINP    GEOM    SYMINP    ZMAT    AOBASIS   BASIS     P2S    ABASIS      S 
                                         1400     1410     1200     1210     1080     1600     1650     1300     1700     1800   
                                           T        V       H0       H01     AOSYM     SMH    MOLCAS    ERIS     OPER     GRID   

              2       5       11.56       700     1000      520     1800     2200   
                                         GEOM     BASIS   MCVARS    GRID      UKS  

 PROGRAMS   *        TOTAL       UKS       INT
 CPU TIMES  *      1476.14   1022.78    453.21
 REAL TIME  *      6827.97 SEC
 DISK USED  *        89.43 GB      
 **********************************************************************************************************************************


 PROGRAM * Intrinsic Basis Bonding Analysis (IBBA)          Author: G. Knizia

 Molecular orbitals read from record     2200.2  Type=UKS/ALPHA (state 1.1)
 Fock matrix read from record            2200.2  Type=UKS/TOTAL (state 1.1)
 Orbital energies read from record       2200.2  Type=UKS/ALPHA (state 1.1)
 Density matrix read from record         2200.2  Type=UKS/CHARGE (state 1.1)

 Number of core orbitals:           5 (   5 )
 Number of closed-shell orbitals:  16 (  16 )

 Basis set MINAO-AUTO-PP generated.      Number of basis functions:   35 

 Polarized AO type:                A = (O Ot + (1-O)(1-Ot)) P12
 Orthogonalization method:         Symmetric (Loewdin)
 Localization functional:          L = sum[A,i] <i|n_A|i>^4 -> max

 Localization group 1:  21 orbitals, occupancy  2.000
 Iterative localization: IB/PM,    7 iter; Final gradient 0.80E-08

 Bond order analysis:       [THRPRINT= 0.020]

   CEN ATOM   CEN ATOM     WIBERG.BO      RENORM.BO
     1   C  -   2   C       0.986249       0.998277
     1   C  -   5   H       0.955437       0.970678
     1   C  -   7   H       0.947428       0.953500
     1   C  -   6   H       0.947428       0.953500
     1   C  -   3   O       0.030748       0.016930
     1   C  -   4   H       0.024888       0.031956
     1   C  -  15   H       0.021311       0.022633
     1   C  -  14   H       0.021311       0.022633

     2   C  -   9   C       0.990867       0.975598
     2   C  -   8   C       0.990867       0.975598
     2   C  -   1   C       0.986249       0.998277
     2   C  -   3   O       0.963148       0.934768

     3   O  -   2   C       0.963148       0.934768
     3   O  -   4   H       0.899121       0.932974
     3   O  -   8   C       0.052666       0.028361
     3   O  -   9   C       0.052666       0.028361
     3   O  -  13   H       0.036090       0.025556
     3   O  -  12   H       0.036090       0.025556
     3   O  -   1   C       0.030748       0.016930
     3   O  -   5   H       0.021423       0.016447

     4   H  -   3   O       0.899121       0.932974
     4   H  -   1   C       0.024888       0.031956

     5   H  -   1   C       0.955437       0.970678
     5   H  -   3   O       0.021423       0.016447

     6   H  -   1   C       0.947428       0.953500
     6   H  -   9   C       0.024090       0.025067

     7   H  -   1   C       0.947428       0.953500
     7   H  -   8   C       0.024090       0.025067

     8   C  -   2   C       0.990867       0.975598
     8   C  -  14   H       0.947462       0.958100
     8   C  -  10   H       0.946619       0.949997
     8   C  -  12   H       0.945716       0.951835
     8   C  -   3   O       0.052666       0.028361
     8   C  -  11   H       0.024576       0.025592
     8   C  -   7   H       0.024090       0.025067

     9   C  -   2   C       0.990867       0.975598
     9   C  -  15   H       0.947462       0.958100
     9   C  -  11   H       0.946619       0.949997
     9   C  -  13   H       0.945716       0.951835
     9   C  -   3   O       0.052666       0.028361
     9   C  -  10   H       0.024576       0.025592
     9   C  -   6   H       0.024090       0.025067

    10   H  -   8   C       0.946619       0.949997
    10   H  -   9   C       0.024576       0.025592

    11   H  -   9   C       0.946619       0.949997
    11   H  -   8   C       0.024576       0.025592

    12   H  -   8   C       0.945716       0.951835
    12   H  -   3   O       0.036090       0.025556

    13   H  -   9   C       0.945716       0.951835
    13   H  -   3   O       0.036090       0.025556

    14   H  -   8   C       0.947462       0.958100
    14   H  -   1   C       0.021311       0.022633

    15   H  -   9   C       0.947462       0.958100
    15   H  -   1   C       0.021311       0.022633


 Valency analysis:

   CEN ATOM   TOT.VALENCE
     1   C       3.965985
     2   C       3.949001
     3   O       2.117748
     4   H       0.949041
     5   H       0.995147
     6   H       0.995120
     7   H       0.995120
     8   C       3.966540
     9   C       3.966540
    10   H       0.994906
    11   H       0.994906
    12   H       0.995451
    13   H       0.995451
    14   H       0.996330
    15   H       0.996330

 Total charge composition:

   CEN ATOM         s          p       ELECTRONS ->P.CHARGE
     1   C       2.95262    3.27041      6.22303   -0.22303
     2   C       2.87765    2.86771      5.74535    0.25465
     3   O       3.58309    4.78267      8.36576   -0.36576
     4   H       0.77426                 0.77426    0.22574
     5   H       0.93034                 0.93034    0.06966
     6   H       0.93014                 0.93014    0.06986
     7   H       0.93014                 0.93014    0.06986
     8   C       2.97361    3.27627      6.24989   -0.24989
     9   C       2.97361    3.27627      6.24989   -0.24989
    10   H       0.92863                 0.92863    0.07137
    11   H       0.92863                 0.92863    0.07137
    12   H       0.93255                 0.93255    0.06745
    13   H       0.93255                 0.93255    0.06745
    14   H       0.93942                 0.93942    0.06058
    15   H       0.93942                 0.93942    0.06058

 Total charge composition, AO contributions:

   CEN ATOM SHL      SPHERICAL COMPONENTS
     1   C  1s       1.99691
     1   C  2s       0.95571
     1   C  2p       1.02011    1.12048    1.12982

     2   C  1s       1.99765
     2   C  2s       0.88000
     2   C  2p       1.01455    0.83751    1.01565

     3   O  1s       1.99869
     3   O  2s       1.58440
     3   O  2p       1.39625    1.47640    1.91002

     4   H  1s       0.77426

     5   H  1s       0.93034

     6   H  1s       0.93014

     7   H  1s       0.93014

     8   C  1s       1.99695
     8   C  2s       0.97666
     8   C  2p       1.10209    1.10977    1.06442

     9   C  1s       1.99695
     9   C  2s       0.97666
     9   C  2p       1.10209    1.10977    1.06442

    10   H  1s       0.92863

    11   H  1s       0.92863

    12   H  1s       0.93255

    13   H  1s       0.93255

    14   H  1s       0.93942

    15   H  1s       0.93942

 Summary of localized orbital composition:   [THRPRINT= 0.020]

   ORB  GRP  ORB.ENERGY      CENTERS/CHARGES
     1   1   -16.738180      O  3   2.000
     2   1    -8.377779      C  2   2.000
     3   1    -8.313122      C  9   2.000
     4   1    -8.313122      C  8   2.000
     5   1    -8.307680      C  1   2.000
     6   1    -0.451360      O  3   1.238   C  2   0.736   (other: 0.026)
     7   1    -0.428627      O  3   1.241   H  4   0.742
     8   1    -0.300575      C  9   1.019   C  2   0.951   (other: 0.030)
     9   1    -0.300575      C  8   1.019   C  2   0.951   (other: 0.030)
    10   1    -0.299504      C  1   0.994   C  2   0.959   (other: 0.047)
    11   1    -0.232327      O  3   1.965   (other: 0.035)
    12   1    -0.216676      C  8   1.049   H 14   0.925   (other: 0.025)
    13   1    -0.216676      C  9   1.049   H 15   0.925   (other: 0.025)
    14   1    -0.215991      C  8   1.064   H 12   0.912   (other: 0.024)
    15   1    -0.215991      C  9   1.064   H 13   0.912   (other: 0.024)
    16   1    -0.212330      C  1   1.060   H  5   0.917   (other: 0.023)
    17   1    -0.210847      C  9   1.070   H 11   0.911
    18   1    -0.210847      C  8   1.070   H 10   0.911
    19   1    -0.208227      C  1   1.067   H  7   0.913   (other: 0.021)
    20   1    -0.208227      C  1   1.067   H  6   0.913   (other: 0.021)
    21   1    -0.054050      O  3   1.910   C  2   0.026   (other: 0.064)

 Localized orbitals saved to record      2200.2  (orbital set 4)


 **********************************************************************************************************************************
 DATASETS  * FILE   NREC   LENGTH (MB)   RECORD NAMES
              1      20    23759.30       500      610      700      900      950      970     1000      129      960     1100   
                                          VAR    BASINP    GEOM    SYMINP    ZMAT    AOBASIS   BASIS     P2S    ABASIS      S 
                                         1400     1410     1200     1210     1080     1600     1650     1300     1700     1800   
                                           T        V       H0       H01     AOSYM     SMH    MOLCAS    ERIS     OPER     GRID   

              2       5       13.27       700     1000      520     1800     2200   
                                         GEOM     BASIS   MCVARS    GRID      UKS  

 PROGRAMS   *        TOTAL      IBBA       UKS       INT
 CPU TIMES  *      1476.40      0.26   1022.78    453.21
 REAL TIME  *      6828.36 SEC
 DISK USED  *        89.43 GB      
 **********************************************************************************************************************************
 Molecular orbitals read from record     2200.2  Type=UKS/LOCAL(IBO)  
 Occupation numbers read from record     2200.2  Type=UKS/LOCAL(IBO)  
 Orbital energies read from record       2200.2  Type=UKS/LOCAL(IBO)  
 Redundancy group numbers read from rec  2200.2  Type=UKS/BETA (state 1.1)

 IBBA/aug-cc-pVTZ energy=      0.000000000000

        UKS-SCF 
   -203.49784358
 **********************************************************************************************************************************
 Molpro calculation terminated
