
 Primary working directories    : /tmp/sb13343
 Secondary working directories  : /tmp/sb13343
 Wavefunction directory         : /panfs/panasas01/chem/sb13343/wfu/
 Main file repository           : /tmp/sb13343/

 SHA1      : b4a5b34a9e711420743f49e6833241d17c61fb3c
 NAME      : 2099.9.b4a5b34
 ARCHNAME  : linux/x86_64_openmp
 FC        : /cm/shared/languages/GCC-6.1/bin/gfortran
 BLASLIB   : -lblas
 id        : simonbennie

 Nodes     nprocs
 node32-036    1

 Using customized tuning parameters: mindgm=1; mindgv=20; mindgc=4; mindgr=1; noblas=0; minvec=7
 default implementation of scratch files=df  

 memory,500,m
 geomtyp=xyz
 nosym
 noorient
 geometry={
 C          0.00000        0.00000        0.00000
 C          0.00000        0.00000        1.53307
 O          1.40344        0.00000        1.86307
 C          1.76314        0.00000        3.22887
 H         -1.02289        0.00000       -0.39176
 H          0.51995       -0.88625       -0.37815
 H          0.51995        0.88625       -0.37815
 H          2.85677        0.00000        3.25413
 H          1.40708       -0.89217        3.76475
 H          1.40708        0.89217        3.76475
 C         -0.69252       -1.26694        2.06222
 C         -0.69252        1.26694        2.06222
 H         -0.15366       -2.16088        1.72982
 H         -0.15366        2.16088        1.72982
 H         -1.72011       -1.32515        1.68649
 H         -1.72011        1.32515        1.68649
 H         -0.74365       -1.28188        3.15638
 H         -0.74365        1.28188        3.15638
 }
 basis={ default,svp }
 {uks,D,direct;wf,50,1,0}
 {ibba,bonds=1}

 Variables initialized (895), CPU time= 0.00 sec
 Commands  initialized (725), CPU time= 0.02 sec, 591 directives.
 Default parameters read. Elapsed time= 0.09 sec

 Checking input...
 Passed
1


                                         ***  PROGRAM SYSTEM MOLPRO  ***
                                       Copyright, TTI GmbH Stuttgart, 2015
                                    Version 2099.9 linked May 26 2017 16:03:21


 **********************************************************************************************************************************
 LABEL *                                                                                 
  64 bit serial version                                                                  DATE: 09-Jun-17          TIME: 01:40:13  
 **********************************************************************************************************************************

 SHA1:             b4a5b34a9e711420743f49e6833241d17c61fb3c
 **********************************************************************************************************************************
 SETTING GEOMTYP        =    XYZ

 Variable memory set to  500000000 words,  buffer space 

 ZSYMEL=NOSYM

 SETTING BASIS          =    SVP


 Recomputing integrals since basis changed


 Using spherical harmonics

 Library entry C      S def2-SVP             selected for orbital group  1
 Library entry C      P def2-SVP             selected for orbital group  1
 Library entry C      D def2-SVP             selected for orbital group  1
 Library entry O      S def2-SVP             selected for orbital group  2
 Library entry O      P def2-SVP             selected for orbital group  2
 Library entry O      D def2-SVP             selected for orbital group  2
 Library entry H      S def2-SVP             selected for orbital group  4
 Library entry H      P def2-SVP             selected for orbital group  4


 PROGRAM * SEWARD (Integral evaluation for generally contracted gaussian basis sets)     Author: Roland Lindh, 1990

 Geometry written to block  1 of record 700


 Point group  C1  



 ATOMIC COORDINATES

 NR  ATOM    CHARGE       X              Y              Z

   1  C       6.00    0.000000000    0.000000000    0.000000000
   2  C       6.00    0.000000000    0.000000000    2.897082430
   3  O       8.00    2.652117232    0.000000000    3.520692051
   4  C       6.00    3.331851719    0.000000000    6.101679992
   5  H       1.00   -1.932981956    0.000000000   -0.740319107
   6  H       1.00    0.982563098   -1.674769778   -0.714599934
   7  H       1.00    0.982563098    1.674769778   -0.714599934
   8  H       1.00    5.398512901    0.000000000    6.149414474
   9  H       1.00    2.658995835   -1.685956957    7.114346427
  10  H       1.00    2.658995835    1.685956957    7.114346427
  11  C       6.00   -1.308673136   -2.394169616    3.897031009
  12  C       6.00   -1.308673136    2.394169616    3.897031009
  13  H       1.00   -0.290375316   -4.083471388    3.268886045
  14  H       1.00   -0.290375316    4.083471388    3.268886045
  15  H       1.00   -3.250536804   -2.504170574    3.187004212
  16  H       1.00   -3.250536804    2.504170574    3.187004212
  17  H       1.00   -1.405294833   -2.422402125    5.964693745
  18  H       1.00   -1.405294833    2.422402125    5.964693745

 Bond lengths in Bohr (Angstrom)

 1-2  2.897082430  1-5  2.069901355  1-6  2.069042560  1-7  2.069042560  2-3  2.724447609
     ( 1.533070000)     ( 1.095344626)     ( 1.094890171)     ( 1.094890171)     ( 1.441715587)

  2-11  2.905954351   2-12  2.905954351   3- 4  2.668995640   4- 8  2.067212379   4- 9  2.078624355
       ( 1.537764818)       ( 1.537764818)       ( 1.412371669)       ( 1.093921681)       ( 1.099960639)

  4-10  2.078624355  11-13  2.070081404  11-15  2.070524757  11-17  2.070111596  12-14  2.070081404
       ( 1.099960639)       ( 1.095439904)       ( 1.095674516)       ( 1.095455880)       ( 1.095439904)

 12-16  2.070524757  12-18  2.070111596
       ( 1.095674516)       ( 1.095455880)

 Bond angles

  1- 2- 3  103.23196371   1- 2-11  110.12706952   1- 2-12  110.12706952   2- 1- 5  110.95650426

  2- 1- 6  110.20481748   2- 1- 7  110.20481748   2- 3- 4  117.98647004   2-11-13  110.26679927

  2-11-15  110.37287188   2-11-17  112.08316935   2-12-14  110.26679927   2-12-16  110.37287188

  2-12-18  112.08316935   3- 2-11  111.07703285   3- 2-12  111.07703285   3- 4- 8  106.07765410

  3- 4- 9  112.87219182   3- 4-10  112.87219182   5- 1- 6  108.65976572   5- 1- 7  108.65976572

  6- 1- 7  108.08288210   8- 4- 9  108.20190897   8- 4-10  108.20190897   9- 4-10  108.40564999

 11- 2-12  110.95103964  13-11-15  108.29648994  13-11-17  108.35544687  14-12-16  108.29648994

 14-12-18  108.35544687  15-11-17  107.33851825  16-12-18  107.33851825

 NUCLEAR CHARGE:                   50
 NUMBER OF PRIMITIVE AOS:         234
 NUMBER OF SYMMETRY AOS:          228
 NUMBER OF CONTRACTIONS:          144   ( 144A   )
 NUMBER OF CORE ORBITALS:           6   (   6A   )
 NUMBER OF VALENCE ORBITALS:       36   (  36A   )


 NUCLEAR REPULSION ENERGY  270.15500869


 Eigenvalues of metric

         1 0.176E-02 0.508E-02 0.513E-02 0.102E-01 0.124E-01 0.215E-01 0.221E-01 0.252E-01


 Contracted 2-electron integrals neglected if value below      1.0D-11
 AO integral compression algorithm  1   Integral accuracy      1.0D-11

     186.384 MB (compressed) written to integral file ( 41.3%)


 NUMBER OF SORTED TWO-ELECTRON INTEGRALS:   54502020.     BUFFER LENGTH:  32768
 NUMBER OF SEGMENTS:   4  SEGMENT LENGTH:   15999503      RECORD LENGTH: 524288

 Memory used in sort:      16.56 MW

 SORT1 READ    56333432. AND WROTE    45703433. INTEGRALS IN    132 RECORDS. CPU TIME:     0.72 SEC, REAL TIME:     1.35 SEC
 SORT2 READ    45703433. AND WROTE    54502020. INTEGRALS IN    711 RECORDS. CPU TIME:     1.07 SEC, REAL TIME:     1.38 SEC

 FILE SIZES:   FILE 1:   217.4 MBYTE,  FILE 4:   553.7 MBYTE,   TOTAL:    771.1 MBYTE

 OPERATOR DM      FOR CENTER  0  COORDINATES:    0.000000    0.000000    0.000000


 **********************************************************************************************************************************
 DATASETS  * FILE   NREC   LENGTH (MB)   RECORD NAMES
              1      19      194.45       500      610      700      900      950      970     1000      129      960     1100   
                                          VAR    BASINP    GEOM    SYMINP    ZMAT    AOBASIS   BASIS     P2S    ABASIS      S 
                                         1400     1410     1200     1210     1080     1600     1650     1300     1700   
                                           T        V       H0       H01     AOSYM     SMH    MOLCAS    ERIS     OPER   

 PROGRAMS   *        TOTAL       INT
 CPU TIMES  *         7.20      7.06
 REAL TIME  *         9.22 SEC
 DISK USED  *       771.70 MB      
 **********************************************************************************************************************************

 Density functional group D=DIRAC
 Functional: DIRAC(Automatically generated (new) DIRAC)                        Gradient terms: 0
 Use grid at  1800.2

 Functional: DIRAC                     Factor:  1.0000

 Generated new metagrid on record  1800.2 with target accuracy 1.0D-06 and 66012 points in CPU time    1.9
 Computed new grid on record 1800.1 in CPU time    2.2
   63846 words reserved for DFT integration

 PROGRAM * UKS-SCF (Unrestricted Kohn-Sham)     Authors: W. Meyer, H.-J. Werner, P.J. Knowles, 1993

 NUMBER OF ELECTRONS:      25+   25-    SPACE SYMMETRY=1    SPIN SYMMETRY: Singlet 
 CONVERGENCE THRESHOLDS:    1.00E-05 (Density)    1.00E-06 (Energy)
 MAX. NUMBER OF ITERATIONS:       60
 INTERPOLATION TYPE:            DIIS
 INTERPOLATION STEPS:              2 (START)      1 (STEP)
 LEVEL SHIFTS:                 -0.20 (ALPHA)  -0.20 (BETA) 



 Use fine grid record 1800.2 for energy threshold  1.0D-06
 Orbital guess generated from atomic densities. Full valence occupancy:   25

 Molecular orbital dump at record        2200.2

 Initial alpha occupation  25
 Initial beta  occupation  25

 ITERATION    DDIFF          GRAD             ENERGY        2-EL.EN.            DIPOLE MOMENTS         DIIS
    1      0.000D+00      0.000D+00      -266.88861656    819.593840   -0.62073    0.00000    0.61647    0
    2      0.123D-01      0.522D-02      -267.14358772    792.145354   -0.31646    0.00000    0.22255    1
    3      0.408D-02      0.264D-02      -267.20760249    800.015927   -0.33848    0.00000    0.31946    2
    4      0.101D-02      0.239D-03      -267.20858800    799.575654   -0.31609    0.00000    0.29604    3
    5      0.517D-03      0.135D-03      -267.20886788    799.575127   -0.32076    0.00000    0.29870    4
    6      0.410D-03      0.546D-04      -267.20893946    799.489453   -0.30958    0.00000    0.29146    5
    7      0.805D-04      0.189D-04      -267.20894419    799.484947   -0.31404    0.00000    0.29257    6
    8      0.294D-04      0.903D-05      -267.20894523    799.489614   -0.31326    0.00000    0.29272    7
    9      0.110D-04      0.174D-05      -267.20894529    799.487049   -0.31298    0.00000    0.29239    7
   10      0.285D-05      0.545D-06      -267.20894530    799.488354   -0.31315    0.00000    0.29251    7
   11      0.107D-05      0.254D-06      -267.20894530    799.487858   -0.31314    0.00000    0.29251    8

 Final alpha occupancy:  25
 Final beta  occupancy:  25

 !UKS STATE 1.1 Energy               -267.208945299184
 Nuclear energy                       270.15500869
 One-electron energy                 -902.70231830
 Two-electron energy                  399.74392878
 Density functional                   -34.40556447     DIRAC=-34.40556447
 Virial quotient                       -0.99705829
 !UKS STATE 1.1 Dipole moment          -0.31313576     0.00000000     0.29250764
 Dipole moment /Debye                  -0.79585958     0.00000000     0.74343158

 Orbital energies for positive spin:

         1.1          2.1          3.1          4.1          5.1          6.1          7.1          8.1          9.1         10.1
    -18.527347    -9.764913    -9.744403    -9.701668    -9.701633    -9.696315    -0.867472    -0.664004    -0.570035    -0.563264

        11.1         12.1         13.1         14.1         15.1         16.1         17.1         18.1         19.1         20.1
     -0.542769    -0.437765    -0.387223    -0.365503    -0.360977    -0.334320    -0.317216    -0.303064    -0.285794    -0.278558

        21.1         22.1         23.1         24.1         25.1         26.1         27.1
     -0.268497    -0.252280    -0.251009    -0.202782    -0.155417     0.056540     0.088591

 Orbital energies for negative spin:

         1.1          2.1          3.1          4.1          5.1          6.1          7.1          8.1          9.1         10.1
    -18.527347    -9.764913    -9.744403    -9.701668    -9.701633    -9.696315    -0.867472    -0.664004    -0.570035    -0.563264

        11.1         12.1         13.1         14.1         15.1         16.1         17.1         18.1         19.1         20.1
     -0.542769    -0.437765    -0.387223    -0.365503    -0.360977    -0.334320    -0.317216    -0.303064    -0.285794    -0.278558

        21.1         22.1         23.1         24.1         25.1         26.1         27.1
     -0.268497    -0.252280    -0.251009    -0.202782    -0.155417     0.056540     0.088591

 HOMO     25.1    -0.155417 =      -4.2291eV
 LUMO     26.1     0.056540 =       1.5385eV
 LUMO-HOMO         0.211957 =       5.7676eV

 EXPECTATION VALUE OF S**2:             0.00000000

 Natural orbitals saved to record    2200.2 (Orbital set 3)

 Orbital spaces for UNO-CAS (Min. occupation: 0.020  Max. occupation: 1.980):

 Closed:       25
 Active:        0


 **********************************************************************************************************************************
 DATASETS  * FILE   NREC   LENGTH (MB)   RECORD NAMES
              1      20      196.57       500      610      700      900      950      970     1000      129      960     1100   
                                          VAR    BASINP    GEOM    SYMINP    ZMAT    AOBASIS   BASIS     P2S    ABASIS      S 
                                         1400     1410     1200     1210     1080     1600     1650     1300     1700     1800   
                                           T        V       H0       H01     AOSYM     SMH    MOLCAS    ERIS     OPER     GRID   

              2       5        3.91       700     1000      520     1800     2200   
                                         GEOM     BASIS   MCVARS    GRID      UKS  

 PROGRAMS   *        TOTAL       UKS       INT
 CPU TIMES  *        29.52     22.32      7.06
 REAL TIME  *        32.65 SEC
 DISK USED  *       771.70 MB      
 **********************************************************************************************************************************


 PROGRAM * Intrinsic Basis Bonding Analysis (IBBA)          Author: G. Knizia

 Molecular orbitals read from record     2200.2  Type=UKS/ALPHA (state 1.1)
 Fock matrix read from record            2200.2  Type=UKS/TOTAL (state 1.1)
 Orbital energies read from record       2200.2  Type=UKS/ALPHA (state 1.1)
 Density matrix read from record         2200.2  Type=UKS/CHARGE (state 1.1)

 Number of core orbitals:           6 (   6 )
 Number of closed-shell orbitals:  19 (  19 )

 Basis set MINAO-AUTO-PP generated.      Number of basis functions:   42 

 Polarized AO type:                A = (O Ot + (1-O)(1-Ot)) P12
 Orthogonalization method:         Symmetric (Loewdin)
 Localization functional:          L = sum[A,i] <i|n_A|i>^4 -> max

 Localization group 1:  25 orbitals, occupancy  2.000
 Iterative localization: IB/PM,    7 iter; Final gradient 0.27E-08

 Bond order analysis:       [THRPRINT= 0.020]

   CEN ATOM   CEN ATOM     WIBERG.BO      RENORM.BO
     1   C  -   2   C       0.994888       0.993584
     1   C  -   5   H       0.958379       0.983437
     1   C  -   7   H       0.953799       0.978005
     1   C  -   6   H       0.953799       0.978005

     2   C  -   1   C       0.994888       0.993584
     2   C  -  12   C       0.990395       0.968554
     2   C  -  11   C       0.990395       0.968554
     2   C  -   3   O       0.931829       0.926325

     3   O  -   4   C       1.001088       1.014746
     3   O  -   2   C       0.931829       0.926325
     3   O  -   9   H       0.037705       0.022510
     3   O  -  10   H       0.037705       0.022510
     3   O  -  12   C       0.029770       0.015551
     3   O  -  11   C       0.029770       0.015551

     4   C  -   3   O       1.001088       1.014746
     4   C  -   8   H       0.951415       0.976344
     4   C  -   9   H       0.942250       0.928796
     4   C  -  10   H       0.942250       0.928796

     5   H  -   1   C       0.958379       0.983437

     6   H  -   1   C       0.953799       0.978005

     7   H  -   1   C       0.953799       0.978005

     8   H  -   4   C       0.951415       0.976344

     9   H  -   4   C       0.942250       0.928796
     9   H  -   3   O       0.037705       0.022510

    10   H  -   4   C       0.942250       0.928796
    10   H  -   3   O       0.037705       0.022510

    11   C  -   2   C       0.990395       0.968554
    11   C  -  17   H       0.955922       0.977485
    11   C  -  13   H       0.954269       0.978200
    11   C  -  15   H       0.954239       0.984275
    11   C  -   3   O       0.029770       0.015551

    12   C  -   2   C       0.990395       0.968554
    12   C  -  18   H       0.955922       0.977485
    12   C  -  14   H       0.954269       0.978200
    12   C  -  16   H       0.954239       0.984275
    12   C  -   3   O       0.029770       0.015551

    13   H  -  11   C       0.954269       0.978200

    14   H  -  12   C       0.954269       0.978200

    15   H  -  11   C       0.954239       0.984275

    16   H  -  12   C       0.954239       0.984275

    17   H  -  11   C       0.955922       0.977485

    18   H  -  12   C       0.955922       0.977485


 Valency analysis:

   CEN ATOM   TOT.VALENCE
     1   C       3.931303
     2   C       3.941303
     3   O       2.148863
     4   C       3.865915
     5   H       0.982039
     6   H       0.979420
     7   H       0.979420
     8   H       0.975873
     9   H       0.986872
    10   H       0.986872
    11   C       3.930890
    12   C       3.930890
    13   H       0.979681
    14   H       0.979681
    15   H       0.979721
    16   H       0.979721
    17   H       0.982210
    18   H       0.982210

 Total charge composition:

   CEN ATOM         s          p       ELECTRONS ->P.CHARGE
     1   C       3.01472    3.40304      6.41776   -0.41776
     2   C       2.91245    2.85232      5.76477    0.23523
     3   O       3.58831    4.77254      8.36086   -0.36086
     4   C       3.00364    3.21949      6.22313   -0.22313
     5   H       0.86598                 0.86598    0.13402
     6   H       0.85654                 0.85654    0.14346
     7   H       0.85654                 0.85654    0.14346
     8   H       0.84467                 0.84467    0.15533
     9   H       0.88542                 0.88542    0.11458
    10   H       0.88542                 0.88542    0.11458
    11   C       3.01427    3.42352      6.43778   -0.43778
    12   C       3.01427    3.42352      6.43778   -0.43778
    13   H       0.85745                 0.85745    0.14255
    14   H       0.85745                 0.85745    0.14255
    15   H       0.85759                 0.85759    0.14241
    16   H       0.85759                 0.85759    0.14241
    17   H       0.86662                 0.86662    0.13338
    18   H       0.86662                 0.86662    0.13338

 Total charge composition, AO contributions:

   CEN ATOM SHL      SPHERICAL COMPONENTS
     1   C  1s       1.99222
     1   C  2s       1.02251
     1   C  2p       1.16981    1.18294    1.05030

     2   C  1s       1.99378
     2   C  2s       0.91867
     2   C  2p       0.81164    1.02096    1.01972

     3   O  1s       1.99756
     3   O  2s       1.59075
     3   O  2p       1.43043    1.89826    1.44385

     4   C  1s       1.99278
     4   C  2s       1.01085
     4   C  2p       1.17227    1.18225    0.86497

     5   H  1s       0.86598

     6   H  1s       0.85654

     7   H  1s       0.85654

     8   H  1s       0.84467

     9   H  1s       0.88542

    10   H  1s       0.88542

    11   C  1s       1.99226
    11   C  2s       1.02201
    11   C  2p       1.15523    1.10638    1.16190

    12   C  1s       1.99226
    12   C  2s       1.02201
    12   C  2p       1.15523    1.10638    1.16190

    13   H  1s       0.85745

    14   H  1s       0.85745

    15   H  1s       0.85759

    16   H  1s       0.85759

    17   H  1s       0.86662

    18   H  1s       0.86662

 Summary of localized orbital composition:   [THRPRINT= 0.020]

   ORB  GRP  ORB.ENERGY      CENTERS/CHARGES
     1   1   -18.398375      O  3   2.000
     2   1    -9.679404      C  2   2.000
     3   1    -9.641602      C  4   2.000
     4   1    -9.594488      C 12   2.000
     5   1    -9.594488      C 11   2.000
     6   1    -9.588496      C  1   2.000
     7   1    -0.647232      O  3   1.237   C  4   0.755
     8   1    -0.618152      O  3   1.263   C  2   0.711   (other: 0.026)
     9   1    -0.467903      C 11   1.009   C  2   0.972
    10   1    -0.467903      C 12   1.009   C  2   0.972
    11   1    -0.465339      C  1   0.992   C  2   0.982   (other: 0.026)
    12   1    -0.411406      C  4   1.135   H 10   0.862
    13   1    -0.411406      C  4   1.135   H  9   0.862
    14   1    -0.409174      C  4   1.154   H  8   0.836
    15   1    -0.408076      O  3   1.956   (other: 0.044)
    16   1    -0.397933      C 11   1.134   H 15   0.848
    17   1    -0.397933      C 12   1.134   H 16   0.848
    18   1    -0.396312      C 12   1.130   H 18   0.856
    19   1    -0.396312      C 11   1.130   H 17   0.856
    20   1    -0.394021      C  1   1.127   H  5   0.857
    21   1    -0.392186      C 11   1.140   H 13   0.847
    22   1    -0.392186      C 12   1.140   H 14   0.847
    23   1    -0.387072      C  1   1.141   H  7   0.846
    24   1    -0.387072      C  1   1.141   H  6   0.846
    25   1    -0.199802      O  3   1.898   C  2   0.022   C  4   0.020   (other: 0.060)

 Localized orbitals saved to record      2200.2  (orbital set 4)


 **********************************************************************************************************************************
 DATASETS  * FILE   NREC   LENGTH (MB)   RECORD NAMES
              1      20      196.57       500      610      700      900      950      970     1000      129      960     1100   
                                          VAR    BASINP    GEOM    SYMINP    ZMAT    AOBASIS   BASIS     P2S    ABASIS      S 
                                         1400     1410     1200     1210     1080     1600     1650     1300     1700     1800   
                                           T        V       H0       H01     AOSYM     SMH    MOLCAS    ERIS     OPER     GRID   

              2       5        4.08       700     1000      520     1800     2200   
                                         GEOM     BASIS   MCVARS    GRID      UKS  

 PROGRAMS   *        TOTAL      IBBA       UKS       INT
 CPU TIMES  *        29.57      0.05     22.32      7.06
 REAL TIME  *        32.82 SEC
 DISK USED  *       771.70 MB      
 **********************************************************************************************************************************
 Molecular orbitals read from record     2200.2  Type=UKS/LOCAL(IBO)  
 Occupation numbers read from record     2200.2  Type=UKS/LOCAL(IBO)  
 Orbital energies read from record       2200.2  Type=UKS/LOCAL(IBO)  
 Redundancy group numbers read from rec  2200.2  Type=UKS/BETA (state 1.1)

 IBBA/SVP energy=      0.000000000000

        UKS-SCF 
   -267.20894530
 **********************************************************************************************************************************
 Molpro calculation terminated
