
 Primary working directories    : /tmp/sb13343
 Secondary working directories  : /tmp/sb13343
 Wavefunction directory         : /panfs/panasas01/chem/sb13343/wfu/
 Main file repository           : /tmp/sb13343/

 SHA1      : b4a5b34a9e711420743f49e6833241d17c61fb3c
 NAME      : 2099.9.b4a5b34
 ARCHNAME  : linux/x86_64_openmp
 FC        : /cm/shared/languages/GCC-6.1/bin/gfortran
 BLASLIB   : -lblas
 id        : simonbennie

 Nodes     nprocs
 node32-039    1

 Using customized tuning parameters: mindgm=1; mindgv=20; mindgc=4; mindgr=1; noblas=0; minvec=7
 default implementation of scratch files=df  

 memory,500,m
 geomtyp=xyz
 nosym
 noorient
 geometry={
 C          0.00000        0.00000        0.00000
 C          0.00000        0.00000        1.53307
 O          1.40344        0.00000        1.86307
 C          1.76314        0.00000        3.22887
 H         -1.02289        0.00000       -0.39176
 H          0.51995       -0.88625       -0.37815
 H          0.51995        0.88625       -0.37815
 H          2.85677        0.00000        3.25413
 H          1.40708       -0.89217        3.76475
 H          1.40708        0.89217        3.76475
 C         -0.69252       -1.26694        2.06222
 C         -0.69252        1.26694        2.06222
 H         -0.15366       -2.16088        1.72982
 H         -0.15366        2.16088        1.72982
 H         -1.72011       -1.32515        1.68649
 H         -1.72011        1.32515        1.68649
 H         -0.74365       -1.28188        3.15638
 H         -0.74365        1.28188        3.15638
 }
 basis={ default,svp }
 {ks,VS99,direct;wf,50,1,0}
 {ibba,bonds=1}

 Variables initialized (895), CPU time= 0.00 sec
 Commands  initialized (725), CPU time= 0.02 sec, 591 directives.
 Default parameters read. Elapsed time= 0.08 sec

 Checking input...
 Passed
1


                                         ***  PROGRAM SYSTEM MOLPRO  ***
                                       Copyright, TTI GmbH Stuttgart, 2015
                                    Version 2099.9 linked May 26 2017 16:03:21


 **********************************************************************************************************************************
 LABEL *                                                                                 
  64 bit serial version                                                                  DATE: 09-Jun-17          TIME: 02:01:32  
 **********************************************************************************************************************************

 SHA1:             b4a5b34a9e711420743f49e6833241d17c61fb3c
 **********************************************************************************************************************************
 SETTING GEOMTYP        =    XYZ

 Variable memory set to  500000000 words,  buffer space 

 ZSYMEL=NOSYM

 SETTING BASIS          =    SVP


 Recomputing integrals since basis changed


 Using spherical harmonics

 Library entry C      S def2-SVP             selected for orbital group  1
 Library entry C      P def2-SVP             selected for orbital group  1
 Library entry C      D def2-SVP             selected for orbital group  1
 Library entry O      S def2-SVP             selected for orbital group  2
 Library entry O      P def2-SVP             selected for orbital group  2
 Library entry O      D def2-SVP             selected for orbital group  2
 Library entry H      S def2-SVP             selected for orbital group  4
 Library entry H      P def2-SVP             selected for orbital group  4


 PROGRAM * SEWARD (Integral evaluation for generally contracted gaussian basis sets)     Author: Roland Lindh, 1990

 Geometry written to block  1 of record 700


 Point group  C1  



 ATOMIC COORDINATES

 NR  ATOM    CHARGE       X              Y              Z

   1  C       6.00    0.000000000    0.000000000    0.000000000
   2  C       6.00    0.000000000    0.000000000    2.897082430
   3  O       8.00    2.652117232    0.000000000    3.520692051
   4  C       6.00    3.331851719    0.000000000    6.101679992
   5  H       1.00   -1.932981956    0.000000000   -0.740319107
   6  H       1.00    0.982563098   -1.674769778   -0.714599934
   7  H       1.00    0.982563098    1.674769778   -0.714599934
   8  H       1.00    5.398512901    0.000000000    6.149414474
   9  H       1.00    2.658995835   -1.685956957    7.114346427
  10  H       1.00    2.658995835    1.685956957    7.114346427
  11  C       6.00   -1.308673136   -2.394169616    3.897031009
  12  C       6.00   -1.308673136    2.394169616    3.897031009
  13  H       1.00   -0.290375316   -4.083471388    3.268886045
  14  H       1.00   -0.290375316    4.083471388    3.268886045
  15  H       1.00   -3.250536804   -2.504170574    3.187004212
  16  H       1.00   -3.250536804    2.504170574    3.187004212
  17  H       1.00   -1.405294833   -2.422402125    5.964693745
  18  H       1.00   -1.405294833    2.422402125    5.964693745

 Bond lengths in Bohr (Angstrom)

 1-2  2.897082430  1-5  2.069901355  1-6  2.069042560  1-7  2.069042560  2-3  2.724447609
     ( 1.533070000)     ( 1.095344626)     ( 1.094890171)     ( 1.094890171)     ( 1.441715587)

  2-11  2.905954351   2-12  2.905954351   3- 4  2.668995640   4- 8  2.067212379   4- 9  2.078624355
       ( 1.537764818)       ( 1.537764818)       ( 1.412371669)       ( 1.093921681)       ( 1.099960639)

  4-10  2.078624355  11-13  2.070081404  11-15  2.070524757  11-17  2.070111596  12-14  2.070081404
       ( 1.099960639)       ( 1.095439904)       ( 1.095674516)       ( 1.095455880)       ( 1.095439904)

 12-16  2.070524757  12-18  2.070111596
       ( 1.095674516)       ( 1.095455880)

 Bond angles

  1- 2- 3  103.23196371   1- 2-11  110.12706952   1- 2-12  110.12706952   2- 1- 5  110.95650426

  2- 1- 6  110.20481748   2- 1- 7  110.20481748   2- 3- 4  117.98647004   2-11-13  110.26679927

  2-11-15  110.37287188   2-11-17  112.08316935   2-12-14  110.26679927   2-12-16  110.37287188

  2-12-18  112.08316935   3- 2-11  111.07703285   3- 2-12  111.07703285   3- 4- 8  106.07765410

  3- 4- 9  112.87219182   3- 4-10  112.87219182   5- 1- 6  108.65976572   5- 1- 7  108.65976572

  6- 1- 7  108.08288210   8- 4- 9  108.20190897   8- 4-10  108.20190897   9- 4-10  108.40564999

 11- 2-12  110.95103964  13-11-15  108.29648994  13-11-17  108.35544687  14-12-16  108.29648994

 14-12-18  108.35544687  15-11-17  107.33851825  16-12-18  107.33851825

 NUCLEAR CHARGE:                   50
 NUMBER OF PRIMITIVE AOS:         234
 NUMBER OF SYMMETRY AOS:          228
 NUMBER OF CONTRACTIONS:          144   ( 144A   )
 NUMBER OF CORE ORBITALS:           6   (   6A   )
 NUMBER OF VALENCE ORBITALS:       36   (  36A   )


 NUCLEAR REPULSION ENERGY  270.15500869


 Eigenvalues of metric

         1 0.176E-02 0.508E-02 0.513E-02 0.102E-01 0.124E-01 0.215E-01 0.221E-01 0.252E-01


 Contracted 2-electron integrals neglected if value below      1.0D-11
 AO integral compression algorithm  1   Integral accuracy      1.0D-11

     186.384 MB (compressed) written to integral file ( 41.3%)


 NUMBER OF SORTED TWO-ELECTRON INTEGRALS:   54502020.     BUFFER LENGTH:  32768
 NUMBER OF SEGMENTS:   4  SEGMENT LENGTH:   15999503      RECORD LENGTH: 524288

 Memory used in sort:      16.56 MW

 SORT1 READ    56333432. AND WROTE    45703433. INTEGRALS IN    132 RECORDS. CPU TIME:     0.74 SEC, REAL TIME:     1.40 SEC
 SORT2 READ    45703433. AND WROTE    54502020. INTEGRALS IN    711 RECORDS. CPU TIME:     1.08 SEC, REAL TIME:     1.38 SEC

 FILE SIZES:   FILE 1:   217.4 MBYTE,  FILE 4:   553.7 MBYTE,   TOTAL:    771.1 MBYTE

 OPERATOR DM      FOR CENTER  0  COORDINATES:    0.000000    0.000000    0.000000


 **********************************************************************************************************************************
 DATASETS  * FILE   NREC   LENGTH (MB)   RECORD NAMES
              1      19      194.45       500      610      700      900      950      970     1000      129      960     1100   
                                          VAR    BASINP    GEOM    SYMINP    ZMAT    AOBASIS   BASIS     P2S    ABASIS      S 
                                         1400     1410     1200     1210     1080     1600     1650     1300     1700   
                                           T        V       H0       H01     AOSYM     SMH    MOLCAS    ERIS     OPER   

 PROGRAMS   *        TOTAL       INT
 CPU TIMES  *         7.10      6.96
 REAL TIME  *         8.98 SEC
 DISK USED  *       771.70 MB      
 **********************************************************************************************************************************

 Density functional group VS99=VSXC
 Functional: VSXC(Automatically generated (new) VSXC)                          Gradient terms: 2
 Use grid at  1800.2

 Functional: VSXC                      Factor:  1.0000

 Generated new metagrid on record  1800.2 with target accuracy 1.0D-06 and 66012 points in CPU time    1.9
 Computed new grid on record 1800.1 in CPU time    2.2
  228438 words reserved for DFT integration

 PROGRAM * RKS-SCF (Restricted closed shell Kohn-Sham)     Authors: W. Meyer, H.-J. Werner, P.J. Knowles, 1993

 NUMBER OF ELECTRONS:      25+   25-    SPACE SYMMETRY=1    SPIN SYMMETRY: Singlet 
 CONVERGENCE THRESHOLDS:    1.00E-05 (Density)    1.00E-06 (Energy)
 MAX. NUMBER OF ITERATIONS:       60
 INTERPOLATION TYPE:            DIIS
 INTERPOLATION STEPS:              2 (START)      1 (STEP)
 LEVEL SHIFTS:                  0.00 (CLOSED)  0.00 (OPEN) 



 Use fine grid record 1800.2 for energy threshold  1.0D-06
 Orbital guess generated from atomic densities. Full valence occupancy:   25

 Molecular orbital dump at record        2100.2

 Initial occupancy:  25

 ITERATION    DDIFF          GRAD             ENERGY        2-EL.EN.            DIPOLE MOMENTS         DIIS   ORB.
    1      0.000D+00      0.000D+00      -271.50978387    816.551545   -0.64453    0.00000    0.60405    0    start
    2      0.000D+00      0.746D-02      -271.38023423    779.456124    0.13325   -0.00000   -0.24851    1    diag
    3      0.209D-01      0.968D-02      -271.70031433    802.015438   -0.42294    0.00000    0.41155    2    diag
    4      0.137D-01      0.120D-02      -271.70373425    800.574398   -0.30392    0.00000    0.30004    3    diag
    5      0.148D-02      0.430D-03      -271.70415268    800.714829   -0.35856    0.00000    0.32075    4    diag
    6      0.434D-03      0.124D-03      -271.70418805    800.783783   -0.34266    0.00000    0.31660    5    diag
    7      0.133D-03      0.432D-04      -271.70419275    800.787777   -0.34419    0.00000    0.31879    6    diag
    8      0.387D-04      0.705D-05      -271.70419289    800.795275   -0.34494    0.00000    0.31938    7    diag
    9      0.790D-05      0.209D-05      -271.70419288    800.796887   -0.34450    0.00000    0.31868    0    orth

 Final occupancy:  25

 !RKS STATE 1.1 Energy               -271.704192879882
 Nuclear energy                       270.15500869
 One-electron energy                 -903.17451605
 Two-electron energy                  400.39844364
 Density functional                   -39.08312917     VSXC=-39.08312917
 Virial quotient                       -1.00882589
 !RKS STATE 1.1 Dipole moment          -0.34449781     0.00000000     0.31867610
 Dipole moment /Debye                  -0.87556875     0.00000000     0.80994081

 Orbital energies:

         1.1          2.1          3.1          4.1          5.1          6.1          7.1          8.1          9.1         10.1
    -18.820926   -10.019967    -9.998542    -9.949787    -9.949783    -9.944814    -0.952499    -0.737923    -0.637321    -0.633027

        11.1         12.1         13.1         14.1         15.1         16.1         17.1         18.1         19.1         20.1
     -0.610843    -0.493160    -0.432618    -0.408578    -0.405026    -0.377934    -0.361318    -0.348128    -0.331559    -0.323252

        21.1         22.1         23.1         24.1         25.1         26.1         27.1
     -0.314616    -0.293716    -0.293575    -0.242700    -0.193958     0.043397     0.076313

 HOMO     25.1    -0.193958 =      -5.2779eV
 LUMO     26.1     0.043397 =       1.1809eV
 LUMO-HOMO         0.237355 =       6.4587eV


 **********************************************************************************************************************************
 DATASETS  * FILE   NREC   LENGTH (MB)   RECORD NAMES
              1      20      196.57       500      610      700      900      950      970     1000      129      960     1100   
                                          VAR    BASINP    GEOM    SYMINP    ZMAT    AOBASIS   BASIS     P2S    ABASIS      S 
                                         1400     1410     1200     1210     1080     1600     1650     1300     1700     1800   
                                           T        V       H0       H01     AOSYM     SMH    MOLCAS    ERIS     OPER     GRID   

              2       5        3.48       700     1000      520     1800     2100   
                                         GEOM     BASIS   MCVARS    GRID      RKS  

 PROGRAMS   *        TOTAL        KS       INT
 CPU TIMES  *        68.06     60.95      6.96
 REAL TIME  *        70.92 SEC
 DISK USED  *       771.70 MB      
 **********************************************************************************************************************************


 PROGRAM * Intrinsic Basis Bonding Analysis (IBBA)          Author: G. Knizia

 Molecular orbitals read from record     2100.2  Type=RKS/CANONICAL (state 1.1)
 Fock matrix read from record            2100.2  Type=RKS/TOTAL (state 1.1)
 Orbital energies read from record       2100.2  Type=RKS/CANONICAL (state 1.1)
 Density matrix read from record         2100.2  Type=RKS/CHARGE (state 1.1)

 Number of core orbitals:           6 (   6 )
 Number of closed-shell orbitals:  19 (  19 )

 Basis set MINAO-AUTO-PP generated.      Number of basis functions:   42 

 Polarized AO type:                A = (O Ot + (1-O)(1-Ot)) P12
 Orthogonalization method:         Symmetric (Loewdin)
 Localization functional:          L = sum[A,i] <i|n_A|i>^4 -> max

 Localization group 1:  25 orbitals, occupancy  2.000
 Iterative localization: IB/PM,    7 iter; Final gradient 0.28E-08

 Bond order analysis:       [THRPRINT= 0.020]

   CEN ATOM   CEN ATOM     WIBERG.BO      RENORM.BO
     1   C  -   2   C       0.996958       0.995289
     1   C  -   5   H       0.963545       0.984886
     1   C  -   7   H       0.958701       0.979784
     1   C  -   6   H       0.958701       0.979784

     2   C  -   1   C       0.996958       0.995289
     2   C  -  12   C       0.992255       0.970875
     2   C  -  11   C       0.992255       0.970875
     2   C  -   3   O       0.920178       0.931604

     3   O  -   4   C       0.990346       1.016550
     3   O  -   2   C       0.920178       0.931604
     3   O  -   9   H       0.036287       0.021523
     3   O  -  10   H       0.036287       0.021523
     3   O  -  12   C       0.027974       0.014527
     3   O  -  11   C       0.027974       0.014527

     4   C  -   3   O       0.990346       1.016550
     4   C  -   8   H       0.955207       0.976426
     4   C  -   9   H       0.946876       0.931656
     4   C  -  10   H       0.946876       0.931656

     5   H  -   1   C       0.963545       0.984886

     6   H  -   1   C       0.958701       0.979784

     7   H  -   1   C       0.958701       0.979784

     8   H  -   4   C       0.955207       0.976426

     9   H  -   4   C       0.946876       0.931656
     9   H  -   3   O       0.036287       0.021523

    10   H  -   4   C       0.946876       0.931656
    10   H  -   3   O       0.036287       0.021523

    11   C  -   2   C       0.992255       0.970875
    11   C  -  17   H       0.961493       0.979372
    11   C  -  15   H       0.959609       0.985082
    11   C  -  13   H       0.959087       0.979708
    11   C  -   3   O       0.027974       0.014527

    12   C  -   2   C       0.992255       0.970875
    12   C  -  18   H       0.961493       0.979372
    12   C  -  16   H       0.959609       0.985082
    12   C  -  14   H       0.959087       0.979708
    12   C  -   3   O       0.027974       0.014527

    13   H  -  11   C       0.959087       0.979708

    14   H  -  12   C       0.959087       0.979708

    15   H  -  11   C       0.959609       0.985082

    16   H  -  12   C       0.959609       0.985082

    17   H  -  11   C       0.961493       0.979372

    18   H  -  12   C       0.961493       0.979372


 Valency analysis:

   CEN ATOM   TOT.VALENCE
     1   C       3.941898
     2   C       3.930622
     3   O       2.112950
     4   C       3.864557
     5   H       0.983790
     6   H       0.980858
     7   H       0.980858
     8   H       0.977164
     9   H       0.987911
    10   H       0.987911
    11   C       3.942075
    12   C       3.942075
    13   H       0.981178
    14   H       0.981178
    15   H       0.981648
    16   H       0.981648
    17   H       0.983759
    18   H       0.983759

 Total charge composition:

   CEN ATOM         s          p       ELECTRONS ->P.CHARGE
     1   C       3.04172    3.35980      6.40152   -0.40152
     2   C       2.93489    2.80078      5.73567    0.26433
     3   O       3.61303    4.79671      8.40974   -0.40974
     4   C       3.02681    3.15979      6.18660   -0.18660
     5   H       0.87268                 0.87268    0.12732
     6   H       0.86164                 0.86164    0.13836
     7   H       0.86164                 0.86164    0.13836
     8   H       0.84889                 0.84889    0.15111
     9   H       0.89005                 0.89005    0.10995
    10   H       0.89005                 0.89005    0.10995
    11   C       3.04178    3.37908      6.42086   -0.42086
    12   C       3.04178    3.37908      6.42086   -0.42086
    13   H       0.86281                 0.86281    0.13719
    14   H       0.86281                 0.86281    0.13719
    15   H       0.86453                 0.86453    0.13547
    16   H       0.86453                 0.86453    0.13547
    17   H       0.87256                 0.87256    0.12744
    18   H       0.87256                 0.87256    0.12744

 Total charge composition, AO contributions:

   CEN ATOM SHL      SPHERICAL COMPONENTS
     1   C  1s       1.99095
     1   C  2s       1.05077
     1   C  2p       1.15277    1.16660    1.04043

     2   C  1s       1.99269
     2   C  2s       0.94221
     2   C  2p       0.78440    1.00876    1.00762

     3   O  1s       1.99733
     3   O  2s       1.61570
     3   O  2p       1.44184    1.90345    1.45142

     4   C  1s       1.99161
     4   C  2s       1.03520
     4   C  2p       1.15612    1.16402    0.83965

     5   H  1s       0.87268

     6   H  1s       0.86164

     7   H  1s       0.86164

     8   H  1s       0.84889

     9   H  1s       0.89005

    10   H  1s       0.89005

    11   C  1s       1.99099
    11   C  2s       1.05078
    11   C  2p       1.13907    1.09430    1.14571

    12   C  1s       1.99099
    12   C  2s       1.05078
    12   C  2p       1.13907    1.09430    1.14571

    13   H  1s       0.86281

    14   H  1s       0.86281

    15   H  1s       0.86453

    16   H  1s       0.86453

    17   H  1s       0.87256

    18   H  1s       0.87256

 Summary of localized orbital composition:   [THRPRINT= 0.020]

   ORB  GRP  ORB.ENERGY      CENTERS/CHARGES
     1   1   -18.678222      O  3   2.000
     2   1    -9.929861      C  2   2.000
     3   1    -9.889340      C  4   2.000
     4   1    -9.835729      C 12   2.000
     5   1    -9.835729      C 11   2.000
     6   1    -9.830089      C  1   2.000
     7   1    -0.698534      O  3   1.257   C  4   0.735
     8   1    -0.673375      O  3   1.286   C  2   0.687   (other: 0.027)
     9   1    -0.522462      C 11   1.011   C  2   0.972
    10   1    -0.522462      C 12   1.011   C  2   0.972
    11   1    -0.519372      C  1   0.994   C  2   0.982   (other: 0.024)
    12   1    -0.481335      O  3   1.958   (other: 0.042)
    13   1    -0.465828      C  4   1.130   H 10   0.868
    14   1    -0.465828      C  4   1.130   H  9   0.868
    15   1    -0.463282      C  4   1.149   H  8   0.842
    16   1    -0.451985      C 11   1.128   H 15   0.856
    17   1    -0.451985      C 12   1.128   H 16   0.856
    18   1    -0.449650      C 12   1.125   H 18   0.864
    19   1    -0.449650      C 11   1.125   H 17   0.864
    20   1    -0.447896      C  1   1.121   H  5   0.865
    21   1    -0.446264      C 11   1.134   H 13   0.854
    22   1    -0.446264      C 12   1.134   H 14   0.854
    23   1    -0.441009      C  1   1.135   H  7   0.853
    24   1    -0.441009      C  1   1.135   H  6   0.853
    25   1    -0.238411      O  3   1.903   C  2   0.020   C  4   0.020   (other: 0.056)

 Localized orbitals saved to record      2100.2  (orbital set 2)


 **********************************************************************************************************************************
 DATASETS  * FILE   NREC   LENGTH (MB)   RECORD NAMES
              1      20      196.57       500      610      700      900      950      970     1000      129      960     1100   
                                          VAR    BASINP    GEOM    SYMINP    ZMAT    AOBASIS   BASIS     P2S    ABASIS      S 
                                         1400     1410     1200     1210     1080     1600     1650     1300     1700     1800   
                                           T        V       H0       H01     AOSYM     SMH    MOLCAS    ERIS     OPER     GRID   

              2       5        3.65       700     1000      520     1800     2100   
                                         GEOM     BASIS   MCVARS    GRID      RKS  

 PROGRAMS   *        TOTAL      IBBA        KS       INT
 CPU TIMES  *        68.12      0.07     60.95      6.96
 REAL TIME  *        71.07 SEC
 DISK USED  *       771.70 MB      
 **********************************************************************************************************************************
 Molecular orbitals read from record     2100.2  Type=RKS/LOCAL(IBO)  
 Occupation numbers read from record     2100.2  Type=RKS/LOCAL(IBO)  
 Orbital energies read from record       2100.2  Type=RKS/LOCAL(IBO)  
 Redundancy group numbers read from rec  2100.2  Type=RKS/LOCAL(IBO)  

 IBBA/SVP energy=      0.000000000000

        KS-SCF  
   -271.70419288
 **********************************************************************************************************************************
 Molpro calculation terminated
