
 Primary working directories    : /tmp/sb13343
 Secondary working directories  : /tmp/sb13343
 Wavefunction directory         : /panfs/panasas01/chem/sb13343/wfu/
 Main file repository           : /tmp/sb13343/

 SHA1      : b4a5b34a9e711420743f49e6833241d17c61fb3c
 NAME      : 2099.9.b4a5b34
 ARCHNAME  : linux/x86_64_openmp
 FC        : /cm/shared/languages/GCC-6.1/bin/gfortran
 BLASLIB   : -lblas
 id        : simonbennie

 Nodes     nprocs
 node32-007    1

 Using customized tuning parameters: mindgm=1; mindgv=20; mindgc=4; mindgr=1; noblas=0; minvec=7
 default implementation of scratch files=df  

 memory,500,m
 geomtyp=xyz
 nosym
 noorient
 geometry={
 C         -1.53233        0.02247        0.00000
 C         -0.00192        0.01421        0.00000
 O          0.37239        1.40356        0.00000
 H          1.34248        1.44036        0.00000
 H         -1.92991       -0.99819        0.00000
 H         -1.90797        0.54382       -0.88653
 H         -1.90797        0.54382        0.88653
 C          0.54303       -0.66466       -1.26580
 C          0.54303       -0.66466        1.26580
 H          0.17836       -0.14752       -2.15943
 H          0.17836       -0.14752        2.15943
 H          0.23752       -1.71600       -1.32280
 H          0.23752       -1.71600        1.32280
 H          1.64084       -0.63767       -1.28032
 H          1.64084       -0.63767        1.28032
 }
 basis={ default,sto-3g }
 {uks,S-VWN,direct;wf,42,1,0}
 {ibba,bonds=1}

 Variables initialized (895), CPU time= 0.00 sec
 Commands  initialized (725), CPU time= 0.02 sec, 591 directives.
 Default parameters read. Elapsed time= 0.09 sec

 Checking input...
 Passed
1


                                         ***  PROGRAM SYSTEM MOLPRO  ***
                                       Copyright, TTI GmbH Stuttgart, 2015
                                    Version 2099.9 linked May 26 2017 16:03:21


 **********************************************************************************************************************************
 LABEL *                                                                                 
  64 bit serial version                                                                  DATE: 09-Jun-17          TIME: 03:29:45  
 **********************************************************************************************************************************

 SHA1:             b4a5b34a9e711420743f49e6833241d17c61fb3c
 **********************************************************************************************************************************
 SETTING GEOMTYP        =    XYZ

 Variable memory set to  500000000 words,  buffer space 

 ZSYMEL=NOSYM

 SETTING BASIS          =    STO-3G


 Recomputing integrals since basis changed


 Using spherical harmonics

 Library entry C      S STO-3G               selected for orbital group  1
 Library entry C      P STO-3G               selected for orbital group  1
 Library entry O      S STO-3G               selected for orbital group  2
 Library entry O      P STO-3G               selected for orbital group  2
 Library entry H      S STO-3G               selected for orbital group  3


 PROGRAM * SEWARD (Integral evaluation for generally contracted gaussian basis sets)     Author: Roland Lindh, 1990

 Geometry written to block  1 of record 700


 Point group  C1  



 ATOMIC COORDINATES

 NR  ATOM    CHARGE       X              Y              Z

   1  C       6.00   -2.895684032    0.042462146    0.000000000
   2  C       6.00   -0.003628274    0.026853008    0.000000000
   3  O       8.00    0.703715112    2.652343999    0.000000000
   4  H       1.00    2.536919528    2.721885921    0.000000000
   5  H       1.00   -3.647001345   -1.886305720    0.000000000
   6  H       1.00   -3.605540754    1.027670861   -1.675298901
   7  H       1.00   -3.605540754    1.027670861    1.675298901
   8  C       6.00    1.026177977   -1.256025366   -2.392015328
   9  C       6.00    1.026177977   -1.256025366    2.392015328
  10  H       1.00    0.337051552   -0.278772398   -4.080731285
  11  H       1.00    0.337051552   -0.278772398    4.080731285
  12  H       1.00    0.448847749   -3.242770030   -2.499729718
  13  H       1.00    0.448847749   -3.242770030    2.499729718
  14  H       1.00    3.100738214   -1.205021658   -2.419454152
  15  H       1.00    3.100738214   -1.205021658    2.419454152

 Bond lengths in Bohr (Angstrom)

 1-2  2.892097881  1-5  2.069933136  1-6  2.069096224  1-7  2.069096224  2-3  2.719106031
     ( 1.530432290)     ( 1.095361444)     ( 1.094918569)     ( 1.094918569)     ( 1.438888946)

  2- 8  2.903104402   2- 9  2.903104402   3- 4  1.834522965   8-10  2.069222119   8-12  2.071730422
       ( 1.536256691)       ( 1.536256691)       ( 0.970787746)       ( 1.094985190)       ( 1.096312526)

  8-14  2.075368508   9-11  2.069222119   9-13  2.071730422   9-15  2.075368508
       ( 1.098237719)       ( 1.094985190)       ( 1.096312526)       ( 1.098237719)

 Bond angles

  1-2-3  104.76902697   1-2-8  110.92255387   1-2-9  110.92255387   2-1-5  110.97328220

  2- 1- 6  110.22090701   2- 1- 7  110.22090701   2- 3- 4  107.25071562   2- 8-10  110.21836376

  2- 8-12  111.57747468   2- 8-14  110.77023896   2- 9-11  110.21836376   2- 9-13  111.57747468

  2- 9-15  110.77023896   3- 2- 8  109.53648747   3- 2- 9  109.53648747   5- 1- 6  108.61190457

  5- 1- 7  108.61190457   6- 1- 7  108.12870271   8- 2- 9  110.96453384  10- 8-12  108.52192632

 10- 8-14  108.08997829  11- 9-13  108.52192632  11- 9-15  108.08997829  12- 8-14  107.54424578

 13- 9-15  107.54424578

 NUCLEAR CHARGE:                   42
 NUMBER OF PRIMITIVE AOS:         105
 NUMBER OF SYMMETRY AOS:          105
 NUMBER OF CONTRACTIONS:           35   (  35A   )
 NUMBER OF CORE ORBITALS:           5   (   5A   )
 NUMBER OF VALENCE ORBITALS:       30   (  30A   )


 NUCLEAR REPULSION ENERGY  198.77359127


 Eigenvalues of metric

         1 0.207E+00 0.227E+00 0.228E+00 0.304E+00 0.354E+00 0.360E+00 0.361E+00 0.363E+00


 Contracted 2-electron integrals neglected if value below      1.0D-11
 AO integral compression algorithm  1   Integral accuracy      1.0D-11

     1.573 MB (compressed) written to integral file ( 87.8%)


 NUMBER OF SORTED TWO-ELECTRON INTEGRALS:     198765.     BUFFER LENGTH:  32768
 NUMBER OF SEGMENTS:   1  SEGMENT LENGTH:     198765      RECORD LENGTH: 524288

 Memory used in sort:       0.76 MW

 SORT1 READ      224962. AND WROTE      188577. INTEGRALS IN      1 RECORDS. CPU TIME:     0.00 SEC, REAL TIME:     0.01 SEC
 SORT2 READ      188577. AND WROTE      198765. INTEGRALS IN      6 RECORDS. CPU TIME:     0.02 SEC, REAL TIME:     0.03 SEC

 FILE SIZES:   FILE 1:    31.8 MBYTE,  FILE 4:     4.2 MBYTE,   TOTAL:     36.0 MBYTE

 OPERATOR DM      FOR CENTER  0  COORDINATES:    0.000000    0.000000    0.000000


 **********************************************************************************************************************************
 DATASETS  * FILE   NREC   LENGTH (MB)   RECORD NAMES
              1      19       31.10       500      610      700      900      950      970     1000      129      960     1100   
                                          VAR    BASINP    GEOM    SYMINP    ZMAT    AOBASIS   BASIS     P2S    ABASIS      S 
                                         1400     1410     1200     1210     1080     1600     1650     1300     1700   
                                           T        V       H0       H01     AOSYM     SMH    MOLCAS    ERIS     OPER   

 PROGRAMS   *        TOTAL       INT
 CPU TIMES  *         0.66      0.51
 REAL TIME  *         4.56 SEC
 DISK USED  *        36.55 MB      
 **********************************************************************************************************************************

 Density functional group S-VWN=DIRAC+VWN5
 Functional: DIRAC(Automatically generated (new) DIRAC)                        Gradient terms: 0
 Functional: VWN5(Automatically generated (new) VWN5)                          Gradient terms: 0
 Use grid at  1800.2

 Functional: DIRAC                     Factor:  1.0000
 Functional: VWN5                      Factor:  1.0000

 Generated new metagrid on record  1800.2 with target accuracy 1.0D-06 and 53396 points in CPU time    1.7
 Computed new grid on record 1800.1 in CPU time    1.9
   19034 words reserved for DFT integration

 PROGRAM * UKS-SCF (Unrestricted Kohn-Sham)     Authors: W. Meyer, H.-J. Werner, P.J. Knowles, 1993

 NUMBER OF ELECTRONS:      21+   21-    SPACE SYMMETRY=1    SPIN SYMMETRY: Singlet 
 CONVERGENCE THRESHOLDS:    1.00E-05 (Density)    1.00E-06 (Energy)
 MAX. NUMBER OF ITERATIONS:       60
 INTERPOLATION TYPE:            DIIS
 INTERPOLATION STEPS:              2 (START)      1 (STEP)
 LEVEL SHIFTS:                 -0.20 (ALPHA)  -0.20 (BETA) 



 Use fine grid record 1800.2 for energy threshold  1.0D-06
 Orbital guess generated from atomic densities. Full valence occupancy:   21

 Molecular orbital dump at record        2200.2

 Initial alpha occupation  21
 Initial beta  occupation  21

 ITERATION    DDIFF          GRAD             ENERGY        2-EL.EN.            DIPOLE MOMENTS         DIIS
    1      0.000D+00      0.000D+00      -228.26865991    641.764546    0.77997   -1.07720    0.00000    0
    2      0.658D-01      0.212D-01      -228.63568300    621.213626    0.23479   -0.35628    0.00000    1
    3      0.124D-01      0.507D-02      -228.65477904    624.572674    0.32907   -0.37912    0.00000    2
    4      0.115D-02      0.481D-03      -228.65500700    624.539675    0.33771   -0.39137    0.00000    3
    5      0.594D-03      0.151D-03      -228.65504441    624.530384    0.33731   -0.38240    0.00000    4
    6      0.175D-03      0.368D-04      -228.65504713    624.528519    0.33769   -0.38209    0.00000    5
    7      0.385D-04      0.895D-05      -228.65504720    624.529232    0.33735   -0.38164    0.00000    5
    8      0.143D-04      0.605D-05      -228.65504723    624.528629    0.33743   -0.38179    0.00000    6
    9      0.215D-05      0.487D-06      -228.65504723    624.528710    0.33744   -0.38178    0.00000    6
   10      0.756D-06      0.260D-06      -228.65504723    624.528676    0.33744   -0.38178    0.00000    6

 Final alpha occupancy:  21
 Final beta  occupancy:  21

 !UKS STATE 1.1 Energy               -228.655047230561
 Nuclear energy                       198.77359127
 One-electron energy                 -707.63025248
 Two-electron energy                  312.26433792
 Density functional                   -32.06272395     DIRAC=-29.39515193 VWN5= -2.66757202
 Virial quotient                       -1.00741033
 !UKS STATE 1.1 Dipole moment           0.33743509    -0.38178282     0.00000000
 Dipole moment /Debye                   0.85761827    -0.97033158     0.00000000

 Orbital energies for positive spin:

         1.1          2.1          3.1          4.1          5.1          6.1          7.1          8.1          9.1         10.1
    -18.291619    -9.641102    -9.574236    -9.574148    -9.573761    -0.844100    -0.654956    -0.572727    -0.571661    -0.446967

        11.1         12.1         13.1         14.1         15.1         16.1         17.1         18.1         19.1         20.1
     -0.376370    -0.347580    -0.346753    -0.303676    -0.298921    -0.275528    -0.272746    -0.244365    -0.241917    -0.138986

        21.1         22.1         23.1
     -0.053245     0.260565     0.321215

 Orbital energies for negative spin:

         1.1          2.1          3.1          4.1          5.1          6.1          7.1          8.1          9.1         10.1
    -18.291619    -9.641102    -9.574236    -9.574148    -9.573761    -0.844100    -0.654956    -0.572727    -0.571661    -0.446967

        11.1         12.1         13.1         14.1         15.1         16.1         17.1         18.1         19.1         20.1
     -0.376370    -0.347580    -0.346753    -0.303676    -0.298921    -0.275528    -0.272746    -0.244365    -0.241917    -0.138986

        21.1         22.1         23.1
     -0.053245     0.260565     0.321215

 HOMO     21.1    -0.053245 =      -1.4489eV
 LUMO     22.1     0.260565 =       7.0903eV
 LUMO-HOMO         0.313809 =       8.5392eV

 EXPECTATION VALUE OF S**2:             0.00000000

 Natural orbitals saved to record    2200.2 (Orbital set 3)

 Orbital spaces for UNO-CAS (Min. occupation: 0.020  Max. occupation: 1.980):

 Closed:       21
 Active:        0


 **********************************************************************************************************************************
 DATASETS  * FILE   NREC   LENGTH (MB)   RECORD NAMES
              1      20       32.81       500      610      700      900      950      970     1000      129      960     1100   
                                          VAR    BASINP    GEOM    SYMINP    ZMAT    AOBASIS   BASIS     P2S    ABASIS      S 
                                         1400     1410     1200     1210     1080     1600     1650     1300     1700     1800   
                                           T        V       H0       H01     AOSYM     SMH    MOLCAS    ERIS     OPER     GRID   

              2       5        3.05       700     1000      520     1800     2200   
                                         GEOM     BASIS   MCVARS    GRID      UKS  

 PROGRAMS   *        TOTAL       UKS       INT
 CPU TIMES  *         5.49      4.83      0.51
 REAL TIME  *        10.42 SEC
 DISK USED  *        36.55 MB      
 **********************************************************************************************************************************


 PROGRAM * Intrinsic Basis Bonding Analysis (IBBA)          Author: G. Knizia

 Molecular orbitals read from record     2200.2  Type=UKS/ALPHA (state 1.1)
 Fock matrix read from record            2200.2  Type=UKS/TOTAL (state 1.1)
 Orbital energies read from record       2200.2  Type=UKS/ALPHA (state 1.1)
 Density matrix read from record         2200.2  Type=UKS/CHARGE (state 1.1)

 Number of core orbitals:           5 (   5 )
 Number of closed-shell orbitals:  16 (  16 )

 Basis set MINAO-AUTO-PP generated.      Number of basis functions:   35 

 Polarized AO type:                A = (O Ot + (1-O)(1-Ot)) P12
 Orthogonalization method:         Symmetric (Loewdin)
 Localization functional:          L = sum[A,i] <i|n_A|i>^4 -> max

 Localization group 1:  21 orbitals, occupancy  2.000
 Iterative localization: IB/PM,    7 iter; Final gradient 0.26E-08

 Bond order analysis:       [THRPRINT= 0.020]

   CEN ATOM   CEN ATOM     WIBERG.BO      RENORM.BO
     1   C  -   2   C       0.988721       0.983003
     1   C  -   5   H       0.961241       0.989828
     1   C  -   6   H       0.957727       0.986819
     1   C  -   7   H       0.957727       0.986819

     2   C  -   3   O       1.006812       0.978670
     2   C  -   1   C       0.988721       0.983003
     2   C  -   8   C       0.983502       0.955515
     2   C  -   9   C       0.983502       0.955515

     3   O  -   2   C       1.006812       0.978670
     3   O  -   4   H       0.925797       0.980815
     3   O  -   9   C       0.031417       0.016336
     3   O  -   8   C       0.031417       0.016336

     4   H  -   3   O       0.925797       0.980815

     5   H  -   1   C       0.961241       0.989828

     6   H  -   1   C       0.957727       0.986819

     7   H  -   1   C       0.957727       0.986819

     8   C  -   2   C       0.983502       0.955515
     8   C  -  14   H       0.960803       0.985900
     8   C  -  12   H       0.958821       0.987124
     8   C  -  10   H       0.958644       0.986453
     8   C  -   3   O       0.031417       0.016336

     9   C  -   2   C       0.983502       0.955515
     9   C  -  15   H       0.960803       0.985900
     9   C  -  13   H       0.958821       0.987124
     9   C  -  11   H       0.958644       0.986453
     9   C  -   3   O       0.031417       0.016336

    10   H  -   8   C       0.958644       0.986453

    11   H  -   9   C       0.958644       0.986453

    12   H  -   8   C       0.958821       0.987124

    13   H  -   9   C       0.958821       0.987124

    14   H  -   8   C       0.960803       0.985900

    15   H  -   9   C       0.960803       0.985900


 Valency analysis:

   CEN ATOM   TOT.VALENCE
     1   C       3.918882
     2   C       3.974597
     3   O       2.049913
     4   H       0.944009
     5   H       0.979103
     6   H       0.977411
     7   H       0.977411
     8   C       3.921988
     9   C       3.921988
    10   H       0.978087
    11   H       0.978087
    12   H       0.978610
    13   H       0.978610
    14   H       0.980755
    15   H       0.980755

 Total charge composition:

   CEN ATOM         s          p       ELECTRONS ->P.CHARGE
     1   C       2.99533    3.43660      6.43193   -0.43193
     2   C       2.93835    2.95650      5.89486    0.10514
     3   O       3.67810    4.65144      8.32954   -0.32954
     4   H       0.76337                 0.76337    0.23663
     5   H       0.85544                 0.85544    0.14456
     6   H       0.84970                 0.84970    0.15030
     7   H       0.84970                 0.84970    0.15030
     8   C       3.00047    3.44527      6.44574   -0.44574
     9   C       3.00047    3.44527      6.44574   -0.44574
    10   H       0.85197                 0.85197    0.14803
    11   H       0.85197                 0.85197    0.14803
    12   H       0.85375                 0.85375    0.14625
    13   H       0.85375                 0.85375    0.14625
    14   H       0.86127                 0.86127    0.13873
    15   H       0.86127                 0.86127    0.13873

 Total charge composition, AO contributions:

   CEN ATOM SHL      SPHERICAL COMPONENTS
     1   C  1s       1.99279
     1   C  2s       1.00253
     1   C  2p       1.05853    1.18511    1.19296

     2   C  1s       1.99411
     2   C  2s       0.94424
     2   C  2p       1.03664    0.88528    1.03458

     3   O  1s       1.99753
     3   O  2s       1.68057
     3   O  2p       1.35798    1.34480    1.94866

     4   H  1s       0.76337

     5   H  1s       0.85544

     6   H  1s       0.84970

     7   H  1s       0.84970

     8   C  1s       1.99289
     8   C  2s       1.00758
     8   C  2p       1.16598    1.16665    1.11264

     9   C  1s       1.99289
     9   C  2s       1.00758
     9   C  2p       1.16598    1.16665    1.11264

    10   H  1s       0.85197

    11   H  1s       0.85197

    12   H  1s       0.85375

    13   H  1s       0.85375

    14   H  1s       0.86127

    15   H  1s       0.86127

 Summary of localized orbital composition:   [THRPRINT= 0.020]

   ORB  GRP  ORB.ENERGY      CENTERS/CHARGES
     1   1   -18.129857      O  3   2.000
     2   1    -9.551751      C  2   2.000
     3   1    -9.467210      C  9   2.000
     4   1    -9.467210      C  8   2.000
     5   1    -9.465932      C  1   2.000
     6   1    -0.587769      O  3   1.235   H  4   0.755
     7   1    -0.544142      O  3   1.155   C  2   0.828
     8   1    -0.457929      C  2   0.995   C  1   0.981   (other: 0.024)
     9   1    -0.457853      C  8   0.996   C  2   0.988
    10   1    -0.457853      C  9   0.996   C  2   0.988
    11   1    -0.403336      C  9   1.136   H 15   0.854
    12   1    -0.403336      C  8   1.136   H 14   0.854
    13   1    -0.401234      C  8   1.144   H 12   0.845
    14   1    -0.401234      C  9   1.144   H 13   0.845
    15   1    -0.399477      C  1   1.141   H  5   0.848
    16   1    -0.398165      C  9   1.146   H 11   0.844
    17   1    -0.398165      C  8   1.146   H 10   0.844
    18   1    -0.395516      O  3   1.984
    19   1    -0.393374      C  1   1.148   H  7   0.842
    20   1    -0.393374      C  1   1.148   H  6   0.842
    21   1    -0.070648      O  3   1.949   C  2   0.024   (other: 0.028)

 Localized orbitals saved to record      2200.2  (orbital set 4)


 **********************************************************************************************************************************
 DATASETS  * FILE   NREC   LENGTH (MB)   RECORD NAMES
              1      20       32.81       500      610      700      900      950      970     1000      129      960     1100   
                                          VAR    BASINP    GEOM    SYMINP    ZMAT    AOBASIS   BASIS     P2S    ABASIS      S 
                                         1400     1410     1200     1210     1080     1600     1650     1300     1700     1800   
                                           T        V       H0       H01     AOSYM     SMH    MOLCAS    ERIS     OPER     GRID   

              2       5        3.06       700     1000      520     1800     2200   
                                         GEOM     BASIS   MCVARS    GRID      UKS  

 PROGRAMS   *        TOTAL      IBBA       UKS       INT
 CPU TIMES  *         5.52      0.03      4.83      0.51
 REAL TIME  *        10.55 SEC
 DISK USED  *        36.55 MB      
 **********************************************************************************************************************************
 Molecular orbitals read from record     2200.2  Type=UKS/LOCAL(IBO)  
 Occupation numbers read from record     2200.2  Type=UKS/LOCAL(IBO)  
 Orbital energies read from record       2200.2  Type=UKS/LOCAL(IBO)  
 Redundancy group numbers read from rec  2200.2  Type=UKS/BETA (state 1.1)

 IBBA/STO-3G energy=      0.000000000000

        UKS-SCF 
   -228.65504723
 **********************************************************************************************************************************
 Molpro calculation terminated
