
 Primary working directories    : /tmp/sb13343
 Secondary working directories  : /tmp/sb13343
 Wavefunction directory         : /panfs/panasas01/chem/sb13343/wfu/
 Main file repository           : /tmp/sb13343/

 SHA1      : b4a5b34a9e711420743f49e6833241d17c61fb3c
 NAME      : 2099.9.b4a5b34
 ARCHNAME  : linux/x86_64_openmp
 FC        : /cm/shared/languages/GCC-6.1/bin/gfortran
 BLASLIB   : -lblas
 id        : simonbennie

 Nodes     nprocs
 node32-028    1

 Using customized tuning parameters: mindgm=1; mindgv=20; mindgc=4; mindgr=1; noblas=0; minvec=7
 default implementation of scratch files=df  

 memory,500,m
 geomtyp=xyz
 nosym
 noorient
 geometry={
 H         -1.13405        1.76167        0.00000
 C         -1.32915        0.67205        0.00000
 C         -0.06360       -0.12883        0.00000
 C          0.67426       -0.31636        1.28970
 C          0.67426       -0.31636       -1.28970
 H         -1.94006        0.46750        0.88859
 H         -1.94006        0.46750       -0.88859
 H          1.28359        0.56876        1.55544
 H         -0.01165       -0.48291        2.13019
 H          1.36783       -1.16569        1.24157
 H          1.28359        0.56876       -1.55544
 H         -0.01165       -0.48291       -2.13019
 H          1.36783       -1.16569       -1.24157
 }
 basis={ default,svp }
 {ks,PBEREV,direct;wf,33,1,1}
 {ibba,bonds=1}

 Variables initialized (895), CPU time= 0.01 sec
 Commands  initialized (725), CPU time= 0.01 sec, 591 directives.
 Default parameters read. Elapsed time= 0.08 sec

 Checking input...
 Passed
1


                                         ***  PROGRAM SYSTEM MOLPRO  ***
                                       Copyright, TTI GmbH Stuttgart, 2015
                                    Version 2099.9 linked May 26 2017 16:03:21


 **********************************************************************************************************************************
 LABEL *                                                                                 
  64 bit serial version                                                                  DATE: 08-Jun-17          TIME: 20:43:37  
 **********************************************************************************************************************************

 SHA1:             b4a5b34a9e711420743f49e6833241d17c61fb3c
 **********************************************************************************************************************************
 SETTING GEOMTYP        =    XYZ

 Variable memory set to  500000000 words,  buffer space 

 ZSYMEL=NOSYM

 SETTING BASIS          =    SVP


 Recomputing integrals since basis changed


 Using spherical harmonics

 Library entry H      S def2-SVP             selected for orbital group  1
 Library entry H      P def2-SVP             selected for orbital group  1
 Library entry C      S def2-SVP             selected for orbital group  2
 Library entry C      P def2-SVP             selected for orbital group  2
 Library entry C      D def2-SVP             selected for orbital group  2


 PROGRAM * SEWARD (Integral evaluation for generally contracted gaussian basis sets)     Author: Roland Lindh, 1990

 Geometry written to block  1 of record 700


 Point group  C1  



 ATOMIC COORDINATES

 NR  ATOM    CHARGE       X              Y              Z

   1  H       1.00   -2.143043912    3.329073822    0.000000000
   2  C       6.00   -2.511729478    1.269990442    0.000000000
   3  C       6.00   -0.120186582   -0.243453417    0.000000000
   4  C       6.00    1.274166737   -0.597833757    2.437179783
   5  C       6.00    1.274166737   -0.597833757   -2.437179783
   6  H       1.00   -3.666182065    0.883446963    1.679191737
   7  H       1.00   -3.666182065    0.883446963   -1.679191737
   8  H       1.00    2.425633556    1.074800631    2.939355603
   9  H       1.00   -0.022015309   -0.912567643    4.025475693
  10  H       1.00    2.584824085   -2.202834846    2.346227264
  11  H       1.00    2.425633556    1.074800631   -2.939355603
  12  H       1.00   -0.022015309   -0.912567643   -4.025475693
  13  H       1.00    2.584824085   -2.202834846   -2.346227264

 Bond lengths in Bohr (Angstrom)

 1-2  2.091830159  2-3  2.830192527  2-6  2.074092940  2-7  2.074092940  3-4  2.830132841
     ( 1.106948849)     ( 1.497673388)     ( 1.097562717)     ( 1.097562717)     ( 1.497641803)

  3- 5  2.830132841   4- 8  2.091832255   4- 9  2.074085151   4-10  2.074156104   5-11  2.091832255
       ( 1.497641803)       ( 1.106949959)       ( 1.097558596)       ( 1.097596142)       ( 1.106949959)

  5-12  2.074085151   5-13  2.074156104
       ( 1.097558596)       ( 1.097596142)

 Bond angles

  1-2-3  112.17549786   1-2-6  106.35284965   1-2-7  106.35284965   2-3-4  118.89987932

  2-3-5  118.89987932   3-2-6  111.75744418   3-2-7  111.75744418   3-4-8  112.19808176

  3- 4- 9  111.75014522   3- 4-10  111.74379558   3- 5-11  112.19808176   3- 5-12  111.75014522

  3- 5-13  111.74379558   4- 3- 5  118.89276928   6- 2- 7  108.11431090   8- 4- 9  106.34995457

  8- 4-10  106.34572146   9- 4-10  108.12296896  11- 5-12  106.34995457  11- 5-13  106.34572146

 12- 5-13  108.12296896

 NUCLEAR CHARGE:                   33
 NUMBER OF PRIMITIVE AOS:         163
 NUMBER OF SYMMETRY AOS:          159
 NUMBER OF CONTRACTIONS:          101   ( 101A   )
 NUMBER OF CORE ORBITALS:           4   (   4A   )
 NUMBER OF VALENCE ORBITALS:       25   (  25A   )


 NUCLEAR REPULSION ENERGY  124.92676597


 Eigenvalues of metric

         1 0.371E-02 0.424E-02 0.424E-02 0.242E-01 0.242E-01 0.268E-01 0.277E-01 0.371E-01


 Contracted 2-electron integrals neglected if value below      1.0D-11
 AO integral compression algorithm  1   Integral accuracy      1.0D-11

     53.477 MB (compressed) written to integral file ( 46.4%)


 NUMBER OF SORTED TWO-ELECTRON INTEGRALS:   13268976.     BUFFER LENGTH:  32768
 NUMBER OF SEGMENTS:   1  SEGMENT LENGTH:   13268976      RECORD LENGTH: 524288

 Memory used in sort:      13.83 MW

 SORT1 READ    14422061. AND WROTE    12225547. INTEGRALS IN     35 RECORDS. CPU TIME:     0.15 SEC, REAL TIME:     0.33 SEC
 SORT2 READ    12225547. AND WROTE    13268976. INTEGRALS IN    204 RECORDS. CPU TIME:     0.32 SEC, REAL TIME:     0.41 SEC

 FILE SIZES:   FILE 1:    84.0 MBYTE,  FILE 4:   146.8 MBYTE,   TOTAL:    230.9 MBYTE

 OPERATOR DM      FOR CENTER  0  COORDINATES:    0.000000    0.000000    0.000000


 **********************************************************************************************************************************
 DATASETS  * FILE   NREC   LENGTH (MB)   RECORD NAMES
              1      19       77.16       500      610      700      900      950      970     1000      129      960     1100   
                                          VAR    BASINP    GEOM    SYMINP    ZMAT    AOBASIS   BASIS     P2S    ABASIS      S 
                                         1400     1410     1200     1210     1080     1600     1650     1300     1700   
                                           T        V       H0       H01     AOSYM     SMH    MOLCAS    ERIS     OPER   

 PROGRAMS   *        TOTAL       INT
 CPU TIMES  *         2.16      2.02
 REAL TIME  *         2.83 SEC
 DISK USED  *       231.35 MB      
 **********************************************************************************************************************************

 Density functional group PBEREV=PBEXREV+PBEC
 Functional: PBEXREV(Automatically generated (new) PBEXREV)                    Gradient terms: 1
 Functional: PBEC(Automatically generated (new) PBEC)                          Gradient terms: 1
 Use grid at  1800.2

 Functional: PBEXREV                   Factor:  1.0000
 Functional: PBEC                      Factor:  1.0000

 Generated new metagrid on record  1800.2 with target accuracy 1.0D-06 and 45406 points in CPU time    1.3
 Computed new grid on record 1800.1 in CPU time    1.4
   84355 words reserved for DFT integration

 PROGRAM * RKS-SCF (Restricted open shell Kohn-Sham)     Authors: W. Meyer, H.-J. Werner, P.J. Knowles, 1993

 NUMBER OF ELECTRONS:      17+   16-    SPACE SYMMETRY=1    SPIN SYMMETRY: Doublet 
 CONVERGENCE THRESHOLDS:    1.00E-05 (Density)    1.00E-06 (Energy)
 MAX. NUMBER OF ITERATIONS:       60
 INTERPOLATION TYPE:            DIIS
 INTERPOLATION STEPS:              2 (START)      1 (STEP)
 LEVEL SHIFTS:                 -0.60 (CLOSED) -0.30 (OPEN) 



 Use fine grid record 1800.2 for energy threshold  1.0D-06
 Orbital guess generated from atomic densities. Full valence occupancy:   17

 Molecular orbital dump at record        2100.2

 Initial alpha occupancy:  17
 Initial beta  occupancy:  16
 Wave function symmetry:    1

 ITERATION    DDIFF          GRAD             ENERGY        2-EL.EN.            DIPOLE MOMENTS         DIIS   ORB.
    1      0.000D+00      0.000D+00      -157.38962176    413.582098    0.13316    0.26915    0.00000    0    start
    2      0.000D+00      0.117D-01      -157.60076050    396.417491    0.02519    0.05108    0.00000    1    diag,B
    3      0.137D-01      0.443D-02      -157.62726115    400.183254    0.04938    0.09987    0.00000    2    diag,B
    4      0.392D-02      0.574D-03      -157.62825934    399.857931    0.04136    0.08363    0.00000    3    diag,B
    5      0.139D-02      0.235D-03      -157.62844027    399.863891    0.04267    0.08625    0.00000    4    diag,B
    6      0.598D-03      0.874D-04      -157.62847420    399.823120    0.04116    0.08318    0.00000    5    diag,B
    7      0.334D-03      0.228D-04      -157.62847741    399.820907    0.04151    0.08389    0.00000    6    fixocc
    8      0.115D-03      0.734D-05      -157.62847777    399.821207    0.04151    0.08389    0.00000    7    diag,B
    9      0.421D-04      0.196D-05      -157.62847779    399.821211    0.04160    0.08407    0.00000    8    diag,B
   10      0.934D-05      0.684D-06      -157.62847779    399.821136    0.04159    0.08405    0.00000    0    orth

 Final alpha occupancy:  17
 Final beta  occupancy:  16

 !RKS STATE 1.1 Energy               -157.628477794682
 Nuclear energy                       124.92676597
 One-electron energy                 -457.51200433
 Two-electron energy                  199.91056809
 Density functional                   -24.95380753     PBEXREV=-23.89910255 PBEC= -1.05470499
 Virial quotient                       -1.01301523
 !RKS STATE 1.1 Dipole moment           0.04159195     0.08405151     0.00000000
 Dipole moment /Debye                   0.10570928     0.21362363     0.00000000

 Orbital energies:

         1.1          2.1          3.1          4.1          5.1          6.1          7.1          8.1          9.1         10.1
     -9.902376    -9.897704    -9.897704    -9.897687    -0.709657    -0.612791    -0.612785    -0.463587    -0.385315    -0.385310

        11.1         12.1         13.1         14.1         15.1         16.1         17.1         18.1         19.1
     -0.380643    -0.333638    -0.333608    -0.317285    -0.296248    -0.296245    -0.134145     0.037742     0.085968

 HOMO     17.1    -0.134145 =      -3.6503eV
 LUMO     18.1     0.037742 =       1.0270eV
 LUMO-HOMO         0.171887 =       4.6773eV


 **********************************************************************************************************************************
 DATASETS  * FILE   NREC   LENGTH (MB)   RECORD NAMES
              1      20       78.61       500      610      700      900      950      970     1000      129      960     1100   
                                          VAR    BASINP    GEOM    SYMINP    ZMAT    AOBASIS   BASIS     P2S    ABASIS      S 
                                         1400     1410     1200     1210     1080     1600     1650     1300     1700     1800   
                                           T        V       H0       H01     AOSYM     SMH    MOLCAS    ERIS     OPER     GRID   

              2       5        3.26       700     1000      520     1800     2100   
                                         GEOM     BASIS   MCVARS    GRID      RKS  

 PROGRAMS   *        TOTAL        KS       INT
 CPU TIMES  *        14.52     12.36      2.02
 REAL TIME  *        15.38 SEC
 DISK USED  *       231.35 MB      
 **********************************************************************************************************************************


 PROGRAM * Intrinsic Basis Bonding Analysis (IBBA)          Author: G. Knizia

 Molecular orbitals read from record     2100.2  Type=RKS/CANONICAL (state 1.1)
 Fock matrix read from record            2100.2  Type=RKS/TOTAL (state 1.1)
 Orbital energies read from record       2100.2  Type=RKS/CANONICAL (state 1.1)
 Density matrix read from record         2100.2  Type=RKS/CHARGE (state 1.1)

 Number of core orbitals:           4 (   4 )
 Number of closed-shell orbitals:  12 (  12 )
 Number of active  orbitals:        1 (   1 )

 Basis set MINAO-AUTO-PP generated.      Number of basis functions:   29 

 Polarized AO type:                A = (O Ot + (1-O)(1-Ot)) P12
 Orthogonalization method:         Symmetric (Loewdin)
 Localization functional:          L = sum[A,i] <i|n_A|i>^4 -> max

 Localization group 1:  16 orbitals, occupancy  2.000
 Iterative localization: IB/PM,    7 iter; Final gradient 0.34E-08

 Bond order analysis:       [THRPRINT= 0.020]

   CEN ATOM   CEN ATOM     WIBERG.BO      RENORM.BO
     1   H  -   2   C       0.917646       0.998177
     1   H  -   3   C       0.037710       0.196387

     2   C  -   3   C       1.082455       1.314645
     2   C  -   6   H       0.953145       0.986333
     2   C  -   7   H       0.953145       0.986333
     2   C  -   1   H       0.917646       0.998177

     3   C  -   2   C       1.082455       1.314645
     3   C  -   5   C       1.082439       1.314590
     3   C  -   4   C       1.082439       1.314590
     3   C  -   1   H       0.037710       0.196387
     3   C  -  11   H       0.037680       0.196238
     3   C  -   8   H       0.037680       0.196238

     4   C  -   3   C       1.082439       1.314590
     4   C  -   9   H       0.953179       0.986325
     4   C  -  10   H       0.953093       0.986350
     4   C  -   8   H       0.917667       0.998172

     5   C  -   3   C       1.082439       1.314590
     5   C  -  12   H       0.953179       0.986325
     5   C  -  13   H       0.953093       0.986350
     5   C  -  11   H       0.917667       0.998172

     6   H  -   2   C       0.953145       0.986333

     7   H  -   2   C       0.953145       0.986333

     8   H  -   4   C       0.917667       0.998172
     8   H  -   3   C       0.037680       0.196238

     9   H  -   4   C       0.953179       0.986325

    10   H  -   4   C       0.953093       0.986350

    11   H  -   5   C       0.917667       0.998172
    11   H  -   3   C       0.037680       0.196238

    12   H  -   5   C       0.953179       0.986325

    13   H  -   5   C       0.953093       0.986350


 Valency analysis:

   CEN ATOM   TOT.VALENCE
     1   H       0.968225
     2   C       3.942406
     3   C       3.406899
     4   C       3.942392
     5   C       3.942392
     6   H       0.979535
     7   H       0.979535
     8   H       0.968219
     9   H       0.979548
    10   H       0.979518
    11   H       0.968219
    12   H       0.979548
    13   H       0.979518
 Localization group 2:   1 orbitals, occupancy  1.000
 Iterative localization: IB/PM,    1 iter; Final gradient 0.00E+00

 Bond order analysis:       [THRPRINT= 0.020]

   CEN ATOM   CEN ATOM     WIBERG.BO      RENORM.BO
     1   H  -   3   C       0.081526       0.500000


     3   C  -   1   H       0.081526       0.500000
     3   C  -  11   H       0.081515       0.500000
     3   C  -   8   H       0.081515       0.500000





     8   H  -   3   C       0.081515       0.500000



    11   H  -   3   C       0.081515       0.500000




 Valency analysis:

   CEN ATOM   TOT.VALENCE
     1   H       0.098229
     2   C       0.003192
     3   C       0.335298
     4   C       0.003181
     5   C       0.003181
     6   H       0.017459
     7   H       0.017459
     8   H       0.098217
     9   H       0.017397
    10   H       0.017547
    11   H       0.098217
    12   H       0.017397
    13   H       0.017547

 Total charge composition:

   CEN ATOM         s          p       ELECTRONS ->P.CHARGE
     1   H       0.87354                 0.87354    0.12646
     2   C       3.01877    3.38347      6.40225   -0.40225
     3   C       2.96795    3.01014      5.97809    0.02191
     4   C       3.01877    3.38353      6.40229   -0.40229
     5   C       3.01877    3.38353      6.40229   -0.40229
     6   H       0.86575                 0.86575    0.13425
     7   H       0.86575                 0.86575    0.13425
     8   H       0.87352                 0.87352    0.12648
     9   H       0.86576                 0.86576    0.13424
    10   H       0.86574                 0.86574    0.13426
    11   H       0.87352                 0.87352    0.12648
    12   H       0.86576                 0.86576    0.13424
    13   H       0.86574                 0.86574    0.13426

 Total charge composition, AO contributions:

   CEN ATOM SHL      SPHERICAL COMPONENTS
     1   H  1s       0.87354

     2   C  1s       1.99092
     2   C  2s       1.02785
     2   C  2p       1.09604    1.12585    1.16159

     3   C  1s       1.99266
     3   C  2s       0.97529
     3   C  2p       1.00253    1.00638    1.00124

     4   C  1s       1.99092
     4   C  2s       1.02785
     4   C  2p       1.13733    1.15076    1.09543

     5   C  1s       1.99092
     5   C  2s       1.02785
     5   C  2p       1.13733    1.15076    1.09543

     6   H  1s       0.86575

     7   H  1s       0.86575

     8   H  1s       0.87352

     9   H  1s       0.86576

    10   H  1s       0.86574

    11   H  1s       0.87352

    12   H  1s       0.86576

    13   H  1s       0.86574

 Active orbital charges:

   CEN ATOM         s          p       ELECTRONS ->SPIN.DEN
     1   H       0.05180                 0.05180    0.05180
     2   C       0.00025    0.00135      0.00160    0.00160
     3   C       0.01548    0.77149      0.78697    0.78697
     4   C       0.00025    0.00134      0.00159    0.00159
     5   C       0.00025    0.00134      0.00159    0.00159
     6   H       0.00881                 0.00881    0.00881
     7   H       0.00881                 0.00881    0.00881
     8   H       0.05179                 0.05179    0.05179
     9   H       0.00878                 0.00878    0.00878
    10   H       0.00885                 0.00885    0.00885
    11   H       0.05179                 0.05179    0.05179
    12   H       0.00878                 0.00878    0.00878
    13   H       0.00885                 0.00885    0.00885

 Active orbital charges, AO contributions:

   CEN ATOM SHL      SPHERICAL COMPONENTS
     1   H  1s       0.05180

     2   C  1s       0.00000
     2   C  2s       0.00025
     2   C  2p       0.00001    0.00134    0.00000

     3   C  1s       0.00001
     3   C  2s       0.01547
     3   C  2p       0.15099    0.62050    0.00000

     4   C  1s       0.00000
     4   C  2s       0.00025
     4   C  2p       0.00050    0.00058    0.00027

     5   C  1s       0.00000
     5   C  2s       0.00025
     5   C  2p       0.00050    0.00058    0.00027

     6   H  1s       0.00881

     7   H  1s       0.00881

     8   H  1s       0.05179

     9   H  1s       0.00878

    10   H  1s       0.00885

    11   H  1s       0.05179

    12   H  1s       0.00878

    13   H  1s       0.00885

 Summary of localized orbital composition:   [THRPRINT= 0.020]

   ORB  GRP  ORB.ENERGY      CENTERS/CHARGES
     1   1    -9.810082      C  3   2.000
     2   1    -9.784943      C  4   2.000
     3   1    -9.784943      C  5   2.000
     4   1    -9.784942      C  2   2.000
     5   1    -0.531465      C  4   1.010   C  3   0.976
     6   1    -0.531465      C  5   1.010   C  3   0.976
     7   1    -0.531445      C  2   1.010   C  3   0.976
     8   1    -0.442557      C  2   1.123   H  1   0.818   C  3   0.056
     9   1    -0.442552      C  4   1.123   H  8   0.818   C  3   0.056
    10   1    -0.442552      C  5   1.123   H 11   0.818   C  3   0.056
    11   1    -0.439285      C  5   1.130   H 12   0.850   (other: 0.020)
    12   1    -0.439285      C  4   1.130   H  9   0.850   (other: 0.020)
    13   1    -0.439280      C  2   1.130   H  6   0.850   (other: 0.020)
    14   1    -0.439280      C  2   1.130   H  7   0.850   (other: 0.020)
    15   1    -0.439262      C  5   1.130   H 13   0.850   (other: 0.020)
    16   1    -0.439262      C  4   1.130   H 10   0.850   (other: 0.020)
    17   2    -0.095735      C  3   0.787   H  1   0.052   H 11   0.052   H  8   0.052   (other: 0.058)

 Localized orbitals saved to record      2100.2  (orbital set 2)


 **********************************************************************************************************************************
 DATASETS  * FILE   NREC   LENGTH (MB)   RECORD NAMES
              1      20       78.61       500      610      700      900      950      970     1000      129      960     1100   
                                          VAR    BASINP    GEOM    SYMINP    ZMAT    AOBASIS   BASIS     P2S    ABASIS      S 
                                         1400     1410     1200     1210     1080     1600     1650     1300     1700     1800   
                                           T        V       H0       H01     AOSYM     SMH    MOLCAS    ERIS     OPER     GRID   

              2       5        3.34       700     1000      520     1800     2100   
                                         GEOM     BASIS   MCVARS    GRID      RKS  

 PROGRAMS   *        TOTAL      IBBA        KS       INT
 CPU TIMES  *        14.56      0.04     12.36      2.02
 REAL TIME  *        15.51 SEC
 DISK USED  *       231.35 MB      
 **********************************************************************************************************************************
 Molecular orbitals read from record     2100.2  Type=RKS/LOCAL(IBO)  
 Occupation numbers read from record     2100.2  Type=RKS/LOCAL(IBO)  
 Orbital energies read from record       2100.2  Type=RKS/LOCAL(IBO)  
 Redundancy group numbers read from rec  2100.2  Type=RKS/LOCAL(IBO)  

 IBBA/SVP energy=      0.000000000000

        KS-SCF  
   -157.62847779
 **********************************************************************************************************************************
 Molpro calculation terminated
