
 Primary working directories    : /tmp/sb13343
 Secondary working directories  : /tmp/sb13343
 Wavefunction directory         : /panfs/panasas01/chem/sb13343/wfu/
 Main file repository           : /tmp/sb13343/

 SHA1      : b4a5b34a9e711420743f49e6833241d17c61fb3c
 NAME      : 2099.9.b4a5b34
 ARCHNAME  : linux/x86_64_openmp
 FC        : /cm/shared/languages/GCC-6.1/bin/gfortran
 BLASLIB   : -lblas
 id        : simonbennie

 Nodes     nprocs
 node35-048    1

 Using customized tuning parameters: mindgm=1; mindgv=20; mindgc=4; mindgr=1; noblas=0; minvec=7
 default implementation of scratch files=df  

 memory,500,m
 geomtyp=xyz
 nosym
 noorient
 geometry={
 C         -1.53233        0.02247        0.00000
 C         -0.00192        0.01421        0.00000
 O          0.37239        1.40356        0.00000
 H          1.34248        1.44036        0.00000
 H         -1.92991       -0.99819        0.00000
 H         -1.90797        0.54382       -0.88653
 H         -1.90797        0.54382        0.88653
 C          0.54303       -0.66466       -1.26580
 C          0.54303       -0.66466        1.26580
 H          0.17836       -0.14752       -2.15943
 H          0.17836       -0.14752        2.15943
 H          0.23752       -1.71600       -1.32280
 H          0.23752       -1.71600        1.32280
 H          1.64084       -0.63767       -1.28032
 H          1.64084       -0.63767        1.28032
 }
 basis={ default,sto-3g }
 {uks,M11-L,direct;wf,42,1,0}
 {ibba,bonds=1}

 Variables initialized (895), CPU time= 0.00 sec
 Commands  initialized (725), CPU time= 0.02 sec, 591 directives.
 Default parameters read. Elapsed time= 0.08 sec

 Checking input...
 Passed
1


                                         ***  PROGRAM SYSTEM MOLPRO  ***
                                       Copyright, TTI GmbH Stuttgart, 2015
                                    Version 2099.9 linked May 26 2017 16:03:21


 **********************************************************************************************************************************
 LABEL *                                                                                 
  64 bit serial version                                                                  DATE: 09-Jun-17          TIME: 03:23:57  
 **********************************************************************************************************************************

 SHA1:             b4a5b34a9e711420743f49e6833241d17c61fb3c
 **********************************************************************************************************************************
 SETTING GEOMTYP        =    XYZ

 Variable memory set to  500000000 words,  buffer space 

 ZSYMEL=NOSYM

 SETTING BASIS          =    STO-3G


 Recomputing integrals since basis changed


 Using spherical harmonics

 Library entry C      S STO-3G               selected for orbital group  1
 Library entry C      P STO-3G               selected for orbital group  1
 Library entry O      S STO-3G               selected for orbital group  2
 Library entry O      P STO-3G               selected for orbital group  2
 Library entry H      S STO-3G               selected for orbital group  3


 PROGRAM * SEWARD (Integral evaluation for generally contracted gaussian basis sets)     Author: Roland Lindh, 1990

 Geometry written to block  1 of record 700


 Point group  C1  



 ATOMIC COORDINATES

 NR  ATOM    CHARGE       X              Y              Z

   1  C       6.00   -2.895684032    0.042462146    0.000000000
   2  C       6.00   -0.003628274    0.026853008    0.000000000
   3  O       8.00    0.703715112    2.652343999    0.000000000
   4  H       1.00    2.536919528    2.721885921    0.000000000
   5  H       1.00   -3.647001345   -1.886305720    0.000000000
   6  H       1.00   -3.605540754    1.027670861   -1.675298901
   7  H       1.00   -3.605540754    1.027670861    1.675298901
   8  C       6.00    1.026177977   -1.256025366   -2.392015328
   9  C       6.00    1.026177977   -1.256025366    2.392015328
  10  H       1.00    0.337051552   -0.278772398   -4.080731285
  11  H       1.00    0.337051552   -0.278772398    4.080731285
  12  H       1.00    0.448847749   -3.242770030   -2.499729718
  13  H       1.00    0.448847749   -3.242770030    2.499729718
  14  H       1.00    3.100738214   -1.205021658   -2.419454152
  15  H       1.00    3.100738214   -1.205021658    2.419454152

 Bond lengths in Bohr (Angstrom)

 1-2  2.892097881  1-5  2.069933136  1-6  2.069096224  1-7  2.069096224  2-3  2.719106031
     ( 1.530432290)     ( 1.095361444)     ( 1.094918569)     ( 1.094918569)     ( 1.438888946)

  2- 8  2.903104402   2- 9  2.903104402   3- 4  1.834522965   8-10  2.069222119   8-12  2.071730422
       ( 1.536256691)       ( 1.536256691)       ( 0.970787746)       ( 1.094985190)       ( 1.096312526)

  8-14  2.075368508   9-11  2.069222119   9-13  2.071730422   9-15  2.075368508
       ( 1.098237719)       ( 1.094985190)       ( 1.096312526)       ( 1.098237719)

 Bond angles

  1-2-3  104.76902697   1-2-8  110.92255387   1-2-9  110.92255387   2-1-5  110.97328220

  2- 1- 6  110.22090701   2- 1- 7  110.22090701   2- 3- 4  107.25071562   2- 8-10  110.21836376

  2- 8-12  111.57747468   2- 8-14  110.77023896   2- 9-11  110.21836376   2- 9-13  111.57747468

  2- 9-15  110.77023896   3- 2- 8  109.53648747   3- 2- 9  109.53648747   5- 1- 6  108.61190457

  5- 1- 7  108.61190457   6- 1- 7  108.12870271   8- 2- 9  110.96453384  10- 8-12  108.52192632

 10- 8-14  108.08997829  11- 9-13  108.52192632  11- 9-15  108.08997829  12- 8-14  107.54424578

 13- 9-15  107.54424578

 NUCLEAR CHARGE:                   42
 NUMBER OF PRIMITIVE AOS:         105
 NUMBER OF SYMMETRY AOS:          105
 NUMBER OF CONTRACTIONS:           35   (  35A   )
 NUMBER OF CORE ORBITALS:           5   (   5A   )
 NUMBER OF VALENCE ORBITALS:       30   (  30A   )


 NUCLEAR REPULSION ENERGY  198.77359127


 Eigenvalues of metric

         1 0.207E+00 0.227E+00 0.228E+00 0.304E+00 0.354E+00 0.360E+00 0.361E+00 0.363E+00


 Contracted 2-electron integrals neglected if value below      1.0D-11
 AO integral compression algorithm  1   Integral accuracy      1.0D-11

     1.573 MB (compressed) written to integral file ( 87.8%)


 NUMBER OF SORTED TWO-ELECTRON INTEGRALS:     198765.     BUFFER LENGTH:  32768
 NUMBER OF SEGMENTS:   1  SEGMENT LENGTH:     198765      RECORD LENGTH: 524288

 Memory used in sort:       0.76 MW

 SORT1 READ      224962. AND WROTE      188577. INTEGRALS IN      1 RECORDS. CPU TIME:     0.00 SEC, REAL TIME:     0.02 SEC
 SORT2 READ      188577. AND WROTE      198765. INTEGRALS IN      6 RECORDS. CPU TIME:     0.02 SEC, REAL TIME:     0.02 SEC

 FILE SIZES:   FILE 1:    31.8 MBYTE,  FILE 4:     4.2 MBYTE,   TOTAL:     36.0 MBYTE

 OPERATOR DM      FOR CENTER  0  COORDINATES:    0.000000    0.000000    0.000000


 **********************************************************************************************************************************
 DATASETS  * FILE   NREC   LENGTH (MB)   RECORD NAMES
              1      19       31.10       500      610      700      900      950      970     1000      129      960     1100   
                                          VAR    BASINP    GEOM    SYMINP    ZMAT    AOBASIS   BASIS     P2S    ABASIS      S 
                                         1400     1410     1200     1210     1080     1600     1650     1300     1700   
                                           T        V       H0       H01     AOSYM     SMH    MOLCAS    ERIS     OPER   

 PROGRAMS   *        TOTAL       INT
 CPU TIMES  *         0.62      0.47
 REAL TIME  *         4.58 SEC
 DISK USED  *        36.55 MB      
 **********************************************************************************************************************************

 Density functional group M11-L=XC-M11-L
 Functional: XC-M11-L(via MFM 1.6)                                             Gradient terms: 1
 Use grid at  1800.2

 Functional: XC-M11-L                  Factor:  1.0000

 Generated new metagrid on record  1800.2 with target accuracy 1.0D-06 and 53396 points in CPU time    1.6
 Computed new grid on record 1800.1 in CPU time    1.8
   32369 words reserved for DFT integration

 PROGRAM * UKS-SCF (Unrestricted Kohn-Sham)     Authors: W. Meyer, H.-J. Werner, P.J. Knowles, 1993

 NUMBER OF ELECTRONS:      21+   21-    SPACE SYMMETRY=1    SPIN SYMMETRY: Singlet 
 CONVERGENCE THRESHOLDS:    1.00E-05 (Density)    1.00E-06 (Energy)
 MAX. NUMBER OF ITERATIONS:       60
 INTERPOLATION TYPE:            DIIS
 INTERPOLATION STEPS:              2 (START)      1 (STEP)
 LEVEL SHIFTS:                 -0.20 (ALPHA)  -0.20 (BETA) 



 Use fine grid record 1800.2 for energy threshold  1.0D-06
 Orbital guess generated from atomic densities. Full valence occupancy:   21

 Molecular orbital dump at record        2200.2

 Initial alpha occupation  21
 Initial beta  occupation  21

 ITERATION    DDIFF          GRAD             ENERGY        2-EL.EN.            DIPOLE MOMENTS         DIIS
    1      0.000D+00      0.000D+00      -229.66902641    639.164701    0.75773   -1.12867    0.00000    0
    2      0.549D-01      0.182D-01      -229.96967665    621.980302    0.26467   -0.36679    0.00000    1
    3      0.606D-02      0.258D-02      -229.97402721    623.545935    0.32748   -0.37476    0.00000    2
    4      0.844D-03      0.328D-03      -229.97414425    623.489100    0.33714   -0.37652    0.00000    3
    5      0.371D-03      0.970D-04      -229.97415813    623.492550    0.33889   -0.37046    0.00000    4
    6      0.937D-04      0.233D-04      -229.97415904    623.490303    0.33927   -0.37014    0.00000    5
    7      0.210D-04      0.517D-05      -229.97415907    623.491027    0.33926   -0.37014    0.00000    5
    8      0.586D-05      0.214D-05      -229.97415907    623.490554    0.33925   -0.37010    0.00000    6
    9      0.791D-06      0.194D-06      -229.97415907    623.490674    0.33925   -0.37010    0.00000    6

 Final alpha occupancy:  21
 Final beta  occupancy:  21

 !UKS STATE 1.1 Energy               -229.974159073009
 Nuclear energy                       198.77359127
 One-electron energy                 -707.06728514
 Two-electron energy                  311.74533700
 Density functional                   -33.42580221     XC-M11-L=-33.42580221
 Virial quotient                       -1.00990528
 !UKS STATE 1.1 Dipole moment           0.33925354    -0.37010456     0.00000000
 Dipole moment /Debye                   0.86224000    -0.94065035     0.00000000

 Orbital energies for positive spin:

         1.1          2.1          3.1          4.1          5.1          6.1          7.1          8.1          9.1         10.1
    -18.885362   -10.095729   -10.031979   -10.031929   -10.030480    -0.951511    -0.726158    -0.631772    -0.629992    -0.495291

        11.1         12.1         13.1         14.1         15.1         16.1         17.1         18.1         19.1         20.1
     -0.409694    -0.378050    -0.377952    -0.335824    -0.329320    -0.309666    -0.305036    -0.277988    -0.274684    -0.198871

        21.1         22.1         23.1
     -0.117285     0.272269     0.331783

 Orbital energies for negative spin:

         1.1          2.1          3.1          4.1          5.1          6.1          7.1          8.1          9.1         10.1
    -18.885362   -10.095729   -10.031979   -10.031929   -10.030480    -0.951511    -0.726158    -0.631772    -0.629992    -0.495291

        11.1         12.1         13.1         14.1         15.1         16.1         17.1         18.1         19.1         20.1
     -0.409694    -0.378050    -0.377952    -0.335824    -0.329320    -0.309666    -0.305036    -0.277988    -0.274684    -0.198871

        21.1         22.1         23.1
     -0.117285     0.272269     0.331783

 HOMO     21.1    -0.117285 =      -3.1915eV
 LUMO     22.1     0.272269 =       7.4088eV
 LUMO-HOMO         0.389553 =      10.6003eV

 EXPECTATION VALUE OF S**2:            -0.00000000

 Natural orbitals saved to record    2200.2 (Orbital set 3)

 Orbital spaces for UNO-CAS (Min. occupation: 0.020  Max. occupation: 1.980):

 Closed:       21
 Active:        0


 **********************************************************************************************************************************
 DATASETS  * FILE   NREC   LENGTH (MB)   RECORD NAMES
              1      20       32.81       500      610      700      900      950      970     1000      129      960     1100   
                                          VAR    BASINP    GEOM    SYMINP    ZMAT    AOBASIS   BASIS     P2S    ABASIS      S 
                                         1400     1410     1200     1210     1080     1600     1650     1300     1700     1800   
                                           T        V       H0       H01     AOSYM     SMH    MOLCAS    ERIS     OPER     GRID   

              2       5        3.05       700     1000      520     1800     2200   
                                         GEOM     BASIS   MCVARS    GRID      UKS  

 PROGRAMS   *        TOTAL       UKS       INT
 CPU TIMES  *        12.40     11.78      0.47
 REAL TIME  *        74.27 SEC
 DISK USED  *        36.55 MB      
 **********************************************************************************************************************************


 PROGRAM * Intrinsic Basis Bonding Analysis (IBBA)          Author: G. Knizia

 Molecular orbitals read from record     2200.2  Type=UKS/ALPHA (state 1.1)
 Fock matrix read from record            2200.2  Type=UKS/TOTAL (state 1.1)
 Orbital energies read from record       2200.2  Type=UKS/ALPHA (state 1.1)
 Density matrix read from record         2200.2  Type=UKS/CHARGE (state 1.1)

 Number of core orbitals:           5 (   5 )
 Number of closed-shell orbitals:  16 (  16 )

 Basis set MINAO-AUTO-PP generated.      Number of basis functions:   35 

 Polarized AO type:                A = (O Ot + (1-O)(1-Ot)) P12
 Orthogonalization method:         Symmetric (Loewdin)
 Localization functional:          L = sum[A,i] <i|n_A|i>^4 -> max

 Localization group 1:  21 orbitals, occupancy  2.000
 Iterative localization: IB/PM,    7 iter; Final gradient 0.23E-08

 Bond order analysis:       [THRPRINT= 0.020]

   CEN ATOM   CEN ATOM     WIBERG.BO      RENORM.BO
     1   C  -   2   C       0.993968       0.988680
     1   C  -   5   H       0.970581       0.989743
     1   C  -   6   H       0.966821       0.986186
     1   C  -   7   H       0.966821       0.986186

     2   C  -   1   C       0.993968       0.988680
     2   C  -   3   O       0.991295       0.976698
     2   C  -   8   C       0.991290       0.968107
     2   C  -   9   C       0.991290       0.968107

     3   O  -   2   C       0.991295       0.976698
     3   O  -   4   H       0.923692       0.982173
     3   O  -   9   C       0.024478       0.012639
     3   O  -   8   C       0.024478       0.012639

     4   H  -   3   O       0.923692       0.982173

     5   H  -   1   C       0.970581       0.989743

     6   H  -   1   C       0.966821       0.986186

     7   H  -   1   C       0.966821       0.986186

     8   C  -   2   C       0.991290       0.968107
     8   C  -  14   H       0.969422       0.985572
     8   C  -  12   H       0.968319       0.987156
     8   C  -  10   H       0.967575       0.985978
     8   C  -   3   O       0.024478       0.012639

     9   C  -   2   C       0.991290       0.968107
     9   C  -  15   H       0.969422       0.985572
     9   C  -  13   H       0.968319       0.987156
     9   C  -  11   H       0.967575       0.985978
     9   C  -   3   O       0.024478       0.012639

    10   H  -   8   C       0.967575       0.985978

    11   H  -   9   C       0.967575       0.985978

    12   H  -   8   C       0.968319       0.987156

    13   H  -   9   C       0.968319       0.987156

    14   H  -   8   C       0.969422       0.985572

    15   H  -   9   C       0.969422       0.985572


 Valency analysis:

   CEN ATOM   TOT.VALENCE
     1   C       3.947878
     2   C       3.973714
     3   O       2.013802
     4   H       0.941113
     5   H       0.985284
     6   H       0.983851
     7   H       0.983851
     8   C       3.949894
     9   C       3.949894
    10   H       0.984320
    11   H       0.984320
    12   H       0.984798
    13   H       0.984798
    14   H       0.986526
    15   H       0.986526

 Total charge composition:

   CEN ATOM         s          p       ELECTRONS ->P.CHARGE
     1   C       3.02274    3.34565      6.36840   -0.36840
     2   C       2.96236    2.89505      5.85740    0.14260
     3   O       3.70303    4.65795      8.36099   -0.36099
     4   H       0.75733                 0.75733    0.24267
     5   H       0.87869                 0.87869    0.12131
     6   H       0.87292                 0.87292    0.12708
     7   H       0.87292                 0.87292    0.12708
     8   C       3.02736    3.35291      6.38027   -0.38027
     9   C       3.02736    3.35291      6.38027   -0.38027
    10   H       0.87478                 0.87478    0.12522
    11   H       0.87478                 0.87478    0.12522
    12   H       0.87670                 0.87670    0.12330
    13   H       0.87670                 0.87670    0.12330
    14   H       0.88392                 0.88392    0.11608
    15   H       0.88392                 0.88392    0.11608

 Total charge composition, AO contributions:

   CEN ATOM SHL      SPHERICAL COMPONENTS
     1   C  1s       1.99031
     1   C  2s       1.03243
     1   C  2p       1.04317    1.14741    1.15507

     2   C  1s       1.99187
     2   C  2s       0.97049
     2   C  2p       1.01622    0.86640    1.01243

     3   O  1s       1.99710
     3   O  2s       1.70593
     3   O  2p       1.35383    1.34308    1.96104

     4   H  1s       0.75733

     5   H  1s       0.87869

     6   H  1s       0.87292

     7   H  1s       0.87292

     8   C  1s       1.99043
     8   C  2s       1.03693
     8   C  2p       1.13158    1.13289    1.08844

     9   C  1s       1.99043
     9   C  2s       1.03693
     9   C  2p       1.13158    1.13289    1.08844

    10   H  1s       0.87478

    11   H  1s       0.87478

    12   H  1s       0.87670

    13   H  1s       0.87670

    14   H  1s       0.88392

    15   H  1s       0.88392

 Summary of localized orbital composition:   [THRPRINT= 0.020]

   ORB  GRP  ORB.ENERGY      CENTERS/CHARGES
     1   1   -18.688680      O  3   2.000
     2   1   -10.000546      C  2   2.000
     3   1    -9.916379      C  9   2.000
     4   1    -9.916379      C  8   2.000
     5   1    -9.914009      C  1   2.000
     6   1    -0.634525      O  3   1.241   H  4   0.749
     7   1    -0.595658      O  3   1.166   C  2   0.816
     8   1    -0.550412      O  3   1.987
     9   1    -0.509739      C  8   1.003   C  2   0.983
    10   1    -0.509739      C  9   1.003   C  2   0.983
    11   1    -0.508162      C  1   0.990   C  2   0.988   (other: 0.022)
    12   1    -0.442036      C  9   1.113   H 15   0.878
    13   1    -0.442036      C  8   1.113   H 14   0.878
    14   1    -0.441052      C  9   1.120   H 13   0.870
    15   1    -0.441052      C  8   1.120   H 12   0.870
    16   1    -0.438707      C  1   1.118   H  5   0.873
    17   1    -0.437334      C  8   1.123   H 10   0.868
    18   1    -0.437334      C  9   1.123   H 11   0.868
    19   1    -0.432202      C  1   1.124   H  7   0.867
    20   1    -0.432202      C  1   1.124   H  6   0.867
    21   1    -0.136363      O  3   1.961   (other: 0.039)

 Localized orbitals saved to record      2200.2  (orbital set 4)


 **********************************************************************************************************************************
 DATASETS  * FILE   NREC   LENGTH (MB)   RECORD NAMES
              1      20       32.81       500      610      700      900      950      970     1000      129      960     1100   
                                          VAR    BASINP    GEOM    SYMINP    ZMAT    AOBASIS   BASIS     P2S    ABASIS      S 
                                         1400     1410     1200     1210     1080     1600     1650     1300     1700     1800   
                                           T        V       H0       H01     AOSYM     SMH    MOLCAS    ERIS     OPER     GRID   

              2       5        3.06       700     1000      520     1800     2200   
                                         GEOM     BASIS   MCVARS    GRID      UKS  

 PROGRAMS   *        TOTAL      IBBA       UKS       INT
 CPU TIMES  *        12.44      0.02     11.78      0.47
 REAL TIME  *        74.74 SEC
 DISK USED  *        36.55 MB      
 **********************************************************************************************************************************
 Molecular orbitals read from record     2200.2  Type=UKS/LOCAL(IBO)  
 Occupation numbers read from record     2200.2  Type=UKS/LOCAL(IBO)  
 Orbital energies read from record       2200.2  Type=UKS/LOCAL(IBO)  
 Redundancy group numbers read from rec  2200.2  Type=UKS/BETA (state 1.1)

 IBBA/STO-3G energy=      0.000000000000

        UKS-SCF 
   -229.97415907
 **********************************************************************************************************************************
 Molpro calculation terminated
