
 Primary working directories    : /local
 Secondary working directories  : /local
 Wavefunction directory         : /local/
 Main file repository           : /local/

 SHA1      : b4a5b34a9e711420743f49e6833241d17c61fb3c
 NAME      : 2099.9.b4a5b34
 ARCHNAME  : linux/x86_64_openmp
 FC        : /cm/shared/languages/GCC-6.1/bin/gfortran
 BLASLIB   : -lblas
 id        : simonbennie

 Nodes     nprocs
 node33-045    1

 Using customized tuning parameters: mindgm=1; mindgv=20; mindgc=4; mindgr=1; noblas=0; minvec=7
 default implementation of scratch files=df  

 memory,500,m
 geomtyp=xyz
 nosym
 noorient
 geometry={
 C         -1.53233        0.02247        0.00000
 C         -0.00192        0.01421        0.00000
 O          0.37239        1.40356        0.00000
 H          1.34248        1.44036        0.00000
 H         -1.92991       -0.99819        0.00000
 H         -1.90797        0.54382       -0.88653
 H         -1.90797        0.54382        0.88653
 C          0.54303       -0.66466       -1.26580
 C          0.54303       -0.66466        1.26580
 H          0.17836       -0.14752       -2.15943
 H          0.17836       -0.14752        2.15943
 H          0.23752       -1.71600       -1.32280
 H          0.23752       -1.71600        1.32280
 H          1.64084       -0.63767       -1.28032
 H          1.64084       -0.63767        1.28032
 }
 basis={ default,avtz }
 {ks,PBE0,direct;wf,42,1,0}
 {ibba,bonds=1}

 Variables initialized (895), CPU time= 0.00 sec
 Commands  initialized (725), CPU time= 0.01 sec, 591 directives.
 Default parameters read. Elapsed time= 0.14 sec

 Checking input...
 Passed
1


                                         ***  PROGRAM SYSTEM MOLPRO  ***
                                       Copyright, TTI GmbH Stuttgart, 2015
                                    Version 2099.9 linked May 26 2017 16:03:21


 **********************************************************************************************************************************
 LABEL *                                                                                 
  64 bit serial version                                                                  DATE: 12-Jun-17          TIME: 14:18:33  
 **********************************************************************************************************************************

 SHA1:             b4a5b34a9e711420743f49e6833241d17c61fb3c
 **********************************************************************************************************************************
 SETTING GEOMTYP        =    XYZ

 Variable memory set to  500000000 words,  buffer space 

 ZSYMEL=NOSYM

 SETTING BASIS          =    AVTZ


 Recomputing integrals since basis changed


 Using spherical harmonics

 Library entry C      S aug-cc-pVTZ          selected for orbital group  1
 Library entry C      P aug-cc-pVTZ          selected for orbital group  1
 Library entry C      D aug-cc-pVTZ          selected for orbital group  1
 Library entry C      F aug-cc-pVTZ          selected for orbital group  1
 Library entry O      S aug-cc-pVTZ          selected for orbital group  2
 Library entry O      P aug-cc-pVTZ          selected for orbital group  2
 Library entry O      D aug-cc-pVTZ          selected for orbital group  2
 Library entry O      F aug-cc-pVTZ          selected for orbital group  2
 Library entry H      S aug-cc-pVTZ          selected for orbital group  3
 Library entry H      P aug-cc-pVTZ          selected for orbital group  3
 Library entry H      D aug-cc-pVTZ          selected for orbital group  3


 PROGRAM * SEWARD (Integral evaluation for generally contracted gaussian basis sets)     Author: Roland Lindh, 1990

 Geometry written to block  1 of record 700


 Point group  C1  



 ATOMIC COORDINATES

 NR  ATOM    CHARGE       X              Y              Z

   1  C       6.00   -2.895684032    0.042462146    0.000000000
   2  C       6.00   -0.003628274    0.026853008    0.000000000
   3  O       8.00    0.703715112    2.652343999    0.000000000
   4  H       1.00    2.536919528    2.721885921    0.000000000
   5  H       1.00   -3.647001345   -1.886305720    0.000000000
   6  H       1.00   -3.605540754    1.027670861   -1.675298901
   7  H       1.00   -3.605540754    1.027670861    1.675298901
   8  C       6.00    1.026177977   -1.256025366   -2.392015328
   9  C       6.00    1.026177977   -1.256025366    2.392015328
  10  H       1.00    0.337051552   -0.278772398   -4.080731285
  11  H       1.00    0.337051552   -0.278772398    4.080731285
  12  H       1.00    0.448847749   -3.242770030   -2.499729718
  13  H       1.00    0.448847749   -3.242770030    2.499729718
  14  H       1.00    3.100738214   -1.205021658   -2.419454152
  15  H       1.00    3.100738214   -1.205021658    2.419454152

 Bond lengths in Bohr (Angstrom)

 1-2  2.892097881  1-5  2.069933136  1-6  2.069096224  1-7  2.069096224  2-3  2.719106031
     ( 1.530432290)     ( 1.095361444)     ( 1.094918569)     ( 1.094918569)     ( 1.438888946)

  2- 8  2.903104402   2- 9  2.903104402   3- 4  1.834522965   8-10  2.069222119   8-12  2.071730422
       ( 1.536256691)       ( 1.536256691)       ( 0.970787746)       ( 1.094985190)       ( 1.096312526)

  8-14  2.075368508   9-11  2.069222119   9-13  2.071730422   9-15  2.075368508
       ( 1.098237719)       ( 1.094985190)       ( 1.096312526)       ( 1.098237719)

 Bond angles

  1-2-3  104.76902697   1-2-8  110.92255387   1-2-9  110.92255387   2-1-5  110.97328220

  2- 1- 6  110.22090701   2- 1- 7  110.22090701   2- 3- 4  107.25071562   2- 8-10  110.21836376

  2- 8-12  111.57747468   2- 8-14  110.77023896   2- 9-11  110.21836376   2- 9-13  111.57747468

  2- 9-15  110.77023896   3- 2- 8  109.53648747   3- 2- 9  109.53648747   5- 1- 6  108.61190457

  5- 1- 7  108.61190457   6- 1- 7  108.12870271   8- 2- 9  110.96453384  10- 8-12  108.52192632

 10- 8-14  108.08997829  11- 9-13  108.52192632  11- 9-15  108.08997829  12- 8-14  107.54424578

 13- 9-15  107.54424578

 NUCLEAR CHARGE:                   42
 NUMBER OF PRIMITIVE AOS:         605
 NUMBER OF SYMMETRY AOS:          540
 NUMBER OF CONTRACTIONS:          460   ( 460A   )
 NUMBER OF CORE ORBITALS:           5   (   5A   )
 NUMBER OF VALENCE ORBITALS:       30   (  30A   )


 NUCLEAR REPULSION ENERGY  198.77359127


 Eigenvalues of metric

         1 0.351E-05 0.596E-05 0.770E-05 0.977E-05 0.161E-04 0.173E-04 0.207E-04 0.297E-04


 Contracted 2-electron integrals neglected if value below      1.0D-12
 AO integral compression algorithm  1   Integral accuracy      1.0D-12

     24892.932 MB (compressed) written to integral file ( 51.7%)


 NUMBER OF SORTED TWO-ELECTRON INTEGRALS: 5621233465.     BUFFER LENGTH:  32768
 NUMBER OF SEGMENTS: 176  SEGMENT LENGTH:   31999951      RECORD LENGTH: 131072

 Memory used in sort:      32.16 MW

 SORT1 READ  6020115514. AND WROTE  5366777799. INTEGRALS IN  61513 RECORDS. CPU TIME:    85.96 SEC, REAL TIME:  3137.78 SEC
 SORT2 READ  5366777799. AND WROTE  5621233465. INTEGRALS IN  94959 RECORDS. CPU TIME:   130.86 SEC, REAL TIME:  5943.24 SEC

 FILE SIZES:   FILE 1: 24930.9 MBYTE,  FILE 4: 64501.1 MBYTE,   TOTAL:  89432.0 MBYTE

 OPERATOR DM      FOR CENTER  0  COORDINATES:    0.000000    0.000000    0.000000


 **********************************************************************************************************************************
 DATASETS  * FILE   NREC   LENGTH (MB)   RECORD NAMES
              1      19    23757.53       500      610      700      900      950      970     1000      129      960     1100   
                                          VAR    BASINP    GEOM    SYMINP    ZMAT    AOBASIS   BASIS     P2S    ABASIS      S 
                                         1400     1410     1200     1210     1080     1600     1650     1300     1700   
                                           T        V       H0       H01     AOSYM     SMH    MOLCAS    ERIS     OPER   

 PROGRAMS   *        TOTAL       INT
 CPU TIMES  *       439.81    439.67
 REAL TIME  *     10247.56 SEC
 DISK USED  *        89.43 GB      
 **********************************************************************************************************************************

 Density functional group PBE0=PBEX+PBEC
 Functional: PBEX(Automatically generated (new) PBEX)                          Gradient terms: 1
 Functional: PBEC(Automatically generated (new) PBEC)                          Gradient terms: 1
 Use grid at  1800.2


 Exact exchange will be calculated, factor:  0.2500

 Functional: PBEX                      Factor:  0.7500
 Functional: PBEC                      Factor:  1.0000

 Generated new metagrid on record  1800.2 with target accuracy 1.0D-06 and 55396 points in CPU time    1.7
 Computed new grid on record 1800.1 in CPU time    1.9
  370324 words reserved for DFT integration

 PROGRAM * RKS-SCF (Restricted closed shell Kohn-Sham)     Authors: W. Meyer, H.-J. Werner, P.J. Knowles, 1993

 NUMBER OF ELECTRONS:      21+   21-    SPACE SYMMETRY=1    SPIN SYMMETRY: Singlet 
 CONVERGENCE THRESHOLDS:    1.00E-05 (Density)    1.00E-06 (Energy)
 MAX. NUMBER OF ITERATIONS:       60
 INTERPOLATION TYPE:            DIIS
 INTERPOLATION STEPS:              2 (START)      1 (STEP)
 LEVEL SHIFTS:                  0.00 (CLOSED)  0.00 (OPEN) 



 Use fine grid record 1800.2 for energy threshold  1.0D-06
 Orbital guess generated from atomic densities. Full valence occupancy:   35

 Molecular orbital dump at record        2100.2

 Initial occupancy:  21

 ITERATION    DDIFF          GRAD             ENERGY        2-EL.EN.            DIPOLE MOMENTS         DIIS   ORB.
    1      0.000D+00      0.000D+00      -233.30683883    618.962032    0.68742   -0.80363    0.00000    0    start
    2      0.000D+00      0.442D-02      -233.22689537    588.645148   -0.17649   -0.16180    0.00000    1    diag
    3      0.896D-02      0.547D-02      -233.48210688    606.295430    0.36451   -0.62009    0.00000    2    diag
    4      0.462D-02      0.659D-03      -233.48488384    605.615561    0.33378   -0.49442    0.00000    3    diag
    5      0.577D-03      0.189D-03      -233.48511455    605.551632    0.33327   -0.54249    0.00000    4    diag
    6      0.157D-03      0.534D-04      -233.48513551    605.640436    0.33498   -0.53355    0.00000    5    diag
    7      0.482D-04      0.166D-04      -233.48513754    605.627341    0.33528   -0.53239    0.00000    6    diag
    8      0.136D-04      0.170D-05      -233.48513757    605.631237    0.33516   -0.53349    0.00000    7    diag
    9      0.204D-05      0.505D-06      -233.48513757    605.630382    0.33527   -0.53296    0.00000    0    orth

 Final occupancy:  21

 !RKS STATE 1.1 Energy               -233.485137568052
 Nuclear energy                       198.77359127
 One-electron energy                 -709.44110943
 Two-electron energy                  302.81519095
 SCF exchange energy                  -32.49097978     Factor= 0.2500
 Density functional                   -25.63281036     PBEX=-32.35243084 PBEC= -1.36848723
 Virial quotient                       -1.00684272
 !RKS STATE 1.1 Dipole moment           0.33526609    -0.53296289     0.00000000
 Dipole moment /Debye                   0.85210558    -1.35456782     0.00000000

 Orbital energies:

         1.1          2.1          3.1          4.1          5.1          6.1          7.1          8.1          9.1         10.1
    -19.204322   -10.286505   -10.215050   -10.215039   -10.209692    -1.046280    -0.811527    -0.712635    -0.711585    -0.586180

        11.1         12.1         13.1         14.1         15.1         16.1         17.1         18.1         19.1         20.1
     -0.505124    -0.466961    -0.463944    -0.425926    -0.410559    -0.391754    -0.378069    -0.368317    -0.360641    -0.332609

        21.1         22.1         23.1
     -0.286555    -0.008210     0.013601

 HOMO     21.1    -0.286555 =      -7.7976eV
 LUMO     22.1    -0.008210 =      -0.2234eV
 LUMO-HOMO         0.278345 =       7.5742eV


 **********************************************************************************************************************************
 DATASETS  * FILE   NREC   LENGTH (MB)   RECORD NAMES
              1      20    23759.30       500      610      700      900      950      970     1000      129      960     1100   
                                          VAR    BASINP    GEOM    SYMINP    ZMAT    AOBASIS   BASIS     P2S    ABASIS      S 
                                         1400     1410     1200     1210     1080     1600     1650     1300     1700     1800   
                                           T        V       H0       H01     AOSYM     SMH    MOLCAS    ERIS     OPER     GRID   

              2       5        7.31       700     1000      520     1800     2100   
                                         GEOM     BASIS   MCVARS    GRID      RKS  

 PROGRAMS   *        TOTAL        KS       INT
 CPU TIMES  *      1469.60   1029.79    439.67
 REAL TIME  *     13746.92 SEC
 DISK USED  *        89.43 GB      
 **********************************************************************************************************************************


 PROGRAM * Intrinsic Basis Bonding Analysis (IBBA)          Author: G. Knizia

 Molecular orbitals read from record     2100.2  Type=RKS/CANONICAL (state 1.1)
 Fock matrix read from record            2100.2  Type=RKS/TOTAL (state 1.1)
 Orbital energies read from record       2100.2  Type=RKS/CANONICAL (state 1.1)
 Density matrix read from record         2100.2  Type=RKS/CHARGE (state 1.1)

 Number of core orbitals:           5 (   5 )
 Number of closed-shell orbitals:  16 (  16 )

 Basis set MINAO-AUTO-PP generated.      Number of basis functions:   35 

 Polarized AO type:                A = (O Ot + (1-O)(1-Ot)) P12
 Orthogonalization method:         Symmetric (Loewdin)
 Localization functional:          L = sum[A,i] <i|n_A|i>^4 -> max

 Localization group 1:  21 orbitals, occupancy  2.000
 Iterative localization: IB/PM,    7 iter; Final gradient 0.38E-08

 Bond order analysis:       [THRPRINT= 0.020]

   CEN ATOM   CEN ATOM     WIBERG.BO      RENORM.BO
     1   C  -   2   C       0.996721       0.993333
     1   C  -   5   H       0.961919       0.987290
     1   C  -   6   H       0.957036       0.981619
     1   C  -   7   H       0.957036       0.981619

     2   C  -   1   C       0.996721       0.993333
     2   C  -   9   C       0.995454       0.976023
     2   C  -   8   C       0.995454       0.976023
     2   C  -   3   O       0.933272       0.948846

     3   O  -   2   C       0.933272       0.948846
     3   O  -   4   H       0.858824       0.976740
     3   O  -   8   C       0.027272       0.013949
     3   O  -   9   C       0.027272       0.013949

     4   H  -   3   O       0.858824       0.976740

     5   H  -   1   C       0.961919       0.987290

     6   H  -   1   C       0.957036       0.981619

     7   H  -   1   C       0.957036       0.981619

     8   C  -   2   C       0.995454       0.976023
     8   C  -  14   H       0.961402       0.982324
     8   C  -  12   H       0.957750       0.981829
     8   C  -  10   H       0.957534       0.981481
     8   C  -   3   O       0.027272       0.013949

     9   C  -   2   C       0.995454       0.976023
     9   C  -  15   H       0.961402       0.982324
     9   C  -  13   H       0.957750       0.981829
     9   C  -  11   H       0.957534       0.981481
     9   C  -   3   O       0.027272       0.013949

    10   H  -   8   C       0.957534       0.981481

    11   H  -   9   C       0.957534       0.981481

    12   H  -   8   C       0.957750       0.981829

    13   H  -   9   C       0.957750       0.981829

    14   H  -   8   C       0.961402       0.982324

    15   H  -   9   C       0.961402       0.982324


 Valency analysis:

   CEN ATOM   TOT.VALENCE
     1   C       3.932442
     2   C       3.931056
     3   O       1.913044
     4   H       0.878119
     5   H       0.980455
     6   H       0.977768
     7   H       0.977768
     8   C       3.935137
     9   C       3.935137
    10   H       0.977783
    11   H       0.977783
    12   H       0.979622
    13   H       0.979622
    14   H       0.982056
    15   H       0.982056

 Total charge composition:

   CEN ATOM         s          p       ELECTRONS ->P.CHARGE
     1   C       3.04639    3.38411      6.43050   -0.43050
     2   C       2.94051    2.80326      5.74377    0.25623
     3   O       3.64976    4.92785      8.57761   -0.57761
     4   H       0.65089                 0.65089    0.34911
     5   H       0.86020                 0.86020    0.13980
     6   H       0.85090                 0.85090    0.14910
     7   H       0.85090                 0.85090    0.14910
     8   C       3.05252    3.39087      6.44339   -0.44339
     9   C       3.05252    3.39087      6.44339   -0.44339
    10   H       0.85095                 0.85095    0.14905
    11   H       0.85095                 0.85095    0.14905
    12   H       0.85725                 0.85725    0.14275
    13   H       0.85725                 0.85725    0.14275
    14   H       0.86604                 0.86604    0.13396
    15   H       0.86604                 0.86604    0.13396

 Total charge composition, AO contributions:

   CEN ATOM SHL      SPHERICAL COMPONENTS
     1   C  1s       1.99106
     1   C  2s       1.05533
     1   C  2p       1.04038    1.16585    1.17789

     2   C  1s       1.99271
     2   C  2s       0.94780
     2   C  2p       1.00682    0.78703    1.00940

     3   O  1s       1.99712
     3   O  2s       1.65264
     3   O  2p       1.47895    1.49182    1.95708

     4   H  1s       0.65089

     5   H  1s       0.86020

     6   H  1s       0.85090

     7   H  1s       0.85090

     8   C  1s       1.99116
     8   C  2s       1.06136
     8   C  2p       1.14739    1.14721    1.09627

     9   C  1s       1.99116
     9   C  2s       1.06136
     9   C  2p       1.14739    1.14721    1.09627

    10   H  1s       0.85095

    11   H  1s       0.85095

    12   H  1s       0.85725

    13   H  1s       0.85725

    14   H  1s       0.86604

    15   H  1s       0.86604

 Summary of localized orbital composition:   [THRPRINT= 0.020]

   ORB  GRP  ORB.ENERGY      CENTERS/CHARGES
     1   1   -19.041709      O  3   2.000
     2   1   -10.193904      C  2   2.000
     3   1   -10.098740      C  9   2.000
     4   1   -10.098740      C  8   2.000
     5   1   -10.092573      C  1   2.000
     6   1    -0.782396      O  3   1.351   H  4   0.640
     7   1    -0.738153      O  3   1.284   C  2   0.698
     8   1    -0.601157      O  3   1.982
     9   1    -0.591706      C  8   1.008   C  2   0.977
    10   1    -0.591706      C  9   1.008   C  2   0.977
    11   1    -0.591011      C  1   0.991   C  2   0.986   (other: 0.023)
    12   1    -0.520756      C  9   1.138   H 13   0.848
    13   1    -0.520756      C  8   1.138   H 12   0.848
    14   1    -0.518946      C  9   1.129   H 15   0.859
    15   1    -0.518946      C  8   1.129   H 14   0.859
    16   1    -0.516428      C  1   1.133   H  5   0.853
    17   1    -0.514871      C  8   1.147   H 10   0.843
    18   1    -0.514871      C  9   1.147   H 11   0.843
    19   1    -0.510206      C  1   1.146   H  7   0.843
    20   1    -0.510206      C  1   1.146   H  6   0.843
    21   1    -0.321496      O  3   1.957   (other: 0.043)

 Localized orbitals saved to record      2100.2  (orbital set 2)


 **********************************************************************************************************************************
 DATASETS  * FILE   NREC   LENGTH (MB)   RECORD NAMES
              1      20    23759.30       500      610      700      900      950      970     1000      129      960     1100   
                                          VAR    BASINP    GEOM    SYMINP    ZMAT    AOBASIS   BASIS     P2S    ABASIS      S 
                                         1400     1410     1200     1210     1080     1600     1650     1300     1700     1800   
                                           T        V       H0       H01     AOSYM     SMH    MOLCAS    ERIS     OPER     GRID   

              2       5        9.01       700     1000      520     1800     2100   
                                         GEOM     BASIS   MCVARS    GRID      RKS  

 PROGRAMS   *        TOTAL      IBBA        KS       INT
 CPU TIMES  *      1469.86      0.24   1029.79    439.67
 REAL TIME  *     13747.72 SEC
 DISK USED  *        89.43 GB      
 **********************************************************************************************************************************
 Molecular orbitals read from record     2100.2  Type=RKS/LOCAL(IBO)  
 Occupation numbers read from record     2100.2  Type=RKS/LOCAL(IBO)  
 Orbital energies read from record       2100.2  Type=RKS/LOCAL(IBO)  
 Redundancy group numbers read from rec  2100.2  Type=RKS/LOCAL(IBO)  

 IBBA/aug-cc-pVTZ energy=      0.000000000000

        KS-SCF  
   -233.48513757
 **********************************************************************************************************************************
 Molpro calculation terminated
