
 Primary working directories    : /tmp/sb13343
 Secondary working directories  : /tmp/sb13343
 Wavefunction directory         : /panfs/panasas01/chem/sb13343/wfu/
 Main file repository           : /tmp/sb13343/

 SHA1      : b4a5b34a9e711420743f49e6833241d17c61fb3c
 NAME      : 2099.9.b4a5b34
 ARCHNAME  : linux/x86_64_openmp
 FC        : /cm/shared/languages/GCC-6.1/bin/gfortran
 BLASLIB   : -lblas
 id        : simonbennie

 Nodes     nprocs
 node35-048    1

 Using customized tuning parameters: mindgm=1; mindgv=20; mindgc=4; mindgr=1; noblas=0; minvec=7
 default implementation of scratch files=df  

 memory,500,m
 geomtyp=xyz
 nosym
 noorient
 geometry={
 C          0.00000        0.00000        0.00000
 C          0.00000        0.00000        1.53307
 O          1.40344        0.00000        1.86307
 C          1.76314        0.00000        3.22887
 H         -1.02289        0.00000       -0.39176
 H          0.51995       -0.88625       -0.37815
 H          0.51995        0.88625       -0.37815
 H          2.85677        0.00000        3.25413
 H          1.40708       -0.89217        3.76475
 H          1.40708        0.89217        3.76475
 C         -0.69252       -1.26694        2.06222
 C         -0.69252        1.26694        2.06222
 H         -0.15366       -2.16088        1.72982
 H         -0.15366        2.16088        1.72982
 H         -1.72011       -1.32515        1.68649
 H         -1.72011        1.32515        1.68649
 H         -0.74365       -1.28188        3.15638
 H         -0.74365        1.28188        3.15638
 }
 basis={ default,svp }
 {ks,B97R,direct;wf,50,1,0}
 {ibba,bonds=1}

 Variables initialized (895), CPU time= 0.01 sec
 Commands  initialized (725), CPU time= 0.01 sec, 591 directives.
 Default parameters read. Elapsed time= 0.08 sec

 Checking input...
 Passed
1


                                         ***  PROGRAM SYSTEM MOLPRO  ***
                                       Copyright, TTI GmbH Stuttgart, 2015
                                    Version 2099.9 linked May 26 2017 16:03:21


 **********************************************************************************************************************************
 LABEL *                                                                                 
  64 bit serial version                                                                  DATE: 09-Jun-17          TIME: 01:39:41  
 **********************************************************************************************************************************

 SHA1:             b4a5b34a9e711420743f49e6833241d17c61fb3c
 **********************************************************************************************************************************
 SETTING GEOMTYP        =    XYZ

 Variable memory set to  500000000 words,  buffer space 

 ZSYMEL=NOSYM

 SETTING BASIS          =    SVP


 Recomputing integrals since basis changed


 Using spherical harmonics

 Library entry C      S def2-SVP             selected for orbital group  1
 Library entry C      P def2-SVP             selected for orbital group  1
 Library entry C      D def2-SVP             selected for orbital group  1
 Library entry O      S def2-SVP             selected for orbital group  2
 Library entry O      P def2-SVP             selected for orbital group  2
 Library entry O      D def2-SVP             selected for orbital group  2
 Library entry H      S def2-SVP             selected for orbital group  4
 Library entry H      P def2-SVP             selected for orbital group  4


 PROGRAM * SEWARD (Integral evaluation for generally contracted gaussian basis sets)     Author: Roland Lindh, 1990

 Geometry written to block  1 of record 700


 Point group  C1  



 ATOMIC COORDINATES

 NR  ATOM    CHARGE       X              Y              Z

   1  C       6.00    0.000000000    0.000000000    0.000000000
   2  C       6.00    0.000000000    0.000000000    2.897082430
   3  O       8.00    2.652117232    0.000000000    3.520692051
   4  C       6.00    3.331851719    0.000000000    6.101679992
   5  H       1.00   -1.932981956    0.000000000   -0.740319107
   6  H       1.00    0.982563098   -1.674769778   -0.714599934
   7  H       1.00    0.982563098    1.674769778   -0.714599934
   8  H       1.00    5.398512901    0.000000000    6.149414474
   9  H       1.00    2.658995835   -1.685956957    7.114346427
  10  H       1.00    2.658995835    1.685956957    7.114346427
  11  C       6.00   -1.308673136   -2.394169616    3.897031009
  12  C       6.00   -1.308673136    2.394169616    3.897031009
  13  H       1.00   -0.290375316   -4.083471388    3.268886045
  14  H       1.00   -0.290375316    4.083471388    3.268886045
  15  H       1.00   -3.250536804   -2.504170574    3.187004212
  16  H       1.00   -3.250536804    2.504170574    3.187004212
  17  H       1.00   -1.405294833   -2.422402125    5.964693745
  18  H       1.00   -1.405294833    2.422402125    5.964693745

 Bond lengths in Bohr (Angstrom)

 1-2  2.897082430  1-5  2.069901355  1-6  2.069042560  1-7  2.069042560  2-3  2.724447609
     ( 1.533070000)     ( 1.095344626)     ( 1.094890171)     ( 1.094890171)     ( 1.441715587)

  2-11  2.905954351   2-12  2.905954351   3- 4  2.668995640   4- 8  2.067212379   4- 9  2.078624355
       ( 1.537764818)       ( 1.537764818)       ( 1.412371669)       ( 1.093921681)       ( 1.099960639)

  4-10  2.078624355  11-13  2.070081404  11-15  2.070524757  11-17  2.070111596  12-14  2.070081404
       ( 1.099960639)       ( 1.095439904)       ( 1.095674516)       ( 1.095455880)       ( 1.095439904)

 12-16  2.070524757  12-18  2.070111596
       ( 1.095674516)       ( 1.095455880)

 Bond angles

  1- 2- 3  103.23196371   1- 2-11  110.12706952   1- 2-12  110.12706952   2- 1- 5  110.95650426

  2- 1- 6  110.20481748   2- 1- 7  110.20481748   2- 3- 4  117.98647004   2-11-13  110.26679927

  2-11-15  110.37287188   2-11-17  112.08316935   2-12-14  110.26679927   2-12-16  110.37287188

  2-12-18  112.08316935   3- 2-11  111.07703285   3- 2-12  111.07703285   3- 4- 8  106.07765410

  3- 4- 9  112.87219182   3- 4-10  112.87219182   5- 1- 6  108.65976572   5- 1- 7  108.65976572

  6- 1- 7  108.08288210   8- 4- 9  108.20190897   8- 4-10  108.20190897   9- 4-10  108.40564999

 11- 2-12  110.95103964  13-11-15  108.29648994  13-11-17  108.35544687  14-12-16  108.29648994

 14-12-18  108.35544687  15-11-17  107.33851825  16-12-18  107.33851825

 NUCLEAR CHARGE:                   50
 NUMBER OF PRIMITIVE AOS:         234
 NUMBER OF SYMMETRY AOS:          228
 NUMBER OF CONTRACTIONS:          144   ( 144A   )
 NUMBER OF CORE ORBITALS:           6   (   6A   )
 NUMBER OF VALENCE ORBITALS:       36   (  36A   )


 NUCLEAR REPULSION ENERGY  270.15500869


 Eigenvalues of metric

         1 0.176E-02 0.508E-02 0.513E-02 0.102E-01 0.124E-01 0.215E-01 0.221E-01 0.252E-01


 Contracted 2-electron integrals neglected if value below      1.0D-11
 AO integral compression algorithm  1   Integral accuracy      1.0D-11

     186.384 MB (compressed) written to integral file ( 41.3%)


 NUMBER OF SORTED TWO-ELECTRON INTEGRALS:   54502020.     BUFFER LENGTH:  32768
 NUMBER OF SEGMENTS:   4  SEGMENT LENGTH:   15999503      RECORD LENGTH: 524288

 Memory used in sort:      16.56 MW

 SORT1 READ    56333432. AND WROTE    45703433. INTEGRALS IN    132 RECORDS. CPU TIME:     0.81 SEC, REAL TIME:     1.60 SEC
 SORT2 READ    45703433. AND WROTE    54502020. INTEGRALS IN    711 RECORDS. CPU TIME:     1.23 SEC, REAL TIME:     1.64 SEC

 FILE SIZES:   FILE 1:   217.4 MBYTE,  FILE 4:   553.7 MBYTE,   TOTAL:    771.1 MBYTE

 OPERATOR DM      FOR CENTER  0  COORDINATES:    0.000000    0.000000    0.000000


 **********************************************************************************************************************************
 DATASETS  * FILE   NREC   LENGTH (MB)   RECORD NAMES
              1      19      194.45       500      610      700      900      950      970     1000      129      960     1100   
                                          VAR    BASINP    GEOM    SYMINP    ZMAT    AOBASIS   BASIS     P2S    ABASIS      S 
                                         1400     1410     1200     1210     1080     1600     1650     1300     1700   
                                           T        V       H0       H01     AOSYM     SMH    MOLCAS    ERIS     OPER   

 PROGRAMS   *        TOTAL       INT
 CPU TIMES  *         7.97      7.82
 REAL TIME  *        15.87 SEC
 DISK USED  *       771.70 MB      
 **********************************************************************************************************************************

 Density functional group B97R=B97RDF
 Functional: B97RDF(Automatically generated (new) B97RDF)                      Gradient terms: 1
 Use grid at  1800.2


 Exact exchange will be calculated, factor:  0.2100

 Functional: B97RDF                    Factor:  1.0000

 Generated new metagrid on record  1800.2 with target accuracy 1.0D-06 and 66012 points in CPU time    2.0
 Computed new grid on record 1800.1 in CPU time    2.3
  118710 words reserved for DFT integration

 PROGRAM * RKS-SCF (Restricted closed shell Kohn-Sham)     Authors: W. Meyer, H.-J. Werner, P.J. Knowles, 1993

 NUMBER OF ELECTRONS:      25+   25-    SPACE SYMMETRY=1    SPIN SYMMETRY: Singlet 
 CONVERGENCE THRESHOLDS:    1.00E-05 (Density)    1.00E-06 (Energy)
 MAX. NUMBER OF ITERATIONS:       60
 INTERPOLATION TYPE:            DIIS
 INTERPOLATION STEPS:              2 (START)      1 (STEP)
 LEVEL SHIFTS:                  0.00 (CLOSED)  0.00 (OPEN) 



 Use fine grid record 1800.2 for energy threshold  1.0D-06
 Orbital guess generated from atomic densities. Full valence occupancy:   25

 Molecular orbital dump at record        2100.2

 Initial occupancy:  25

 ITERATION    DDIFF          GRAD             ENERGY        2-EL.EN.            DIPOLE MOMENTS         DIIS   ORB.
    1      0.000D+00      0.000D+00      -272.49340681    800.391318   -0.68391    0.00000    0.62297    0    start
    2      0.000D+00      0.756D-02      -272.44036897    767.790097    0.03215   -0.00000   -0.10816    1    diag
    3      0.168D-01      0.869D-02      -272.68020704    786.135688   -0.39721    0.00000    0.38188    2    diag
    4      0.101D-01      0.866D-03      -272.68177269    785.274316   -0.32800    0.00000    0.31447    3    diag
    5      0.903D-03      0.331D-03      -272.68201823    785.361896   -0.36434    0.00000    0.32977    4    diag
    6      0.294D-03      0.720D-04      -272.68202917    785.415445   -0.35558    0.00000    0.32744    5    diag
    7      0.754D-04      0.297D-04      -272.68203147    785.406609   -0.35633    0.00000    0.32798    6    diag
    8      0.245D-04      0.290D-05      -272.68203150    785.409820   -0.35673    0.00000    0.32841    7    diag
    9      0.363D-05      0.690D-06      -272.68203150    785.410025   -0.35653    0.00000    0.32815    0    orth

 Final occupancy:  25

 !RKS STATE 1.1 Energy               -272.682031495747
 Nuclear energy                       270.15500869
 One-electron energy                 -903.50740240
 Two-electron energy                  392.70501258
 SCF exchange energy                  -38.35969674     Factor= 0.2100
 Density functional                   -32.03465037     B97RDF=-32.03465037
 Virial quotient                       -1.01123012
 !RKS STATE 1.1 Dipole moment          -0.35652502     0.00000000     0.32814526
 Dipole moment /Debye                  -0.90613686     0.00000000     0.83400743

 Orbital energies:

         1.1          2.1          3.1          4.1          5.1          6.1          7.1          8.1          9.1         10.1
    -19.136420   -10.248308   -10.231798   -10.185163   -10.185153   -10.179716    -1.014451    -0.791830    -0.691218    -0.685822

        11.1         12.1         13.1         14.1         15.1         16.1         17.1         18.1         19.1         20.1
     -0.663428    -0.544477    -0.482554    -0.460632    -0.457830    -0.429036    -0.411685    -0.396746    -0.380637    -0.371879

        21.1         22.1         23.1         24.1         25.1         26.1         27.1
     -0.363854    -0.341319    -0.341166    -0.294822    -0.249639     0.057761     0.089397

 HOMO     25.1    -0.249639 =      -6.7930eV
 LUMO     26.1     0.057761 =       1.5718eV
 LUMO-HOMO         0.307400 =       8.3648eV


 **********************************************************************************************************************************
 DATASETS  * FILE   NREC   LENGTH (MB)   RECORD NAMES
              1      20      196.57       500      610      700      900      950      970     1000      129      960     1100   
                                          VAR    BASINP    GEOM    SYMINP    ZMAT    AOBASIS   BASIS     P2S    ABASIS      S 
                                         1400     1410     1200     1210     1080     1600     1650     1300     1700     1800   
                                           T        V       H0       H01     AOSYM     SMH    MOLCAS    ERIS     OPER     GRID   

              2       5        3.48       700     1000      520     1800     2100   
                                         GEOM     BASIS   MCVARS    GRID      RKS  

 PROGRAMS   *        TOTAL        KS       INT
 CPU TIMES  *        32.56     24.59      7.82
 REAL TIME  *        42.13 SEC
 DISK USED  *       771.70 MB      
 **********************************************************************************************************************************


 PROGRAM * Intrinsic Basis Bonding Analysis (IBBA)          Author: G. Knizia

 Molecular orbitals read from record     2100.2  Type=RKS/CANONICAL (state 1.1)
 Fock matrix read from record            2100.2  Type=RKS/TOTAL (state 1.1)
 Orbital energies read from record       2100.2  Type=RKS/CANONICAL (state 1.1)
 Density matrix read from record         2100.2  Type=RKS/CHARGE (state 1.1)

 Number of core orbitals:           6 (   6 )
 Number of closed-shell orbitals:  19 (  19 )

 Basis set MINAO-AUTO-PP generated.      Number of basis functions:   42 

 Polarized AO type:                A = (O Ot + (1-O)(1-Ot)) P12
 Orthogonalization method:         Symmetric (Loewdin)
 Localization functional:          L = sum[A,i] <i|n_A|i>^4 -> max

 Localization group 1:  25 orbitals, occupancy  2.000
 Iterative localization: IB/PM,    7 iter; Final gradient 0.14E-08

 Bond order analysis:       [THRPRINT= 0.020]

   CEN ATOM   CEN ATOM     WIBERG.BO      RENORM.BO
     1   C  -   2   C       0.996098       0.995300
     1   C  -   5   H       0.965435       0.985979
     1   C  -   7   H       0.960935       0.981860
     1   C  -   6   H       0.960935       0.981860

     2   C  -   1   C       0.996098       0.995300
     2   C  -  12   C       0.992071       0.972714
     2   C  -  11   C       0.992071       0.972714
     2   C  -   3   O       0.926185       0.937740

     3   O  -   4   C       0.988172       1.014541
     3   O  -   2   C       0.926185       0.937740
     3   O  -   9   H       0.032824       0.019338
     3   O  -  10   H       0.032824       0.019338
     3   O  -  12   C       0.025768       0.013427
     3   O  -  11   C       0.025768       0.013427

     4   C  -   3   O       0.988172       1.014541
     4   C  -   8   H       0.957802       0.978330
     4   C  -   9   H       0.951076       0.938616
     4   C  -  10   H       0.951076       0.938616

     5   H  -   1   C       0.965435       0.985979

     6   H  -   1   C       0.960935       0.981860

     7   H  -   1   C       0.960935       0.981860

     8   H  -   4   C       0.957802       0.978330

     9   H  -   4   C       0.951076       0.938616
     9   H  -   3   O       0.032824       0.019338

    10   H  -   4   C       0.951076       0.938616
    10   H  -   3   O       0.032824       0.019338

    11   C  -   2   C       0.992071       0.972714
    11   C  -  17   H       0.963665       0.981575
    11   C  -  15   H       0.961886       0.986672
    11   C  -  13   H       0.961308       0.981855
    11   C  -   3   O       0.025768       0.013427

    12   C  -   2   C       0.992071       0.972714
    12   C  -  18   H       0.963665       0.981575
    12   C  -  16   H       0.961886       0.986672
    12   C  -  14   H       0.961308       0.981855
    12   C  -   3   O       0.025768       0.013427

    13   H  -  11   C       0.961308       0.981855

    14   H  -  12   C       0.961308       0.981855

    15   H  -  11   C       0.961886       0.986672

    16   H  -  12   C       0.961886       0.986672

    17   H  -  11   C       0.963665       0.981575

    18   H  -  12   C       0.963665       0.981575


 Valency analysis:

   CEN ATOM   TOT.VALENCE
     1   C       3.942064
     2   C       3.934510
     3   O       2.098568
     4   C       3.871377
     5   H       0.984654
     6   H       0.981714
     7   H       0.981714
     8   H       0.978661
     9   H       0.988287
    10   H       0.988287
    11   C       3.942282
    12   C       3.942282
    13   H       0.981980
    14   H       0.981980
    15   H       0.982573
    16   H       0.982573
    17   H       0.984535
    18   H       0.984535

 Total charge composition:

   CEN ATOM         s          p       ELECTRONS ->P.CHARGE
     1   C       3.02550    3.36289      6.38839   -0.38839
     2   C       2.92684    2.82566      5.75249    0.24751
     3   O       3.60280    4.80172      8.40452   -0.40452
     4   C       3.01335    3.16437      6.17772   -0.17772
     5   H       0.87612                 0.87612    0.12388
     6   H       0.86478                 0.86478    0.13522
     7   H       0.86478                 0.86478    0.13522
     8   H       0.85392                 0.85392    0.14608
     9   H       0.89177                 0.89177    0.10823
    10   H       0.89177                 0.89177    0.10823
    11   C       3.02562    3.38186      6.40747   -0.40747
    12   C       3.02562    3.38186      6.40747   -0.40747
    13   H       0.86576                 0.86576    0.13424
    14   H       0.86576                 0.86576    0.13424
    15   H       0.86799                 0.86799    0.13201
    16   H       0.86799                 0.86799    0.13201
    17   H       0.87564                 0.87564    0.12436
    18   H       0.87564                 0.87564    0.12436

 Total charge composition, AO contributions:

   CEN ATOM SHL      SPHERICAL COMPONENTS
     1   C  1s       1.99092
     1   C  2s       1.03458
     1   C  2p       1.15435    1.16787    1.04068

     2   C  1s       1.99261
     2   C  2s       0.93422
     2   C  2p       0.79532    1.01517    1.01517

     3   O  1s       1.99723
     3   O  2s       1.60557
     3   O  2p       1.43775    1.91287    1.45110

     4   C  1s       1.99157
     4   C  2s       1.02179
     4   C  2p       1.15475    1.16269    0.84693

     5   H  1s       0.87612

     6   H  1s       0.86478

     7   H  1s       0.86478

     8   H  1s       0.85392

     9   H  1s       0.89177

    10   H  1s       0.89177

    11   C  1s       1.99097
    11   C  2s       1.03464
    11   C  2p       1.14044    1.09484    1.14658

    12   C  1s       1.99097
    12   C  2s       1.03464
    12   C  2p       1.14044    1.09484    1.14658

    13   H  1s       0.86576

    14   H  1s       0.86576

    15   H  1s       0.86799

    16   H  1s       0.86799

    17   H  1s       0.87564

    18   H  1s       0.87564

 Summary of localized orbital composition:   [THRPRINT= 0.020]

   ORB  GRP  ORB.ENERGY      CENTERS/CHARGES
     1   1   -18.991446      O  3   2.000
     2   1   -10.157085      C  2   2.000
     3   1   -10.122117      C  4   2.000
     4   1   -10.070644      C 12   2.000
     5   1   -10.070644      C 11   2.000
     6   1   -10.064544      C  1   2.000
     7   1    -0.757228      O  3   1.250   C  4   0.742
     8   1    -0.729876      O  3   1.274   C  2   0.702   (other: 0.024)
     9   1    -0.571422      C 11   1.007   C  2   0.977
    10   1    -0.571422      C 12   1.007   C  2   0.977
    11   1    -0.568252      C  1   0.990   C  2   0.987   (other: 0.023)
    12   1    -0.540637      O  3   1.962   (other: 0.038)
    13   1    -0.517085      C  4   1.126   H 10   0.872
    14   1    -0.517085      C  4   1.126   H  9   0.872
    15   1    -0.514371      C  4   1.145   H  8   0.847
    16   1    -0.501965      C 11   1.125   H 15   0.860
    17   1    -0.501965      C 12   1.125   H 16   0.860
    18   1    -0.500439      C 12   1.122   H 18   0.868
    19   1    -0.500439      C 11   1.122   H 17   0.868
    20   1    -0.497786      C  1   1.118   H  5   0.869
    21   1    -0.496274      C 12   1.132   H 14   0.858
    22   1    -0.496274      C 11   1.132   H 13   0.858
    23   1    -0.490788      C  1   1.132   H  6   0.857
    24   1    -0.490788      C  1   1.132   H  7   0.857
    25   1    -0.299007      O  3   1.913   (other: 0.087)

 Localized orbitals saved to record      2100.2  (orbital set 2)


 **********************************************************************************************************************************
 DATASETS  * FILE   NREC   LENGTH (MB)   RECORD NAMES
              1      20      196.57       500      610      700      900      950      970     1000      129      960     1100   
                                          VAR    BASINP    GEOM    SYMINP    ZMAT    AOBASIS   BASIS     P2S    ABASIS      S 
                                         1400     1410     1200     1210     1080     1600     1650     1300     1700     1800   
                                           T        V       H0       H01     AOSYM     SMH    MOLCAS    ERIS     OPER     GRID   

              2       5        3.65       700     1000      520     1800     2100   
                                         GEOM     BASIS   MCVARS    GRID      RKS  

 PROGRAMS   *        TOTAL      IBBA        KS       INT
 CPU TIMES  *        32.61      0.05     24.59      7.82
 REAL TIME  *        42.39 SEC
 DISK USED  *       771.70 MB      
 **********************************************************************************************************************************
 Molecular orbitals read from record     2100.2  Type=RKS/LOCAL(IBO)  
 Occupation numbers read from record     2100.2  Type=RKS/LOCAL(IBO)  
 Orbital energies read from record       2100.2  Type=RKS/LOCAL(IBO)  
 Redundancy group numbers read from rec  2100.2  Type=RKS/LOCAL(IBO)  

 IBBA/SVP energy=      0.000000000000

        KS-SCF  
   -272.68203150
 **********************************************************************************************************************************
 Molpro calculation terminated
