
 Primary working directories    : /tmp/sb13343
 Secondary working directories  : /tmp/sb13343
 Wavefunction directory         : /panfs/panasas01/chem/sb13343/wfu/
 Main file repository           : /tmp/sb13343/

 SHA1      : b4a5b34a9e711420743f49e6833241d17c61fb3c
 NAME      : 2099.9.b4a5b34
 ARCHNAME  : linux/x86_64_openmp
 FC        : /cm/shared/languages/GCC-6.1/bin/gfortran
 BLASLIB   : -lblas
 id        : simonbennie

 Nodes     nprocs
 node32-037    1

 Using customized tuning parameters: mindgm=1; mindgv=20; mindgc=4; mindgr=1; noblas=0; minvec=7
 default implementation of scratch files=df  

 memory,500,m
 geomtyp=xyz
 nosym
 noorient
 geometry={
 H         -1.13405        1.76167        0.00000
 C         -1.32915        0.67205        0.00000
 C         -0.06360       -0.12883        0.00000
 C          0.67426       -0.31636        1.28970
 C          0.67426       -0.31636       -1.28970
 H         -1.94006        0.46750        0.88859
 H         -1.94006        0.46750       -0.88859
 H          1.28359        0.56876        1.55544
 H         -0.01165       -0.48291        2.13019
 H          1.36783       -1.16569        1.24157
 H          1.28359        0.56876       -1.55544
 H         -0.01165       -0.48291       -2.13019
 H          1.36783       -1.16569       -1.24157
 }
 basis={ default,sto-3g }
 {uks,B-LYP,direct;wf,33,1,1}
 {ibba,bonds=1}

 Variables initialized (895), CPU time= 0.01 sec
 Commands  initialized (725), CPU time= 0.01 sec, 591 directives.
 Default parameters read. Elapsed time= 0.08 sec

 Checking input...
 Passed
1


                                         ***  PROGRAM SYSTEM MOLPRO  ***
                                       Copyright, TTI GmbH Stuttgart, 2015
                                    Version 2099.9 linked May 26 2017 16:03:21


 **********************************************************************************************************************************
 LABEL *                                                                                 
  64 bit serial version                                                                  DATE: 08-Jun-17          TIME: 20:16:25  
 **********************************************************************************************************************************

 SHA1:             b4a5b34a9e711420743f49e6833241d17c61fb3c
 **********************************************************************************************************************************
 SETTING GEOMTYP        =    XYZ

 Variable memory set to  500000000 words,  buffer space 

 ZSYMEL=NOSYM

 SETTING BASIS          =    STO-3G


 Recomputing integrals since basis changed


 Using spherical harmonics

 Library entry H      S STO-3G               selected for orbital group  1
 Library entry C      S STO-3G               selected for orbital group  2
 Library entry C      P STO-3G               selected for orbital group  2


 PROGRAM * SEWARD (Integral evaluation for generally contracted gaussian basis sets)     Author: Roland Lindh, 1990

 Geometry written to block  1 of record 700


 Point group  C1  



 ATOMIC COORDINATES

 NR  ATOM    CHARGE       X              Y              Z

   1  H       1.00   -2.143043912    3.329073822    0.000000000
   2  C       6.00   -2.511729478    1.269990442    0.000000000
   3  C       6.00   -0.120186582   -0.243453417    0.000000000
   4  C       6.00    1.274166737   -0.597833757    2.437179783
   5  C       6.00    1.274166737   -0.597833757   -2.437179783
   6  H       1.00   -3.666182065    0.883446963    1.679191737
   7  H       1.00   -3.666182065    0.883446963   -1.679191737
   8  H       1.00    2.425633556    1.074800631    2.939355603
   9  H       1.00   -0.022015309   -0.912567643    4.025475693
  10  H       1.00    2.584824085   -2.202834846    2.346227264
  11  H       1.00    2.425633556    1.074800631   -2.939355603
  12  H       1.00   -0.022015309   -0.912567643   -4.025475693
  13  H       1.00    2.584824085   -2.202834846   -2.346227264

 Bond lengths in Bohr (Angstrom)

 1-2  2.091830159  2-3  2.830192527  2-6  2.074092940  2-7  2.074092940  3-4  2.830132841
     ( 1.106948849)     ( 1.497673388)     ( 1.097562717)     ( 1.097562717)     ( 1.497641803)

  3- 5  2.830132841   4- 8  2.091832255   4- 9  2.074085151   4-10  2.074156104   5-11  2.091832255
       ( 1.497641803)       ( 1.106949959)       ( 1.097558596)       ( 1.097596142)       ( 1.106949959)

  5-12  2.074085151   5-13  2.074156104
       ( 1.097558596)       ( 1.097596142)

 Bond angles

  1-2-3  112.17549786   1-2-6  106.35284965   1-2-7  106.35284965   2-3-4  118.89987932

  2-3-5  118.89987932   3-2-6  111.75744418   3-2-7  111.75744418   3-4-8  112.19808176

  3- 4- 9  111.75014522   3- 4-10  111.74379558   3- 5-11  112.19808176   3- 5-12  111.75014522

  3- 5-13  111.74379558   4- 3- 5  118.89276928   6- 2- 7  108.11431090   8- 4- 9  106.34995457

  8- 4-10  106.34572146   9- 4-10  108.12296896  11- 5-12  106.34995457  11- 5-13  106.34572146

 12- 5-13  108.12296896

 NUCLEAR CHARGE:                   33
 NUMBER OF PRIMITIVE AOS:          87
 NUMBER OF SYMMETRY AOS:           87
 NUMBER OF CONTRACTIONS:           29   (  29A   )
 NUMBER OF CORE ORBITALS:           4   (   4A   )
 NUMBER OF VALENCE ORBITALS:       25   (  25A   )


 NUCLEAR REPULSION ENERGY  124.92676597


 Eigenvalues of metric

         1 0.210E+00 0.225E+00 0.225E+00 0.315E+00 0.353E+00 0.353E+00 0.362E+00 0.372E+00


 Contracted 2-electron integrals neglected if value below      1.0D-11
 AO integral compression algorithm  1   Integral accuracy      1.0D-11

     0.786 MB (compressed) written to integral file (100.0%)


 NUMBER OF SORTED TWO-ELECTRON INTEGRALS:      94830.     BUFFER LENGTH:  32768
 NUMBER OF SEGMENTS:   1  SEGMENT LENGTH:      94830      RECORD LENGTH: 524288

 Memory used in sort:       0.65 MW

 SORT1 READ      108770. AND WROTE       91348. INTEGRALS IN      1 RECORDS. CPU TIME:     0.00 SEC, REAL TIME:     0.00 SEC
 SORT2 READ       91348. AND WROTE       94830. INTEGRALS IN      3 RECORDS. CPU TIME:     0.01 SEC, REAL TIME:     0.02 SEC

 FILE SIZES:   FILE 1:    31.0 MBYTE,  FILE 4:     4.2 MBYTE,   TOTAL:     35.2 MBYTE

 OPERATOR DM      FOR CENTER  0  COORDINATES:    0.000000    0.000000    0.000000


 **********************************************************************************************************************************
 DATASETS  * FILE   NREC   LENGTH (MB)   RECORD NAMES
              1      19       30.62       500      610      700      900      950      970     1000      129      960     1100   
                                          VAR    BASINP    GEOM    SYMINP    ZMAT    AOBASIS   BASIS     P2S    ABASIS      S 
                                         1400     1410     1200     1210     1080     1600     1650     1300     1700   
                                           T        V       H0       H01     AOSYM     SMH    MOLCAS    ERIS     OPER   

 PROGRAMS   *        TOTAL       INT
 CPU TIMES  *         0.58      0.45
 REAL TIME  *         0.91 SEC
 DISK USED  *        35.68 MB      
 **********************************************************************************************************************************

 Density functional group B-LYP=B88+LYP
 Functional: B88(Automatically generated (new) B88)                            Gradient terms: 1
 Functional: LYP(Automatically generated (new) LYP)                            Gradient terms: 1
 Use grid at  1800.2

 Functional: B88                       Factor:  1.0000
 Functional: LYP                       Factor:  1.0000

 Generated new metagrid on record  1800.2 with target accuracy 1.0D-06 and 45406 points in CPU time    1.3
 Computed new grid on record 1800.1 in CPU time    1.4
   27459 words reserved for DFT integration

 PROGRAM * UKS-SCF (Unrestricted Kohn-Sham)     Authors: W. Meyer, H.-J. Werner, P.J. Knowles, 1993

 NUMBER OF ELECTRONS:      17+   16-    SPACE SYMMETRY=1    SPIN SYMMETRY: Doublet 
 CONVERGENCE THRESHOLDS:    1.00E-05 (Density)    1.00E-06 (Energy)
 MAX. NUMBER OF ITERATIONS:       60
 INTERPOLATION TYPE:            DIIS
 INTERPOLATION STEPS:              2 (START)      1 (STEP)
 LEVEL SHIFTS:                 -0.20 (ALPHA)  -0.20 (BETA) 



 Use fine grid record 1800.2 for energy threshold  1.0D-06
 Orbital guess generated from atomic densities. Full valence occupancy:   17

 Molecular orbital dump at record        2200.2

 Initial alpha occupation  17
 Initial beta  occupation  16

 ITERATION    DDIFF          GRAD             ENERGY        2-EL.EN.            DIPOLE MOMENTS         DIIS
    1      0.000D+00      0.000D+00      -155.50264817    412.949993    0.20748    0.41956   -0.00000    0
    2      0.633D-01      0.211D-01      -155.76256916    399.049485    0.02596    0.05257   -0.00000    1
    3      0.109D-01      0.452D-02      -155.77397954    401.205742    0.04279    0.08661   -0.00000    2
    4      0.161D-02      0.833D-03      -155.77479558    401.183637    0.04111    0.08321   -0.00000    3
    5      0.756D-03      0.444D-03      -155.77499452    401.186544    0.03869    0.07831   -0.00000    4
    6      0.323D-03      0.110D-03      -155.77501346    401.180158    0.03823    0.07739   -0.00000    5
    7      0.363D-04      0.140D-04      -155.77501373    401.179952    0.03818    0.07729   -0.00000    6
    8      0.651D-05      0.273D-05      -155.77501374    401.180024    0.03818    0.07729   -0.00000    5
    9      0.911D-06      0.539D-06      -155.77501374    401.179949    0.03818    0.07729   -0.00000    5

 Final alpha occupancy:  17
 Final beta  occupancy:  16

 !UKS STATE 1.1 Energy               -155.775013737390
 Nuclear energy                       124.92676597
 One-electron energy                 -456.33709240
 Two-electron energy                  200.58997468
 Density functional                   -24.95466200     B88=-23.92292591 LYP= -1.03173609
 Virial quotient                       -1.01565996
 !UKS STATE 1.1 Dipole moment           0.03817935     0.07728867    -0.00000000
 Dipole moment /Debye                   0.09703587     0.19643534    -0.00000000

 Orbital energies for positive spin:

         1.1          2.1          3.1          4.1          5.1          6.1          7.1          8.1          9.1         10.1
     -9.739512    -9.739507    -9.739506    -9.717777    -0.671571    -0.575222    -0.575215    -0.430849    -0.345295    -0.343202

        11.1         12.1         13.1         14.1         15.1         16.1         17.1         18.1         19.1
     -0.343200    -0.295324    -0.295291    -0.278201    -0.247359    -0.247353    -0.054639     0.343282     0.343290

 Orbital energies for negative spin:

         1.1          2.1          3.1          4.1          5.1          6.1          7.1          8.1          9.1         10.1
     -9.740279    -9.740274    -9.740258    -9.705722    -0.657368    -0.573634    -0.573627    -0.414086    -0.340029    -0.340026

        11.1         12.1         13.1         14.1         15.1         16.1         17.1         18.1         19.1
     -0.332024    -0.291643    -0.291611    -0.277525    -0.242135    -0.242128     0.039550     0.347091     0.347098

 HOMO     17.1    -0.054639 =      -1.4868eV
 LUMO    -17.1     0.039550 =       1.0762eV
 LUMO-HOMO         0.094189 =       2.5630eV

 EXPECTATION VALUE OF S**2:             0.75302297

 Occupation number threshold for canonical orbitals:  1.999000 (occupied),  0.001000 (virtual)

 Number of pseudo-canonical orbitals per symmetry:   16
 Number of active natural orbitals per symmetry:      1

 Natural orbitals saved to record    2200.2 (Orbital set 3)

 Orbital spaces for UNO-CAS (Min. occupation: 0.020  Max. occupation: 1.980):

 Closed:       16
 Active:        1


 **********************************************************************************************************************************
 DATASETS  * FILE   NREC   LENGTH (MB)   RECORD NAMES
              1      20       32.07       500      610      700      900      950      970     1000      129      960     1100   
                                          VAR    BASINP    GEOM    SYMINP    ZMAT    AOBASIS   BASIS     P2S    ABASIS      S 
                                         1400     1410     1200     1210     1080     1600     1650     1300     1700     1800   
                                           T        V       H0       H01     AOSYM     SMH    MOLCAS    ERIS     OPER     GRID   

              2       5        3.00       700     1000      520     1800     2200   
                                         GEOM     BASIS   MCVARS    GRID      UKS  

 PROGRAMS   *        TOTAL       UKS       INT
 CPU TIMES  *         4.39      3.81      0.45
 REAL TIME  *         4.81 SEC
 DISK USED  *        35.68 MB      
 **********************************************************************************************************************************


 PROGRAM * Intrinsic Basis Bonding Analysis (IBBA)          Author: G. Knizia

 Molecular orbitals read from record     2200.2  Type=UKS/ALPHA (state 1.1)
 Fock matrix read from record            2200.2  Type=UKS/TOTAL (state 1.1)
 Orbital energies read from record       2200.2  Type=UKS/ALPHA (state 1.1)
 Density matrix read from record         2200.2  Type=UKS/CHARGE (state 1.1)

 Number of core orbitals:           4 (   4 )
 Number of closed-shell orbitals:  12 (  12 )
 Number of active  orbitals:        1 (   1 )

 Basis set MINAO-AUTO-PP generated.      Number of basis functions:   29 

 Polarized AO type:                A = (O Ot + (1-O)(1-Ot)) P12
 Orthogonalization method:         Symmetric (Loewdin)
 Localization functional:          L = sum[A,i] <i|n_A|i>^4 -> max

 Localization group 1:  16 orbitals, occupancy  2.000
 Iterative localization: IB/PM,    8 iter; Final gradient 0.37E-09

 Bond order analysis:       [THRPRINT= 0.020]

   CEN ATOM   CEN ATOM     WIBERG.BO      RENORM.BO
     1   H  -   2   C       0.901296       0.997001
     1   H  -   3   C       0.046008       0.183353

     2   C  -   3   C       1.105309       1.312200
     2   C  -   7   H       0.953398       0.989327
     2   C  -   6   H       0.953398       0.989327
     2   C  -   1   H       0.901296       0.997001

     3   C  -   2   C       1.105309       1.312200
     3   C  -   5   C       1.105296       1.312163
     3   C  -   4   C       1.105296       1.312163
     3   C  -   1   H       0.046008       0.183353
     3   C  -  11   H       0.045978       0.183234
     3   C  -   8   H       0.045978       0.183234

     4   C  -   3   C       1.105296       1.312163
     4   C  -   9   H       0.953445       0.989320
     4   C  -  10   H       0.953331       0.989338
     4   C  -   8   H       0.901327       0.996996

     5   C  -   3   C       1.105296       1.312163
     5   C  -  12   H       0.953445       0.989320
     5   C  -  13   H       0.953331       0.989338
     5   C  -  11   H       0.901327       0.996996

     6   H  -   2   C       0.953398       0.989327

     7   H  -   2   C       0.953398       0.989327

     8   H  -   4   C       0.901327       0.996996
     8   H  -   3   C       0.045978       0.183234

     9   H  -   4   C       0.953445       0.989320

    10   H  -   4   C       0.953331       0.989338

    11   H  -   5   C       0.901327       0.996996
    11   H  -   3   C       0.045978       0.183234

    12   H  -   5   C       0.953445       0.989320

    13   H  -   5   C       0.953331       0.989338


 Valency analysis:

   CEN ATOM   TOT.VALENCE
     1   H       0.969302
     2   C       3.946440
     3   C       3.509951
     4   C       3.946437
     5   C       3.946437
     6   H       0.980843
     7   H       0.980843
     8   H       0.969305
     9   H       0.980855
    10   H       0.980830
    11   H       0.969305
    12   H       0.980855
    13   H       0.980830
 Localization group 2:   1 orbitals, occupancy  1.000
 Iterative localization: IB/PM,    1 iter; Final gradient 0.00E+00

 Bond order analysis:       [THRPRINT= 0.020]

   CEN ATOM   CEN ATOM     WIBERG.BO      RENORM.BO
     1   H  -   3   C       0.076053       0.500000


     3   C  -   1   H       0.076053       0.500000
     3   C  -  11   H       0.076047       0.500000
     3   C  -   8   H       0.076047       0.500000





     8   H  -   3   C       0.076047       0.500000



    11   H  -   3   C       0.076047       0.500000




 Valency analysis:

   CEN ATOM   TOT.VALENCE
     1   H       0.093787
     2   C       0.014840
     3   C       0.353212
     4   C       0.014820
     5   C       0.014820
     6   H       0.019370
     7   H       0.019370
     8   H       0.093780
     9   H       0.019298
    10   H       0.019465
    11   H       0.093780
    12   H       0.019298
    13   H       0.019465

 Total charge composition:

   CEN ATOM         s          p       ELECTRONS ->P.CHARGE
     1   H       0.87412                 0.87412    0.12588
     2   C       2.98518    3.36096      6.34614   -0.34614
     3   C       3.01255    3.09842      6.11098   -0.11098
     4   C       2.98517    3.36096      6.34614   -0.34614
     5   C       2.98517    3.36096      6.34614   -0.34614
     6   H       0.87137                 0.87137    0.12863
     7   H       0.87137                 0.87137    0.12863
     8   H       0.87412                 0.87412    0.12588
     9   H       0.87138                 0.87138    0.12862
    10   H       0.87137                 0.87137    0.12863
    11   H       0.87412                 0.87412    0.12588
    12   H       0.87138                 0.87138    0.12862
    13   H       0.87137                 0.87137    0.12863

 Total charge composition, AO contributions:

   CEN ATOM SHL      SPHERICAL COMPONENTS
     1   H  1s       0.87412

     2   C  1s       1.99196
     2   C  2s       0.99323
     2   C  2p       1.08565    1.11237    1.16293

     3   C  1s       1.99323
     3   C  2s       1.01932
     3   C  2p       1.02703    1.05258    1.01881

     4   C  1s       1.99196
     4   C  2s       0.99322
     4   C  2p       1.13155    1.14517    1.08424

     5   C  1s       1.99196
     5   C  2s       0.99322
     5   C  2p       1.13155    1.14517    1.08424

     6   H  1s       0.87137

     7   H  1s       0.87137

     8   H  1s       0.87412

     9   H  1s       0.87138

    10   H  1s       0.87137

    11   H  1s       0.87412

    12   H  1s       0.87138

    13   H  1s       0.87137

 Active orbital charges:

   CEN ATOM         s          p       ELECTRONS ->SPIN.DEN
     1   H       0.04933                 0.04933    0.04933
     2   C       0.00017    0.00731      0.00748    0.00748
     3   C       0.01171    0.75921      0.77091    0.77091
     4   C       0.00017    0.00729      0.00747    0.00747
     5   C       0.00017    0.00729      0.00747    0.00747
     6   H       0.00978                 0.00978    0.00978
     7   H       0.00978                 0.00978    0.00978
     8   H       0.04932                 0.04932    0.04932
     9   H       0.00974                 0.00974    0.00974
    10   H       0.00983                 0.00983    0.00983
    11   H       0.04932                 0.04932    0.04932
    12   H       0.00974                 0.00974    0.00974
    13   H       0.00983                 0.00983    0.00983

 Active orbital charges, AO contributions:

   CEN ATOM SHL      SPHERICAL COMPONENTS
     1   H  1s       0.04933

     2   C  1s       0.00000
     2   C  2s       0.00017
     2   C  2p       0.00014    0.00717    0.00000

     3   C  1s       0.00002
     3   C  2s       0.01169
     3   C  2p       0.14858    0.61063    0.00000

     4   C  1s       0.00000
     4   C  2s       0.00017
     4   C  2p       0.00230    0.00446    0.00054

     5   C  1s       0.00000
     5   C  2s       0.00017
     5   C  2p       0.00230    0.00446    0.00054

     6   H  1s       0.00978

     7   H  1s       0.00978

     8   H  1s       0.04932

     9   H  1s       0.00974

    10   H  1s       0.00983

    11   H  1s       0.04932

    12   H  1s       0.00974

    13   H  1s       0.00983

 Summary of localized orbital composition:   [THRPRINT= 0.020]

   ORB  GRP  ORB.ENERGY      CENTERS/CHARGES
     1   1    -9.630230      C  2   2.000
     2   1    -9.630225      C  4   2.000
     3   1    -9.630225      C  5   2.000
     4   1    -9.614537      C  3   2.000
     5   1    -0.473391      C  3   1.005   C  4   0.983
     6   1    -0.473391      C  3   1.005   C  5   0.983
     7   1    -0.473370      C  3   1.005   C  2   0.983
     8   1    -0.404433      C  2   1.102   H  1   0.819   C  3   0.074
     9   1    -0.404429      C  5   1.102   H 11   0.819   C  3   0.074
    10   1    -0.404429      C  4   1.102   H  8   0.819   C  3   0.074
    11   1    -0.400332      C  2   1.123   H  7   0.855   (other: 0.022)
    12   1    -0.400332      C  2   1.123   H  6   0.855   (other: 0.022)
    13   1    -0.400329      C  5   1.123   H 12   0.855   (other: 0.022)
    14   1    -0.400329      C  4   1.123   H  9   0.855   (other: 0.022)
    15   1    -0.400307      C  5   1.123   H 13   0.855   (other: 0.022)
    16   1    -0.400307      C  4   1.123   H 10   0.855   (other: 0.022)
    17   2    -0.008133      C  3   0.771   H  1   0.049   H 11   0.049   H  8   0.049   (other: 0.081)

 Localized orbitals saved to record      2200.2  (orbital set 4)


 **********************************************************************************************************************************
 DATASETS  * FILE   NREC   LENGTH (MB)   RECORD NAMES
              1      20       32.07       500      610      700      900      950      970     1000      129      960     1100   
                                          VAR    BASINP    GEOM    SYMINP    ZMAT    AOBASIS   BASIS     P2S    ABASIS      S 
                                         1400     1410     1200     1210     1080     1600     1650     1300     1700     1800   
                                           T        V       H0       H01     AOSYM     SMH    MOLCAS    ERIS     OPER     GRID   

              2       5        3.01       700     1000      520     1800     2200   
                                         GEOM     BASIS   MCVARS    GRID      UKS  

 PROGRAMS   *        TOTAL      IBBA       UKS       INT
 CPU TIMES  *         4.42      0.02      3.81      0.45
 REAL TIME  *         4.92 SEC
 DISK USED  *        35.68 MB      
 **********************************************************************************************************************************
 Molecular orbitals read from record     2200.2  Type=UKS/LOCAL(IBO)  
 Occupation numbers read from record     2200.2  Type=UKS/LOCAL(IBO)  
 Orbital energies read from record       2200.2  Type=UKS/LOCAL(IBO)  
 Redundancy group numbers read from rec  2200.2  Type=UKS/BETA (state 1.1)

 IBBA/STO-3G energy=      0.000000000000

        UKS-SCF 
   -155.77501374
 **********************************************************************************************************************************
 Molpro calculation terminated
