
 Primary working directories    : /local
 Secondary working directories  : /local
 Wavefunction directory         : /local/
 Main file repository           : /local/

 SHA1      : b4a5b34a9e711420743f49e6833241d17c61fb3c
 NAME      : 2099.9.b4a5b34
 ARCHNAME  : linux/x86_64_openmp
 FC        : /cm/shared/languages/GCC-6.1/bin/gfortran
 BLASLIB   : -lblas
 id        : simonbennie

 Nodes     nprocs
 node47-008    1

 Using customized tuning parameters: mindgm=1; mindgv=20; mindgc=4; mindgr=1; noblas=0; minvec=7
 default implementation of scratch files=df  

 memory,500,m
 geomtyp=xyz
 nosym
 noorient
 geometry={
 C         -1.53233        0.02247        0.00000
 C         -0.00192        0.01421        0.00000
 O          0.37239        1.40356        0.00000
 H          1.34248        1.44036        0.00000
 H         -1.92991       -0.99819        0.00000
 H         -1.90797        0.54382       -0.88653
 H         -1.90797        0.54382        0.88653
 C          0.54303       -0.66466       -1.26580
 C          0.54303       -0.66466        1.26580
 H          0.17836       -0.14752       -2.15943
 H          0.17836       -0.14752        2.15943
 H          0.23752       -1.71600       -1.32280
 H          0.23752       -1.71600        1.32280
 H          1.64084       -0.63767       -1.28032
 H          1.64084       -0.63767        1.28032
 }
 basis={ default,SV(P) }
 {uks,SOGGA11,direct;wf,42,1,0}
 {ibba,bonds=1}

 Variables initialized (895), CPU time= 0.01 sec
 Commands  initialized (725), CPU time= 0.01 sec, 591 directives.
 Default parameters read. Elapsed time= 0.15 sec

 Checking input...
 Passed
1


                                         ***  PROGRAM SYSTEM MOLPRO  ***
                                       Copyright, TTI GmbH Stuttgart, 2015
                                    Version 2099.9 linked May 26 2017 16:03:21


 **********************************************************************************************************************************
 LABEL *                                                                                 
  64 bit serial version                                                                  DATE: 12-Jun-17          TIME: 20:25:21  
 **********************************************************************************************************************************

 SHA1:             b4a5b34a9e711420743f49e6833241d17c61fb3c
 **********************************************************************************************************************************
 SETTING GEOMTYP        =    XYZ

 Variable memory set to  500000000 words,  buffer space 

 ZSYMEL=NOSYM

 SETTING BASIS          =    SV(P)


 Recomputing integrals since basis changed


 Using spherical harmonics

 Library entry C      S def2-SV(P)           selected for orbital group  1
 Library entry C      P def2-SV(P)           selected for orbital group  1
 Library entry C      D def2-SV(P)           selected for orbital group  1
 Library entry O      S def2-SV(P)           selected for orbital group  2
 Library entry O      P def2-SV(P)           selected for orbital group  2
 Library entry O      D def2-SV(P)           selected for orbital group  2
 Library entry H      S def2-SV(P)           selected for orbital group  3


 PROGRAM * SEWARD (Integral evaluation for generally contracted gaussian basis sets)     Author: Roland Lindh, 1990

 Geometry written to block  1 of record 700


 Point group  C1  



 ATOMIC COORDINATES

 NR  ATOM    CHARGE       X              Y              Z

   1  C       6.00   -2.895684032    0.042462146    0.000000000
   2  C       6.00   -0.003628274    0.026853008    0.000000000
   3  O       8.00    0.703715112    2.652343999    0.000000000
   4  H       1.00    2.536919528    2.721885921    0.000000000
   5  H       1.00   -3.647001345   -1.886305720    0.000000000
   6  H       1.00   -3.605540754    1.027670861   -1.675298901
   7  H       1.00   -3.605540754    1.027670861    1.675298901
   8  C       6.00    1.026177977   -1.256025366   -2.392015328
   9  C       6.00    1.026177977   -1.256025366    2.392015328
  10  H       1.00    0.337051552   -0.278772398   -4.080731285
  11  H       1.00    0.337051552   -0.278772398    4.080731285
  12  H       1.00    0.448847749   -3.242770030   -2.499729718
  13  H       1.00    0.448847749   -3.242770030    2.499729718
  14  H       1.00    3.100738214   -1.205021658   -2.419454152
  15  H       1.00    3.100738214   -1.205021658    2.419454152

 Bond lengths in Bohr (Angstrom)

 1-2  2.892097881  1-5  2.069933136  1-6  2.069096224  1-7  2.069096224  2-3  2.719106031
     ( 1.530432290)     ( 1.095361444)     ( 1.094918569)     ( 1.094918569)     ( 1.438888946)

  2- 8  2.903104402   2- 9  2.903104402   3- 4  1.834522965   8-10  2.069222119   8-12  2.071730422
       ( 1.536256691)       ( 1.536256691)       ( 0.970787746)       ( 1.094985190)       ( 1.096312526)

  8-14  2.075368508   9-11  2.069222119   9-13  2.071730422   9-15  2.075368508
       ( 1.098237719)       ( 1.094985190)       ( 1.096312526)       ( 1.098237719)

 Bond angles

  1-2-3  104.76902697   1-2-8  110.92255387   1-2-9  110.92255387   2-1-5  110.97328220

  2- 1- 6  110.22090701   2- 1- 7  110.22090701   2- 3- 4  107.25071562   2- 8-10  110.21836376

  2- 8-12  111.57747468   2- 8-14  110.77023896   2- 9-11  110.21836376   2- 9-13  111.57747468

  2- 9-15  110.77023896   3- 2- 8  109.53648747   3- 2- 9  109.53648747   5- 1- 6  108.61190457

  5- 1- 7  108.61190457   6- 1- 7  108.12870271   8- 2- 9  110.96453384  10- 8-12  108.52192632

 10- 8-14  108.08997829  11- 9-13  108.52192632  11- 9-15  108.08997829  12- 8-14  107.54424578

 13- 9-15  107.54424578

 NUCLEAR CHARGE:                   42
 NUMBER OF PRIMITIVE AOS:         165
 NUMBER OF SYMMETRY AOS:          160
 NUMBER OF CONTRACTIONS:           90   (  90A   )
 NUMBER OF CORE ORBITALS:           5   (   5A   )
 NUMBER OF VALENCE ORBITALS:       30   (  30A   )


 NUCLEAR REPULSION ENERGY  198.77359127


 Eigenvalues of metric

         1 0.179E-02 0.600E-02 0.603E-02 0.144E-01 0.286E-01 0.297E-01 0.300E-01 0.361E-01


 Contracted 2-electron integrals neglected if value below      1.0D-11
 AO integral compression algorithm  1   Integral accuracy      1.0D-11

     37.487 MB (compressed) written to integral file ( 49.6%)


 NUMBER OF SORTED TWO-ELECTRON INTEGRALS:    8386560.     BUFFER LENGTH:  32768
 NUMBER OF SEGMENTS:   1  SEGMENT LENGTH:    8386560      RECORD LENGTH: 524288

 Memory used in sort:       8.94 MW

 SORT1 READ     9478508. AND WROTE     7931434. INTEGRALS IN     23 RECORDS. CPU TIME:     0.11 SEC, REAL TIME:     0.90 SEC
 SORT2 READ     7931434. AND WROTE     8386560. INTEGRALS IN    143 RECORDS. CPU TIME:     0.24 SEC, REAL TIME:     0.35 SEC

 FILE SIZES:   FILE 1:    68.0 MBYTE,  FILE 4:    96.5 MBYTE,   TOTAL:    164.5 MBYTE

 OPERATOR DM      FOR CENTER  0  COORDINATES:    0.000000    0.000000    0.000000


 **********************************************************************************************************************************
 DATASETS  * FILE   NREC   LENGTH (MB)   RECORD NAMES
              1      19       63.39       500      610      700      900      950      970     1000      129      960     1100   
                                          VAR    BASINP    GEOM    SYMINP    ZMAT    AOBASIS   BASIS     P2S    ABASIS      S 
                                         1400     1410     1200     1210     1080     1600     1650     1300     1700   
                                           T        V       H0       H01     AOSYM     SMH    MOLCAS    ERIS     OPER   

 PROGRAMS   *        TOTAL       INT
 CPU TIMES  *         1.89      1.76
 REAL TIME  *         6.30 SEC
 DISK USED  *       165.03 MB      
 **********************************************************************************************************************************

 Density functional group SOGGA11=XC-SOGGA11
 Functional: XC-SOGGA11(via MFM 1.6)                                           Gradient terms: 1
 Use grid at  1800.2

 Functional: XC-SOGGA11                Factor:  1.0000

 Generated new metagrid on record  1800.2 with target accuracy 1.0D-06 and 53396 points in CPU time    1.6
 Computed new grid on record 1800.1 in CPU time    1.8
   75909 words reserved for DFT integration

 PROGRAM * UKS-SCF (Unrestricted Kohn-Sham)     Authors: W. Meyer, H.-J. Werner, P.J. Knowles, 1993

 NUMBER OF ELECTRONS:      21+   21-    SPACE SYMMETRY=1    SPIN SYMMETRY: Singlet 
 CONVERGENCE THRESHOLDS:    1.00E-05 (Density)    1.00E-06 (Energy)
 MAX. NUMBER OF ITERATIONS:       60
 INTERPOLATION TYPE:            DIIS
 INTERPOLATION STEPS:              2 (START)      1 (STEP)
 LEVEL SHIFTS:                 -0.20 (ALPHA)  -0.20 (BETA) 



 Use fine grid record 1800.2 for energy threshold  1.0D-06
 Orbital guess generated from atomic densities. Full valence occupancy:   21

 Molecular orbital dump at record        2200.2

 Initial alpha occupation  21
 Initial beta  occupation  21

 ITERATION    DDIFF          GRAD             ENERGY        2-EL.EN.            DIPOLE MOMENTS         DIIS
    1      0.000D+00      0.000D+00      -233.15946771    641.474842    0.74863   -0.83747    0.00000    0
    2      0.202D-01      0.862D-02      -233.39955021    615.596447    0.27749   -0.34168    0.00000    1
    3      0.708D-02      0.462D-02      -233.47096436    623.320426    0.42232   -0.51161    0.00000    2
    4      0.172D-02      0.657D-03      -233.47279367    623.165209    0.40659   -0.44772    0.00000    3
    5      0.181D-02      0.312D-03      -233.47367926    623.057564    0.40226   -0.43891    0.00000    4
    6      0.177D-02      0.138D-03      -233.47400876    622.911597    0.39996   -0.40878    0.00000    5
    7      0.499D-03      0.496D-04      -233.47403680    622.839417    0.39594   -0.40149    0.00000    6
    8      0.260D-03      0.269D-04      -233.47404328    622.845868    0.39463   -0.39874    0.00000    7
    9      0.680D-04      0.490D-05      -233.47404364    622.841702    0.39398   -0.39662    0.00000    7
   10      0.263D-04      0.189D-05      -233.47404370    622.841289    0.39324   -0.39644    0.00000    7
   11      0.142D-04      0.882D-06      -233.47404372    622.842207    0.39299   -0.39606    0.00000    8
   12      0.290D-05      0.259D-06      -233.47404372    622.841832    0.39291   -0.39601    0.00000    8
   13      0.721D-06      0.787D-07      -233.47404372    622.841920    0.39289   -0.39599    0.00000    7

 Final alpha occupancy:  21
 Final beta  occupancy:  21

 !UKS STATE 1.1 Energy               -233.474043716485
 Nuclear energy                       198.77359127
 One-electron energy                 -709.61956029
 Two-electron energy                  311.42095988
 Density functional                   -34.04903458     XC-SOGGA11=-34.04903458
 Virial quotient                       -1.00949588
 !UKS STATE 1.1 Dipole moment           0.39288869    -0.39599313     0.00000000
 Dipole moment /Debye                   0.99855804    -1.00644821     0.00000000

 Orbital energies for positive spin:

         1.1          2.1          3.1          4.1          5.1          6.1          7.1          8.1          9.1         10.1
    -18.738395    -9.964894    -9.887533    -9.887507    -9.881954    -0.901638    -0.699238    -0.612340    -0.611150    -0.503011

        11.1         12.1         13.1         14.1         15.1         16.1         17.1         18.1         19.1         20.1
     -0.432675    -0.397919    -0.396585    -0.359270    -0.349195    -0.332292    -0.321139    -0.305413    -0.301769    -0.267187

        21.1         22.1         23.1
     -0.207729     0.036375     0.080714

 Orbital energies for negative spin:

         1.1          2.1          3.1          4.1          5.1          6.1          7.1          8.1          9.1         10.1
    -18.738395    -9.964894    -9.887533    -9.887507    -9.881954    -0.901638    -0.699238    -0.612340    -0.611150    -0.503011

        11.1         12.1         13.1         14.1         15.1         16.1         17.1         18.1         19.1         20.1
     -0.432675    -0.397919    -0.396585    -0.359270    -0.349195    -0.332292    -0.321139    -0.305413    -0.301769    -0.267187

        21.1         22.1         23.1
     -0.207729     0.036375     0.080714

 HOMO     21.1    -0.207729 =      -5.6526eV
 LUMO     22.1     0.036375 =       0.9898eV
 LUMO-HOMO         0.244104 =       6.6424eV

 EXPECTATION VALUE OF S**2:            -0.00000000

 Natural orbitals saved to record    2200.2 (Orbital set 3)

 Orbital spaces for UNO-CAS (Min. occupation: 0.020  Max. occupation: 1.980):

 Closed:       21
 Active:        0


 **********************************************************************************************************************************
 DATASETS  * FILE   NREC   LENGTH (MB)   RECORD NAMES
              1      20       65.10       500      610      700      900      950      970     1000      129      960     1100   
                                          VAR    BASINP    GEOM    SYMINP    ZMAT    AOBASIS   BASIS     P2S    ABASIS      S 
                                         1400     1410     1200     1210     1080     1600     1650     1300     1700     1800   
                                           T        V       H0       H01     AOSYM     SMH    MOLCAS    ERIS     OPER     GRID   

              2       5        3.34       700     1000      520     1800     2200   
                                         GEOM     BASIS   MCVARS    GRID      UKS  

 PROGRAMS   *        TOTAL       UKS       INT
 CPU TIMES  *        23.15     21.26      1.76
 REAL TIME  *        55.99 SEC
 DISK USED  *       165.03 MB      
 **********************************************************************************************************************************


 PROGRAM * Intrinsic Basis Bonding Analysis (IBBA)          Author: G. Knizia

 Molecular orbitals read from record     2200.2  Type=UKS/ALPHA (state 1.1)
 Fock matrix read from record            2200.2  Type=UKS/TOTAL (state 1.1)
 Orbital energies read from record       2200.2  Type=UKS/ALPHA (state 1.1)
 Density matrix read from record         2200.2  Type=UKS/CHARGE (state 1.1)

 Number of core orbitals:           5 (   5 )
 Number of closed-shell orbitals:  16 (  16 )

 Basis set MINAO-AUTO-PP generated.      Number of basis functions:   35 

 Polarized AO type:                A = (O Ot + (1-O)(1-Ot)) P12
 Orthogonalization method:         Symmetric (Loewdin)
 Localization functional:          L = sum[A,i] <i|n_A|i>^4 -> max

 Localization group 1:  21 orbitals, occupancy  2.000
 Iterative localization: IB/PM,    7 iter; Final gradient 0.31E-08

 Bond order analysis:       [THRPRINT= 0.020]

   CEN ATOM   CEN ATOM     WIBERG.BO      RENORM.BO
     1   C  -   2   C       0.993489       0.990017
     1   C  -   5   H       0.962461       0.986715
     1   C  -   6   H       0.956906       0.981697
     1   C  -   7   H       0.956906       0.981697

     2   C  -   1   C       0.993489       0.990017
     2   C  -   9   C       0.991883       0.970054
     2   C  -   8   C       0.991883       0.970054
     2   C  -   3   O       0.950586       0.953434

     3   O  -   2   C       0.950586       0.953434
     3   O  -   4   H       0.873294       0.978080
     3   O  -   8   C       0.030418       0.015599
     3   O  -   9   C       0.030418       0.015599

     4   H  -   3   O       0.873294       0.978080

     5   H  -   1   C       0.962461       0.986715

     6   H  -   1   C       0.956906       0.981697

     7   H  -   1   C       0.956906       0.981697

     8   C  -   2   C       0.991883       0.970054
     8   C  -  14   H       0.961732       0.981631
     8   C  -  12   H       0.957443       0.980558
     8   C  -  10   H       0.957370       0.981458
     8   C  -   3   O       0.030418       0.015599

     9   C  -   2   C       0.991883       0.970054
     9   C  -  15   H       0.961732       0.981631
     9   C  -  13   H       0.957443       0.980558
     9   C  -  11   H       0.957370       0.981458
     9   C  -   3   O       0.030418       0.015599

    10   H  -   8   C       0.957370       0.981458

    11   H  -   9   C       0.957370       0.981458

    12   H  -   8   C       0.957443       0.980558

    13   H  -   9   C       0.957443       0.980558

    14   H  -   8   C       0.961732       0.981631

    15   H  -   9   C       0.961732       0.981631


 Valency analysis:

   CEN ATOM   TOT.VALENCE
     1   C       3.932424
     2   C       3.939765
     3   O       1.954934
     4   H       0.891619
     5   H       0.982427
     6   H       0.979219
     7   H       0.979219
     8   C       3.935303
     9   C       3.935303
    10   H       0.979167
    11   H       0.979167
    12   H       0.981286
    13   H       0.981286
    14   H       0.984177
    15   H       0.984177

 Total charge composition:

   CEN ATOM         s          p       ELECTRONS ->P.CHARGE
     1   C       3.01759    3.39737      6.41496   -0.41496
     2   C       2.91708    2.84621      5.76329    0.23671
     3   O       3.62927    4.89807      8.52734   -0.52734
     4   H       0.67079                 0.67079    0.32921
     5   H       0.86744                 0.86744    0.13256
     6   H       0.85584                 0.85584    0.14416
     7   H       0.85584                 0.85584    0.14416
     8   C       3.02454    3.40464      6.42917   -0.42917
     9   C       3.02454    3.40464      6.42917   -0.42917
    10   H       0.85566                 0.85566    0.14434
    11   H       0.85566                 0.85566    0.14434
    12   H       0.86320                 0.86320    0.13680
    13   H       0.86320                 0.86320    0.13680
    14   H       0.87421                 0.87421    0.12579
    15   H       0.87421                 0.87421    0.12579

 Total charge composition, AO contributions:

   CEN ATOM SHL      SPHERICAL COMPONENTS
     1   C  1s       1.99157
     1   C  2s       1.02602
     1   C  2p       1.04816    1.16793    1.18128

     2   C  1s       1.99308
     2   C  2s       0.92399
     2   C  2p       1.01855    0.81008    1.01758

     3   O  1s       1.99727
     3   O  2s       1.63200
     3   O  2p       1.46745    1.47949    1.95113

     4   H  1s       0.67079

     5   H  1s       0.86744

     6   H  1s       0.85584

     7   H  1s       0.85584

     8   C  1s       1.99167
     8   C  2s       1.03287
     8   C  2p       1.14846    1.15177    1.10441

     9   C  1s       1.99167
     9   C  2s       1.03287
     9   C  2p       1.14846    1.15177    1.10441

    10   H  1s       0.85566

    11   H  1s       0.85566

    12   H  1s       0.86320

    13   H  1s       0.86320

    14   H  1s       0.87421

    15   H  1s       0.87421

 Summary of localized orbital composition:   [THRPRINT= 0.020]

   ORB  GRP  ORB.ENERGY      CENTERS/CHARGES
     1   1   -18.594864      O  3   2.000
     2   1    -9.876599      C  2   2.000
     3   1    -9.777618      C  9   2.000
     4   1    -9.777618      C  8   2.000
     5   1    -9.771283      C  1   2.000
     6   1    -0.687748      O  3   1.330   H  4   0.660
     7   1    -0.647224      O  3   1.262   C  2   0.720
     8   1    -0.514003      C  9   1.009   C  2   0.975
     9   1    -0.514003      C  8   1.009   C  2   0.975
    10   1    -0.512830      C  1   0.990   C  2   0.985   (other: 0.025)
    11   1    -0.460640      O  3   1.980   (other: 0.020)
    12   1    -0.448001      C  8   1.121   H 14   0.866
    13   1    -0.448001      C  9   1.121   H 15   0.866
    14   1    -0.447927      C  8   1.133   H 12   0.853
    15   1    -0.447927      C  9   1.133   H 13   0.853
    16   1    -0.443567      C  1   1.127   H  5   0.860
    17   1    -0.442012      C  9   1.142   H 11   0.847
    18   1    -0.442012      C  8   1.142   H 10   0.847
    19   1    -0.436833      C  1   1.141   H  6   0.847
    20   1    -0.436833      C  1   1.141   H  7   0.847
    21   1    -0.231279      O  3   1.951   (other: 0.049)

 Localized orbitals saved to record      2200.2  (orbital set 4)


 **********************************************************************************************************************************
 DATASETS  * FILE   NREC   LENGTH (MB)   RECORD NAMES
              1      20       65.10       500      610      700      900      950      970     1000      129      960     1100   
                                          VAR    BASINP    GEOM    SYMINP    ZMAT    AOBASIS   BASIS     P2S    ABASIS      S 
                                         1400     1410     1200     1210     1080     1600     1650     1300     1700     1800   
                                           T        V       H0       H01     AOSYM     SMH    MOLCAS    ERIS     OPER     GRID   

              2       5        3.40       700     1000      520     1800     2200   
                                         GEOM     BASIS   MCVARS    GRID      UKS  

 PROGRAMS   *        TOTAL      IBBA       UKS       INT
 CPU TIMES  *        23.20      0.03     21.26      1.76
 REAL TIME  *        64.13 SEC
 DISK USED  *       165.03 MB      
 **********************************************************************************************************************************
 Molecular orbitals read from record     2200.2  Type=UKS/LOCAL(IBO)  
 Occupation numbers read from record     2200.2  Type=UKS/LOCAL(IBO)  
 Orbital energies read from record       2200.2  Type=UKS/LOCAL(IBO)  
 Redundancy group numbers read from rec  2200.2  Type=UKS/BETA (state 1.1)

 IBBA/SV(P) energy=      0.000000000000

        UKS-SCF 
   -233.47404372
 **********************************************************************************************************************************
 Molpro calculation terminated
