
 Primary working directories    : /tmp/sb13343
 Secondary working directories  : /tmp/sb13343
 Wavefunction directory         : /panfs/panasas01/chem/sb13343/wfu/
 Main file repository           : /tmp/sb13343/

 SHA1      : b4a5b34a9e711420743f49e6833241d17c61fb3c
 NAME      : 2099.9.b4a5b34
 ARCHNAME  : linux/x86_64_openmp
 FC        : /cm/shared/languages/GCC-6.1/bin/gfortran
 BLASLIB   : -lblas
 id        : simonbennie

 Nodes     nprocs
 node32-030    1

 Using customized tuning parameters: mindgm=1; mindgv=20; mindgc=4; mindgr=1; noblas=0; minvec=7
 default implementation of scratch files=df  

 memory,500,m
 geomtyp=xyz
 nosym
 noorient
 geometry={
 H         -1.13405        1.76167        0.00000
 C         -1.32915        0.67205        0.00000
 C         -0.06360       -0.12883        0.00000
 C          0.67426       -0.31636        1.28970
 C          0.67426       -0.31636       -1.28970
 H         -1.94006        0.46750        0.88859
 H         -1.94006        0.46750       -0.88859
 H          1.28359        0.56876        1.55544
 H         -0.01165       -0.48291        2.13019
 H          1.36783       -1.16569        1.24157
 H          1.28359        0.56876       -1.55544
 H         -0.01165       -0.48291       -2.13019
 H          1.36783       -1.16569       -1.24157
 }
 basis={ default,sto-3g }
 {ks,SOGGA11,direct;wf,33,1,1}
 {ibba,bonds=1}

 Variables initialized (895), CPU time= 0.01 sec
 Commands  initialized (725), CPU time= 0.01 sec, 591 directives.
 Default parameters read. Elapsed time= 0.08 sec

 Checking input...
 Passed
1


                                         ***  PROGRAM SYSTEM MOLPRO  ***
                                       Copyright, TTI GmbH Stuttgart, 2015
                                    Version 2099.9 linked May 26 2017 16:03:21


 **********************************************************************************************************************************
 LABEL *                                                                                 
  64 bit serial version                                                                  DATE: 08-Jun-17          TIME: 20:31:53  
 **********************************************************************************************************************************

 SHA1:             b4a5b34a9e711420743f49e6833241d17c61fb3c
 **********************************************************************************************************************************
 SETTING GEOMTYP        =    XYZ

 Variable memory set to  500000000 words,  buffer space 

 ZSYMEL=NOSYM

 SETTING BASIS          =    STO-3G


 Recomputing integrals since basis changed


 Using spherical harmonics

 Library entry H      S STO-3G               selected for orbital group  1
 Library entry C      S STO-3G               selected for orbital group  2
 Library entry C      P STO-3G               selected for orbital group  2


 PROGRAM * SEWARD (Integral evaluation for generally contracted gaussian basis sets)     Author: Roland Lindh, 1990

 Geometry written to block  1 of record 700


 Point group  C1  



 ATOMIC COORDINATES

 NR  ATOM    CHARGE       X              Y              Z

   1  H       1.00   -2.143043912    3.329073822    0.000000000
   2  C       6.00   -2.511729478    1.269990442    0.000000000
   3  C       6.00   -0.120186582   -0.243453417    0.000000000
   4  C       6.00    1.274166737   -0.597833757    2.437179783
   5  C       6.00    1.274166737   -0.597833757   -2.437179783
   6  H       1.00   -3.666182065    0.883446963    1.679191737
   7  H       1.00   -3.666182065    0.883446963   -1.679191737
   8  H       1.00    2.425633556    1.074800631    2.939355603
   9  H       1.00   -0.022015309   -0.912567643    4.025475693
  10  H       1.00    2.584824085   -2.202834846    2.346227264
  11  H       1.00    2.425633556    1.074800631   -2.939355603
  12  H       1.00   -0.022015309   -0.912567643   -4.025475693
  13  H       1.00    2.584824085   -2.202834846   -2.346227264

 Bond lengths in Bohr (Angstrom)

 1-2  2.091830159  2-3  2.830192527  2-6  2.074092940  2-7  2.074092940  3-4  2.830132841
     ( 1.106948849)     ( 1.497673388)     ( 1.097562717)     ( 1.097562717)     ( 1.497641803)

  3- 5  2.830132841   4- 8  2.091832255   4- 9  2.074085151   4-10  2.074156104   5-11  2.091832255
       ( 1.497641803)       ( 1.106949959)       ( 1.097558596)       ( 1.097596142)       ( 1.106949959)

  5-12  2.074085151   5-13  2.074156104
       ( 1.097558596)       ( 1.097596142)

 Bond angles

  1-2-3  112.17549786   1-2-6  106.35284965   1-2-7  106.35284965   2-3-4  118.89987932

  2-3-5  118.89987932   3-2-6  111.75744418   3-2-7  111.75744418   3-4-8  112.19808176

  3- 4- 9  111.75014522   3- 4-10  111.74379558   3- 5-11  112.19808176   3- 5-12  111.75014522

  3- 5-13  111.74379558   4- 3- 5  118.89276928   6- 2- 7  108.11431090   8- 4- 9  106.34995457

  8- 4-10  106.34572146   9- 4-10  108.12296896  11- 5-12  106.34995457  11- 5-13  106.34572146

 12- 5-13  108.12296896

 NUCLEAR CHARGE:                   33
 NUMBER OF PRIMITIVE AOS:          87
 NUMBER OF SYMMETRY AOS:           87
 NUMBER OF CONTRACTIONS:           29   (  29A   )
 NUMBER OF CORE ORBITALS:           4   (   4A   )
 NUMBER OF VALENCE ORBITALS:       25   (  25A   )


 NUCLEAR REPULSION ENERGY  124.92676597


 Eigenvalues of metric

         1 0.210E+00 0.225E+00 0.225E+00 0.315E+00 0.353E+00 0.353E+00 0.362E+00 0.372E+00


 Contracted 2-electron integrals neglected if value below      1.0D-11
 AO integral compression algorithm  1   Integral accuracy      1.0D-11

     0.786 MB (compressed) written to integral file (100.0%)


 NUMBER OF SORTED TWO-ELECTRON INTEGRALS:      94830.     BUFFER LENGTH:  32768
 NUMBER OF SEGMENTS:   1  SEGMENT LENGTH:      94830      RECORD LENGTH: 524288

 Memory used in sort:       0.65 MW

 SORT1 READ      108770. AND WROTE       91348. INTEGRALS IN      1 RECORDS. CPU TIME:     0.00 SEC, REAL TIME:     0.01 SEC
 SORT2 READ       91348. AND WROTE       94830. INTEGRALS IN      3 RECORDS. CPU TIME:     0.01 SEC, REAL TIME:     0.01 SEC

 FILE SIZES:   FILE 1:    31.0 MBYTE,  FILE 4:     4.2 MBYTE,   TOTAL:     35.2 MBYTE

 OPERATOR DM      FOR CENTER  0  COORDINATES:    0.000000    0.000000    0.000000


 **********************************************************************************************************************************
 DATASETS  * FILE   NREC   LENGTH (MB)   RECORD NAMES
              1      19       30.62       500      610      700      900      950      970     1000      129      960     1100   
                                          VAR    BASINP    GEOM    SYMINP    ZMAT    AOBASIS   BASIS     P2S    ABASIS      S 
                                         1400     1410     1200     1210     1080     1600     1650     1300     1700   
                                           T        V       H0       H01     AOSYM     SMH    MOLCAS    ERIS     OPER   

 PROGRAMS   *        TOTAL       INT
 CPU TIMES  *         0.62      0.48
 REAL TIME  *         1.55 SEC
 DISK USED  *        35.68 MB      
 **********************************************************************************************************************************

 Density functional group SOGGA11=XC-SOGGA11
 Functional: XC-SOGGA11(via MFM 1.6)                                           Gradient terms: 1
 Use grid at  1800.2

 Functional: XC-SOGGA11                Factor:  1.0000

 Generated new metagrid on record  1800.2 with target accuracy 1.0D-06 and 45406 points in CPU time    1.4
 Computed new grid on record 1800.1 in CPU time    1.5
   27459 words reserved for DFT integration

 PROGRAM * RKS-SCF (Restricted open shell Kohn-Sham)     Authors: W. Meyer, H.-J. Werner, P.J. Knowles, 1993

 NUMBER OF ELECTRONS:      17+   16-    SPACE SYMMETRY=1    SPIN SYMMETRY: Doublet 
 CONVERGENCE THRESHOLDS:    1.00E-05 (Density)    1.00E-06 (Energy)
 MAX. NUMBER OF ITERATIONS:       60
 INTERPOLATION TYPE:            DIIS
 INTERPOLATION STEPS:              2 (START)      1 (STEP)
 LEVEL SHIFTS:                 -0.60 (CLOSED) -0.30 (OPEN) 



 Use fine grid record 1800.2 for energy threshold  1.0D-06
 Orbital guess generated from atomic densities. Full valence occupancy:   17

 Molecular orbital dump at record        2100.2

 Initial alpha occupancy:  17
 Initial beta  occupancy:  16
 Wave function symmetry:    1

 ITERATION    DDIFF          GRAD             ENERGY        2-EL.EN.            DIPOLE MOMENTS         DIIS   ORB.
    1      0.000D+00      0.000D+00      -155.61471882    414.001522    0.21740    0.43854   -0.00000    0    start
    2      0.000D+00      0.300D-01      -155.90319062    399.992117   -0.00537   -0.01198   -0.00000    1    diag,B
    3      0.629D-01      0.487D-02      -155.91059271    401.638543    0.04240    0.08528   -0.00000    2    diag,B
    4      0.874D-02      0.568D-03      -155.91096002    401.630847    0.04338    0.08748   -0.00000    3    diag,B
    5      0.143D-02      0.187D-03      -155.91101045    401.624045    0.04358    0.08809   -0.00000    4    diag,B
    6      0.626D-03      0.396D-04      -155.91101279    401.623508    0.04321    0.08742   -0.00000    5    diag,B
    7      0.125D-03      0.107D-04      -155.91101290    401.623955    0.04314    0.08731   -0.00000    6    fixocc
    8      0.296D-04      0.146D-05      -155.91101290    401.623956    0.04315    0.08735   -0.00000    7    diag,B
    9      0.403D-05      0.212D-06      -155.91101290    401.623971    0.04315    0.08735   -0.00000    0    orth

 Final alpha occupancy:  17
 Final beta  occupancy:  16

 !RKS STATE 1.1 Energy               -155.911012900042
 Nuclear energy                       124.92676597
 One-electron energy                 -456.55062536
 Two-electron energy                  200.81198549
 Density functional                   -25.09913901     XC-SOGGA11=-25.09913901
 Virial quotient                       -1.01615265
 !RKS STATE 1.1 Dipole moment           0.04315384     0.08734753    -0.00000000
 Dipole moment /Debye                   0.10967894     0.22200073    -0.00000000

 Orbital energies:

         1.1          2.1          3.1          4.1          5.1          6.1          7.1          8.1          9.1         10.1
     -9.731120    -9.730980    -9.730979    -9.709904    -0.669983    -0.579553    -0.579491    -0.427779    -0.346260    -0.346232

        11.1         12.1         13.1         14.1         15.1         16.1         17.1         18.1         19.1
     -0.341963    -0.297269    -0.297197    -0.281564    -0.248759    -0.248701    -0.062148     0.341577     0.341625

 HOMO     17.1    -0.062148 =      -1.6911eV
 LUMO     18.1     0.341577 =       9.2948eV
 LUMO-HOMO         0.403725 =      10.9859eV


 **********************************************************************************************************************************
 DATASETS  * FILE   NREC   LENGTH (MB)   RECORD NAMES
              1      20       32.07       500      610      700      900      950      970     1000      129      960     1100   
                                          VAR    BASINP    GEOM    SYMINP    ZMAT    AOBASIS   BASIS     P2S    ABASIS      S 
                                         1400     1410     1200     1210     1080     1600     1650     1300     1700     1800   
                                           T        V       H0       H01     AOSYM     SMH    MOLCAS    ERIS     OPER     GRID   

              2       5        2.99       700     1000      520     1800     2100   
                                         GEOM     BASIS   MCVARS    GRID      RKS  

 PROGRAMS   *        TOTAL        KS       INT
 CPU TIMES  *         5.59      4.97      0.48
 REAL TIME  *         6.95 SEC
 DISK USED  *        35.68 MB      
 **********************************************************************************************************************************


 PROGRAM * Intrinsic Basis Bonding Analysis (IBBA)          Author: G. Knizia

 Molecular orbitals read from record     2100.2  Type=RKS/CANONICAL (state 1.1)
 Fock matrix read from record            2100.2  Type=RKS/TOTAL (state 1.1)
 Orbital energies read from record       2100.2  Type=RKS/CANONICAL (state 1.1)
 Density matrix read from record         2100.2  Type=RKS/CHARGE (state 1.1)

 Number of core orbitals:           4 (   4 )
 Number of closed-shell orbitals:  12 (  12 )
 Number of active  orbitals:        1 (   1 )

 Basis set MINAO-AUTO-PP generated.      Number of basis functions:   29 

 Polarized AO type:                A = (O Ot + (1-O)(1-Ot)) P12
 Orthogonalization method:         Symmetric (Loewdin)
 Localization functional:          L = sum[A,i] <i|n_A|i>^4 -> max

 Localization group 1:  16 orbitals, occupancy  2.000
 Iterative localization: IB/PM,    7 iter; Final gradient 0.19E-08

 Bond order analysis:       [THRPRINT= 0.020]

   CEN ATOM   CEN ATOM     WIBERG.BO      RENORM.BO
     1   H  -   2   C       0.925037       0.998464
     1   H  -   3   C       0.032009       0.200705

     2   C  -   3   C       1.067099       1.318523
     2   C  -   7   H       0.954970       0.989540
     2   C  -   6   H       0.954970       0.989540
     2   C  -   1   H       0.925037       0.998464

     3   C  -   2   C       1.067099       1.318523
     3   C  -   5   C       1.067099       1.318644
     3   C  -   4   C       1.067099       1.318644
     3   C  -   1   H       0.032009       0.200705
     3   C  -  11   H       0.031970       0.200413
     3   C  -   8   H       0.031970       0.200413

     4   C  -   3   C       1.067099       1.318644
     4   C  -   9   H       0.954980       0.989530
     4   C  -  10   H       0.954872       0.989575
     4   C  -   8   H       0.925096       0.998459

     5   C  -   3   C       1.067099       1.318644
     5   C  -  12   H       0.954980       0.989530
     5   C  -  13   H       0.954872       0.989575
     5   C  -  11   H       0.925096       0.998459

     6   H  -   2   C       0.954970       0.989540

     7   H  -   2   C       0.954970       0.989540

     8   H  -   4   C       0.925096       0.998459
     8   H  -   3   C       0.031970       0.200413

     9   H  -   4   C       0.954980       0.989530

    10   H  -   4   C       0.954872       0.989575

    11   H  -   5   C       0.925096       0.998459
    11   H  -   3   C       0.031970       0.200413

    12   H  -   5   C       0.954980       0.989530

    13   H  -   5   C       0.954872       0.989575


 Valency analysis:

   CEN ATOM   TOT.VALENCE
     1   H       0.969421
     2   C       3.930663
     3   C       3.339189
     4   C       3.930646
     5   C       3.930646
     6   H       0.978606
     7   H       0.978606
     8   H       0.969447
     9   H       0.978622
    10   H       0.978557
    11   H       0.969447
    12   H       0.978622
    13   H       0.978557
 Localization group 2:   1 orbitals, occupancy  1.000
 Iterative localization: IB/PM,    1 iter; Final gradient 0.00E+00

 Bond order analysis:       [THRPRINT= 0.020]

   CEN ATOM   CEN ATOM     WIBERG.BO      RENORM.BO
     1   H  -   3   C       0.064272       0.500000


     3   C  -   1   H       0.064272       0.500000
     3   C  -  11   H       0.064247       0.500000
     3   C  -   8   H       0.064247       0.500000





     8   H  -   3   C       0.064247       0.500000



    11   H  -   3   C       0.064247       0.500000




 Valency analysis:

   CEN ATOM   TOT.VALENCE
     1   H       0.074576
     2   C       0.005635
     3   C       0.284310
     4   C       0.005581
     5   C       0.005581
     6   H       0.015471
     7   H       0.015471
     8   H       0.074549
     9   H       0.015422
    10   H       0.015572
    11   H       0.074549
    12   H       0.015422
    13   H       0.015572

 Total charge composition:

   CEN ATOM         s          p       ELECTRONS ->P.CHARGE
     1   H       0.86393                 0.86393    0.13607
     2   C       2.99481    3.42684      6.42165   -0.42165
     3   C       2.97246    3.00125      5.97370    0.02630
     4   C       2.99484    3.42703      6.42187   -0.42187
     5   C       2.99484    3.42703      6.42187   -0.42187
     6   H       0.86153                 0.86153    0.13847
     7   H       0.86153                 0.86153    0.13847
     8   H       0.86398                 0.86398    0.13602
     9   H       0.86156                 0.86156    0.13844
    10   H       0.86141                 0.86141    0.13859
    11   H       0.86398                 0.86398    0.13602
    12   H       0.86156                 0.86156    0.13844
    13   H       0.86141                 0.86141    0.13859

 Total charge composition, AO contributions:

   CEN ATOM SHL      SPHERICAL COMPONENTS
     1   H  1s       0.86393

     2   C  1s       1.99192
     2   C  2s       1.00289
     2   C  2p       1.10876    1.14222    1.17586

     3   C  1s       1.99330
     3   C  2s       0.97915
     3   C  2p       0.99975    1.00409    0.99740

     4   C  1s       1.99192
     4   C  2s       1.00292
     4   C  2p       1.15152    1.16842    1.10710

     5   C  1s       1.99192
     5   C  2s       1.00292
     5   C  2p       1.15152    1.16842    1.10710

     6   H  1s       0.86153

     7   H  1s       0.86153

     8   H  1s       0.86398

     9   H  1s       0.86156

    10   H  1s       0.86141

    11   H  1s       0.86398

    12   H  1s       0.86156

    13   H  1s       0.86141

 Active orbital charges:

   CEN ATOM         s          p       ELECTRONS ->SPIN.DEN
     1   H       0.03879                 0.03879    0.03879
     2   C       0.00011    0.00271      0.00283    0.00283
     3   C       0.01554    0.81286      0.82840    0.82840
     4   C       0.00011    0.00269      0.00280    0.00280
     5   C       0.00011    0.00269      0.00280    0.00280
     6   H       0.00780                 0.00780    0.00780
     7   H       0.00780                 0.00780    0.00780
     8   H       0.03878                 0.03878    0.03878
     9   H       0.00777                 0.00777    0.00777
    10   H       0.00785                 0.00785    0.00785
    11   H       0.03878                 0.03878    0.03878
    12   H       0.00777                 0.00777    0.00777
    13   H       0.00785                 0.00785    0.00785

 Active orbital charges, AO contributions:

   CEN ATOM SHL      SPHERICAL COMPONENTS
     1   H  1s       0.03879

     2   C  1s       0.00000
     2   C  2s       0.00011
     2   C  2p       0.00000    0.00271    0.00000

     3   C  1s       0.00001
     3   C  2s       0.01553
     3   C  2p       0.15890    0.65396    0.00000

     4   C  1s       0.00000
     4   C  2s       0.00011
     4   C  2p       0.00093    0.00141    0.00035

     5   C  1s       0.00000
     5   C  2s       0.00011
     5   C  2p       0.00093    0.00141    0.00035

     6   H  1s       0.00780

     7   H  1s       0.00780

     8   H  1s       0.03878

     9   H  1s       0.00777

    10   H  1s       0.00785

    11   H  1s       0.03878

    12   H  1s       0.00777

    13   H  1s       0.00785

 Summary of localized orbital composition:   [THRPRINT= 0.020]

   ORB  GRP  ORB.ENERGY      CENTERS/CHARGES
     1   1    -9.620536      C  2   2.000
     2   1    -9.620392      C  5   2.000
     3   1    -9.620392      C  4   2.000
     4   1    -9.615849      C  3   2.000
     5   1    -0.479517      C  2   1.010   C  3   0.976
     6   1    -0.479430      C  4   1.011   C  3   0.976
     7   1    -0.479430      C  5   1.011   C  3   0.976
     8   1    -0.407366      C  2   1.130   H  1   0.821   C  3   0.046
     9   1    -0.407242      C  4   1.130   H  8   0.821   C  3   0.046
    10   1    -0.407242      C  5   1.130   H 11   0.821   C  3   0.046
    11   1    -0.405111      C  2   1.136   H  7   0.847
    12   1    -0.405111      C  2   1.136   H  6   0.847
    13   1    -0.405048      C  5   1.136   H 12   0.847
    14   1    -0.405048      C  4   1.136   H  9   0.847
    15   1    -0.405008      C  4   1.136   H 10   0.847
    16   1    -0.405008      C  5   1.136   H 13   0.847
    17   2    -0.010399      C  3   0.828   H  1   0.039   H 11   0.039   H  8   0.039   (other: 0.055)

 Localized orbitals saved to record      2100.2  (orbital set 2)


 **********************************************************************************************************************************
 DATASETS  * FILE   NREC   LENGTH (MB)   RECORD NAMES
              1      20       32.07       500      610      700      900      950      970     1000      129      960     1100   
                                          VAR    BASINP    GEOM    SYMINP    ZMAT    AOBASIS   BASIS     P2S    ABASIS      S 
                                         1400     1410     1200     1210     1080     1600     1650     1300     1700     1800   
                                           T        V       H0       H01     AOSYM     SMH    MOLCAS    ERIS     OPER     GRID   

              2       5        3.00       700     1000      520     1800     2100   
                                         GEOM     BASIS   MCVARS    GRID      RKS  

 PROGRAMS   *        TOTAL      IBBA        KS       INT
 CPU TIMES  *         5.62      0.03      4.97      0.48
 REAL TIME  *         7.06 SEC
 DISK USED  *        35.68 MB      
 **********************************************************************************************************************************
 Molecular orbitals read from record     2100.2  Type=RKS/LOCAL(IBO)  
 Occupation numbers read from record     2100.2  Type=RKS/LOCAL(IBO)  
 Orbital energies read from record       2100.2  Type=RKS/LOCAL(IBO)  
 Redundancy group numbers read from rec  2100.2  Type=RKS/LOCAL(IBO)  

 IBBA/STO-3G energy=      0.000000000000

        KS-SCF  
   -155.91101290
 **********************************************************************************************************************************
 Molpro calculation terminated
