
 Primary working directories    : /local
 Secondary working directories  : /local
 Wavefunction directory         : /local/
 Main file repository           : /local/

 SHA1      : b4a5b34a9e711420743f49e6833241d17c61fb3c
 NAME      : 2099.9.b4a5b34
 ARCHNAME  : linux/x86_64_openmp
 FC        : /cm/shared/languages/GCC-6.1/bin/gfortran
 BLASLIB   : -lblas
 id        : simonbennie

 Nodes     nprocs
 node34-015    1

 Using customized tuning parameters: mindgm=1; mindgv=20; mindgc=4; mindgr=1; noblas=0; minvec=7
 default implementation of scratch files=df  

 memory,500,m
 geomtyp=xyz
 nosym
 noorient
 geometry={
 C         -1.53233        0.02247        0.00000
 C         -0.00192        0.01421        0.00000
 O          0.37239        1.40356        0.00000
 H          1.34248        1.44036        0.00000
 H         -1.92991       -0.99819        0.00000
 H         -1.90797        0.54382       -0.88653
 H         -1.90797        0.54382        0.88653
 C          0.54303       -0.66466       -1.26580
 C          0.54303       -0.66466        1.26580
 H          0.17836       -0.14752       -2.15943
 H          0.17836       -0.14752        2.15943
 H          0.23752       -1.71600       -1.32280
 H          0.23752       -1.71600        1.32280
 H          1.64084       -0.63767       -1.28032
 H          1.64084       -0.63767        1.28032
 }
 basis={ default,avtz }
 {uks,PBE0MOL,direct;wf,42,1,0}
 {ibba,bonds=1}

 Variables initialized (895), CPU time= 0.00 sec
 Commands  initialized (725), CPU time= 0.02 sec, 591 directives.
 Default parameters read. Elapsed time= 0.08 sec

 Checking input...
 Passed
1


                                         ***  PROGRAM SYSTEM MOLPRO  ***
                                       Copyright, TTI GmbH Stuttgart, 2015
                                    Version 2099.9 linked May 26 2017 16:03:21


 **********************************************************************************************************************************
 LABEL *                                                                                 
  64 bit serial version                                                                  DATE: 12-Jun-17          TIME: 14:19:37  
 **********************************************************************************************************************************

 SHA1:             b4a5b34a9e711420743f49e6833241d17c61fb3c
 **********************************************************************************************************************************
 SETTING GEOMTYP        =    XYZ

 Variable memory set to  500000000 words,  buffer space 

 ZSYMEL=NOSYM

 SETTING BASIS          =    AVTZ


 Recomputing integrals since basis changed


 Using spherical harmonics

 Library entry C      S aug-cc-pVTZ          selected for orbital group  1
 Library entry C      P aug-cc-pVTZ          selected for orbital group  1
 Library entry C      D aug-cc-pVTZ          selected for orbital group  1
 Library entry C      F aug-cc-pVTZ          selected for orbital group  1
 Library entry O      S aug-cc-pVTZ          selected for orbital group  2
 Library entry O      P aug-cc-pVTZ          selected for orbital group  2
 Library entry O      D aug-cc-pVTZ          selected for orbital group  2
 Library entry O      F aug-cc-pVTZ          selected for orbital group  2
 Library entry H      S aug-cc-pVTZ          selected for orbital group  3
 Library entry H      P aug-cc-pVTZ          selected for orbital group  3
 Library entry H      D aug-cc-pVTZ          selected for orbital group  3


 PROGRAM * SEWARD (Integral evaluation for generally contracted gaussian basis sets)     Author: Roland Lindh, 1990

 Geometry written to block  1 of record 700


 Point group  C1  



 ATOMIC COORDINATES

 NR  ATOM    CHARGE       X              Y              Z

   1  C       6.00   -2.895684032    0.042462146    0.000000000
   2  C       6.00   -0.003628274    0.026853008    0.000000000
   3  O       8.00    0.703715112    2.652343999    0.000000000
   4  H       1.00    2.536919528    2.721885921    0.000000000
   5  H       1.00   -3.647001345   -1.886305720    0.000000000
   6  H       1.00   -3.605540754    1.027670861   -1.675298901
   7  H       1.00   -3.605540754    1.027670861    1.675298901
   8  C       6.00    1.026177977   -1.256025366   -2.392015328
   9  C       6.00    1.026177977   -1.256025366    2.392015328
  10  H       1.00    0.337051552   -0.278772398   -4.080731285
  11  H       1.00    0.337051552   -0.278772398    4.080731285
  12  H       1.00    0.448847749   -3.242770030   -2.499729718
  13  H       1.00    0.448847749   -3.242770030    2.499729718
  14  H       1.00    3.100738214   -1.205021658   -2.419454152
  15  H       1.00    3.100738214   -1.205021658    2.419454152

 Bond lengths in Bohr (Angstrom)

 1-2  2.892097881  1-5  2.069933136  1-6  2.069096224  1-7  2.069096224  2-3  2.719106031
     ( 1.530432290)     ( 1.095361444)     ( 1.094918569)     ( 1.094918569)     ( 1.438888946)

  2- 8  2.903104402   2- 9  2.903104402   3- 4  1.834522965   8-10  2.069222119   8-12  2.071730422
       ( 1.536256691)       ( 1.536256691)       ( 0.970787746)       ( 1.094985190)       ( 1.096312526)

  8-14  2.075368508   9-11  2.069222119   9-13  2.071730422   9-15  2.075368508
       ( 1.098237719)       ( 1.094985190)       ( 1.096312526)       ( 1.098237719)

 Bond angles

  1-2-3  104.76902697   1-2-8  110.92255387   1-2-9  110.92255387   2-1-5  110.97328220

  2- 1- 6  110.22090701   2- 1- 7  110.22090701   2- 3- 4  107.25071562   2- 8-10  110.21836376

  2- 8-12  111.57747468   2- 8-14  110.77023896   2- 9-11  110.21836376   2- 9-13  111.57747468

  2- 9-15  110.77023896   3- 2- 8  109.53648747   3- 2- 9  109.53648747   5- 1- 6  108.61190457

  5- 1- 7  108.61190457   6- 1- 7  108.12870271   8- 2- 9  110.96453384  10- 8-12  108.52192632

 10- 8-14  108.08997829  11- 9-13  108.52192632  11- 9-15  108.08997829  12- 8-14  107.54424578

 13- 9-15  107.54424578

 NUCLEAR CHARGE:                   42
 NUMBER OF PRIMITIVE AOS:         605
 NUMBER OF SYMMETRY AOS:          540
 NUMBER OF CONTRACTIONS:          460   ( 460A   )
 NUMBER OF CORE ORBITALS:           5   (   5A   )
 NUMBER OF VALENCE ORBITALS:       30   (  30A   )


 NUCLEAR REPULSION ENERGY  198.77359127


 Eigenvalues of metric

         1 0.351E-05 0.596E-05 0.770E-05 0.977E-05 0.161E-04 0.173E-04 0.207E-04 0.297E-04


 Contracted 2-electron integrals neglected if value below      1.0D-12
 AO integral compression algorithm  1   Integral accuracy      1.0D-12

     24892.932 MB (compressed) written to integral file ( 51.7%)


 NUMBER OF SORTED TWO-ELECTRON INTEGRALS: 5621233465.     BUFFER LENGTH:  32768
 NUMBER OF SEGMENTS: 176  SEGMENT LENGTH:   31999951      RECORD LENGTH: 131072

 Memory used in sort:      32.16 MW

 SORT1 READ  6020115514. AND WROTE  5366777799. INTEGRALS IN  61513 RECORDS. CPU TIME:    85.55 SEC, REAL TIME:  5961.27 SEC
 SORT2 READ  5366777799. AND WROTE  5621233465. INTEGRALS IN  94959 RECORDS. CPU TIME:   133.45 SEC, REAL TIME: 10748.28 SEC

 FILE SIZES:   FILE 1: 24930.9 MBYTE,  FILE 4: 64501.1 MBYTE,   TOTAL:  89432.0 MBYTE

 OPERATOR DM      FOR CENTER  0  COORDINATES:    0.000000    0.000000    0.000000


 **********************************************************************************************************************************
 DATASETS  * FILE   NREC   LENGTH (MB)   RECORD NAMES
              1      19    23757.53       500      610      700      900      950      970     1000      129      960     1100   
                                          VAR    BASINP    GEOM    SYMINP    ZMAT    AOBASIS   BASIS     P2S    ABASIS      S 
                                         1400     1410     1200     1210     1080     1600     1650     1300     1700   
                                           T        V       H0       H01     AOSYM     SMH    MOLCAS    ERIS     OPER   

 PROGRAMS   *        TOTAL       INT
 CPU TIMES  *       437.27    437.13
 REAL TIME  *     17755.92 SEC
 DISK USED  *        89.43 GB      
 **********************************************************************************************************************************

 Density functional group PBE0MOL=PBEX+PW91C
 Functional: PBEX(Automatically generated (new) PBEX)                          Gradient terms: 1
 Functional: PW91C(Automatically generated (new) PW91C)                        Gradient terms: 1
 Use grid at  1800.2


 Exact exchange will be calculated, factor:  0.2500

 Functional: PBEX                      Factor:  0.7500
 Functional: PW91C                     Factor:  1.0000

 Generated new metagrid on record  1800.2 with target accuracy 1.0D-06 and 55396 points in CPU time    1.7
 Computed new grid on record 1800.1 in CPU time    1.9
  370324 words reserved for DFT integration

 PROGRAM * UKS-SCF (Unrestricted Kohn-Sham)     Authors: W. Meyer, H.-J. Werner, P.J. Knowles, 1993

 NUMBER OF ELECTRONS:      21+   21-    SPACE SYMMETRY=1    SPIN SYMMETRY: Singlet 
 CONVERGENCE THRESHOLDS:    1.00E-05 (Density)    1.00E-06 (Energy)
 MAX. NUMBER OF ITERATIONS:       60
 INTERPOLATION TYPE:            DIIS
 INTERPOLATION STEPS:              2 (START)      1 (STEP)
 LEVEL SHIFTS:                 -0.20 (ALPHA)  -0.20 (BETA) 



 Use fine grid record 1800.2 for energy threshold  1.0D-06
 Orbital guess generated from atomic densities. Full valence occupancy:   35

 Molecular orbital dump at record        2200.2

 Initial alpha occupation  21
 Initial beta  occupation  21

 ITERATION    DDIFF          GRAD             ENERGY        2-EL.EN.            DIPOLE MOMENTS         DIIS
    1      0.000D+00      0.000D+00      -233.39317557    619.125273    0.68866   -0.80799    0.00000    0
    2      0.605D-02      0.132D-02      -233.54765909    601.734904    0.25620   -0.49012    0.00000    1
    3      0.173D-02      0.622D-03      -233.57284319    605.953753    0.35618   -0.57491    0.00000    2
    4      0.344D-03      0.939D-04      -233.57378905    605.813865    0.34372   -0.53455    0.00000    3
    5      0.213D-03      0.444D-04      -233.57414018    605.737246    0.33915   -0.53778    0.00000    4
    6      0.159D-03      0.134D-04      -233.57420275    605.701760    0.33648   -0.53423    0.00000    5
    7      0.592D-04      0.327D-05      -233.57420598    605.676731    0.33519   -0.53432    0.00000    6
    8      0.187D-04      0.183D-05      -233.57420649    605.684523    0.33524   -0.53466    0.00000    7
    9      0.904D-05      0.334D-06      -233.57420654    605.684003    0.33518   -0.53457    0.00000    6
   10      0.131D-05      0.100D-06      -233.57420654    605.683502    0.33512   -0.53464    0.00000    7

 Final alpha occupancy:  21
 Final beta  occupancy:  21

 !UKS STATE 1.1 Energy               -233.574206538641
 Nuclear energy                       198.77359127
 One-electron energy                 -709.46335544
 Two-electron energy                  302.84175093
 Density functional                   -25.72619330     PBEX=-32.35883723 PW91C= -1.45706538
 Virial quotient                       -1.00696150
 !UKS STATE 1.1 Dipole moment           0.33512251    -0.53463624     0.00000000
 Dipole moment /Debye                   0.85174066    -1.35882076     0.00000000

 Orbital energies for positive spin:

         1.1          2.1          3.1          4.1          5.1          6.1          7.1          8.1          9.1         10.1
    -19.209311   -10.291218   -10.219972   -10.219961   -10.214584    -1.046490    -0.811820    -0.713096    -0.712025    -0.586678

        11.1         12.1         13.1         14.1         15.1         16.1         17.1         18.1         19.1         20.1
     -0.505650    -0.467496    -0.464495    -0.426627    -0.411306    -0.392552    -0.378931    -0.369068    -0.361440    -0.333367

        21.1         22.1         23.1
     -0.287316    -0.008518     0.013442

 Orbital energies for negative spin:

         1.1          2.1          3.1          4.1          5.1          6.1          7.1          8.1          9.1         10.1
    -19.209309   -10.291219   -10.219971   -10.219959   -10.214583    -1.046487    -0.811819    -0.713095    -0.712024    -0.586677

        11.1         12.1         13.1         14.1         15.1         16.1         17.1         18.1         19.1         20.1
     -0.505650    -0.467496    -0.464494    -0.426626    -0.411305    -0.392551    -0.378930    -0.369066    -0.361439    -0.333366

        21.1         22.1         23.1
     -0.287313    -0.008519     0.013441

 HOMO    -21.1    -0.287313 =      -7.8182eV
 LUMO    -22.1    -0.008519 =      -0.2318eV
 LUMO-HOMO         0.278794 =       7.5864eV

 EXPECTATION VALUE OF S**2:             0.00000000

 Occupation number threshold for canonical orbitals:  1.999000 (occupied),  0.001000 (virtual)

 Number of pseudo-canonical orbitals per symmetry:   21
 Number of active natural orbitals per symmetry:      0

 Natural orbitals saved to record    2200.2 (Orbital set 3)

 Orbital spaces for UNO-CAS (Min. occupation: 0.020  Max. occupation: 1.980):

 Closed:       21
 Active:        0


 **********************************************************************************************************************************
 DATASETS  * FILE   NREC   LENGTH (MB)   RECORD NAMES
              1      20    23759.30       500      610      700      900      950      970     1000      129      960     1100   
                                          VAR    BASINP    GEOM    SYMINP    ZMAT    AOBASIS   BASIS     P2S    ABASIS      S 
                                         1400     1410     1200     1210     1080     1600     1650     1300     1700     1800   
                                           T        V       H0       H01     AOSYM     SMH    MOLCAS    ERIS     OPER     GRID   

              2       5       11.56       700     1000      520     1800     2200   
                                         GEOM     BASIS   MCVARS    GRID      UKS  

 PROGRAMS   *        TOTAL       UKS       INT
 CPU TIMES  *      2035.84   1598.57    437.13
 REAL TIME  *     32390.58 SEC
 DISK USED  *        89.43 GB      
 **********************************************************************************************************************************


 PROGRAM * Intrinsic Basis Bonding Analysis (IBBA)          Author: G. Knizia

 Molecular orbitals read from record     2200.2  Type=UKS/ALPHA (state 1.1)
 Fock matrix read from record            2200.2  Type=UKS/TOTAL (state 1.1)
 Orbital energies read from record       2200.2  Type=UKS/ALPHA (state 1.1)
 Density matrix read from record         2200.2  Type=UKS/CHARGE (state 1.1)

 Number of core orbitals:           5 (   5 )
 Number of closed-shell orbitals:  16 (  16 )

 Basis set MINAO-AUTO-PP generated.      Number of basis functions:   35 

 Polarized AO type:                A = (O Ot + (1-O)(1-Ot)) P12
 Orthogonalization method:         Symmetric (Loewdin)
 Localization functional:          L = sum[A,i] <i|n_A|i>^4 -> max

 Localization group 1:  21 orbitals, occupancy  2.000
 Iterative localization: IB/PM,    7 iter; Final gradient 0.26E-08

 Bond order analysis:       [THRPRINT= 0.020]

   CEN ATOM   CEN ATOM     WIBERG.BO      RENORM.BO
     1   C  -   2   C       0.996704       0.993404
     1   C  -   5   H       0.962125       0.987320
     1   C  -   6   H       0.957264       0.981689
     1   C  -   7   H       0.957264       0.981689

     2   C  -   1   C       0.996704       0.993404
     2   C  -   9   C       0.995448       0.976125
     2   C  -   8   C       0.995448       0.976125
     2   C  -   3   O       0.932994       0.949096

     3   O  -   2   C       0.932994       0.949096
     3   O  -   4   H       0.859017       0.976780
     3   O  -   8   C       0.027188       0.013906
     3   O  -   9   C       0.027188       0.013906

     4   H  -   3   O       0.859017       0.976780

     5   H  -   1   C       0.962125       0.987320

     6   H  -   1   C       0.957264       0.981689

     7   H  -   1   C       0.957264       0.981689

     8   C  -   2   C       0.995448       0.976125
     8   C  -  14   H       0.961615       0.982392
     8   C  -  12   H       0.957972       0.981892
     8   C  -  10   H       0.957759       0.981550
     8   C  -   3   O       0.027188       0.013906

     9   C  -   2   C       0.995448       0.976125
     9   C  -  15   H       0.961615       0.982392
     9   C  -  13   H       0.957972       0.981892
     9   C  -  11   H       0.957759       0.981550
     9   C  -   3   O       0.027188       0.013906

    10   H  -   8   C       0.957759       0.981550

    11   H  -   9   C       0.957759       0.981550

    12   H  -   8   C       0.957972       0.981892

    13   H  -   9   C       0.957972       0.981892

    14   H  -   8   C       0.961615       0.982392

    15   H  -   9   C       0.961615       0.982392


 Valency analysis:

   CEN ATOM   TOT.VALENCE
     1   C       3.932862
     2   C       3.930717
     3   O       1.912540
     4   H       0.878273
     5   H       0.980599
     6   H       0.977912
     7   H       0.977912
     8   C       3.935550
     9   C       3.935550
    10   H       0.977925
    11   H       0.977925
    12   H       0.979762
    13   H       0.979762
    14   H       0.982185
    15   H       0.982185

 Total charge composition:

   CEN ATOM         s          p       ELECTRONS ->P.CHARGE
     1   C       3.04612    3.38284      6.42896   -0.42896
     2   C       2.94046    2.80285      5.74331    0.25669
     3   O       3.64971    4.92838      8.57809   -0.57809
     4   H       0.65111                 0.65111    0.34889
     5   H       0.86071                 0.86071    0.13929
     6   H       0.85138                 0.85138    0.14862
     7   H       0.85138                 0.85138    0.14862
     8   C       3.05225    3.38960      6.44184   -0.44184
     9   C       3.05225    3.38960      6.44184   -0.44184
    10   H       0.85142                 0.85142    0.14858
    11   H       0.85142                 0.85142    0.14858
    12   H       0.85774                 0.85774    0.14226
    13   H       0.85774                 0.85774    0.14226
    14   H       0.86653                 0.86653    0.13347
    15   H       0.86653                 0.86653    0.13347

 Total charge composition, AO contributions:

   CEN ATOM SHL      SPHERICAL COMPONENTS
     1   C  1s       1.99106
     1   C  2s       1.05506
     1   C  2p       1.04010    1.16534    1.17740

     2   C  1s       1.99270
     2   C  2s       0.94776
     2   C  2p       1.00684    0.78655    1.00945

     3   O  1s       1.99712
     3   O  2s       1.65259
     3   O  2p       1.47884    1.49232    1.95722

     4   H  1s       0.65111

     5   H  1s       0.86071

     6   H  1s       0.85138

     7   H  1s       0.85138

     8   C  1s       1.99116
     8   C  2s       1.06109
     8   C  2p       1.14692    1.14675    1.09593

     9   C  1s       1.99116
     9   C  2s       1.06109
     9   C  2p       1.14692    1.14675    1.09593

    10   H  1s       0.85142

    11   H  1s       0.85142

    12   H  1s       0.85774

    13   H  1s       0.85774

    14   H  1s       0.86653

    15   H  1s       0.86653

 Summary of localized orbital composition:   [THRPRINT= 0.020]

   ORB  GRP  ORB.ENERGY      CENTERS/CHARGES
     1   1   -19.046668      O  3   2.000
     2   1   -10.198586      C  2   2.000
     3   1   -10.103656      C  8   2.000
     4   1   -10.103656      C  9   2.000
     5   1   -10.097474      C  1   2.000
     6   1    -0.782944      O  3   1.351   H  4   0.640
     7   1    -0.738647      O  3   1.284   C  2   0.698
     8   1    -0.601452      O  3   1.982
     9   1    -0.592177      C  9   1.008   C  2   0.977
    10   1    -0.592177      C  8   1.008   C  2   0.977
    11   1    -0.591464      C  1   0.991   C  2   0.986   (other: 0.023)
    12   1    -0.521498      C  9   1.138   H 13   0.848
    13   1    -0.521498      C  8   1.138   H 12   0.848
    14   1    -0.519667      C  9   1.129   H 15   0.859
    15   1    -0.519667      C  8   1.129   H 14   0.859
    16   1    -0.517155      C  1   1.133   H  5   0.854
    17   1    -0.515594      C  8   1.146   H 10   0.843
    18   1    -0.515594      C  9   1.146   H 11   0.843
    19   1    -0.510909      C  1   1.145   H  7   0.843
    20   1    -0.510909      C  1   1.145   H  6   0.843
    21   1    -0.322150      O  3   1.957   (other: 0.043)

 Localized orbitals saved to record      2200.2  (orbital set 4)


 **********************************************************************************************************************************
 DATASETS  * FILE   NREC   LENGTH (MB)   RECORD NAMES
              1      20    23759.30       500      610      700      900      950      970     1000      129      960     1100   
                                          VAR    BASINP    GEOM    SYMINP    ZMAT    AOBASIS   BASIS     P2S    ABASIS      S 
                                         1400     1410     1200     1210     1080     1600     1650     1300     1700     1800   
                                           T        V       H0       H01     AOSYM     SMH    MOLCAS    ERIS     OPER     GRID   

              2       5       13.27       700     1000      520     1800     2200   
                                         GEOM     BASIS   MCVARS    GRID      UKS  

 PROGRAMS   *        TOTAL      IBBA       UKS       INT
 CPU TIMES  *      2036.10      0.26   1598.57    437.13
 REAL TIME  *     32391.43 SEC
 DISK USED  *        89.43 GB      
 **********************************************************************************************************************************
 Molecular orbitals read from record     2200.2  Type=UKS/LOCAL(IBO)  
 Occupation numbers read from record     2200.2  Type=UKS/LOCAL(IBO)  
 Orbital energies read from record       2200.2  Type=UKS/LOCAL(IBO)  
 Redundancy group numbers read from rec  2200.2  Type=UKS/BETA (state 1.1)

 IBBA/aug-cc-pVTZ energy=      0.000000000000

        UKS-SCF 
   -233.57420654
 **********************************************************************************************************************************
 Molpro calculation terminated
