
 Primary working directories    : /tmp/sb13343
 Secondary working directories  : /tmp/sb13343
 Wavefunction directory         : /panfs/panasas01/chem/sb13343/wfu/
 Main file repository           : /tmp/sb13343/

 SHA1      : b4a5b34a9e711420743f49e6833241d17c61fb3c
 NAME      : 2099.9.b4a5b34
 ARCHNAME  : linux/x86_64_openmp
 FC        : /cm/shared/languages/GCC-6.1/bin/gfortran
 BLASLIB   : -lblas
 id        : simonbennie

 Nodes     nprocs
 node32-028    1

 Using customized tuning parameters: mindgm=1; mindgv=20; mindgc=4; mindgr=1; noblas=0; minvec=7
 default implementation of scratch files=df  

 memory,500,m
 geomtyp=xyz
 nosym
 noorient
 geometry={
 C         -1.53233        0.02247        0.00000
 C         -0.00192        0.01421        0.00000
 O          0.37239        1.40356        0.00000
 H          1.34248        1.44036        0.00000
 H         -1.92991       -0.99819        0.00000
 H         -1.90797        0.54382       -0.88653
 H         -1.90797        0.54382        0.88653
 C          0.54303       -0.66466       -1.26580
 C          0.54303       -0.66466        1.26580
 H          0.17836       -0.14752       -2.15943
 H          0.17836       -0.14752        2.15943
 H          0.23752       -1.71600       -1.32280
 H          0.23752       -1.71600        1.32280
 H          1.64084       -0.63767       -1.28032
 H          1.64084       -0.63767        1.28032
 }
 basis={ default,svp }
 {ks,BH-LYP,direct;wf,42,1,0}
 {ibba,bonds=1}

 Variables initialized (895), CPU time= 0.01 sec
 Commands  initialized (725), CPU time= 0.01 sec, 591 directives.
 Default parameters read. Elapsed time= 0.08 sec

 Checking input...
 Passed
1


                                         ***  PROGRAM SYSTEM MOLPRO  ***
                                       Copyright, TTI GmbH Stuttgart, 2015
                                    Version 2099.9 linked May 26 2017 16:03:21


 **********************************************************************************************************************************
 LABEL *                                                                                 
  64 bit serial version                                                                  DATE: 09-Jun-17          TIME: 03:36:07  
 **********************************************************************************************************************************

 SHA1:             b4a5b34a9e711420743f49e6833241d17c61fb3c
 **********************************************************************************************************************************
 SETTING GEOMTYP        =    XYZ

 Variable memory set to  500000000 words,  buffer space 

 ZSYMEL=NOSYM

 SETTING BASIS          =    SVP


 Recomputing integrals since basis changed


 Using spherical harmonics

 Library entry C      S def2-SVP             selected for orbital group  1
 Library entry C      P def2-SVP             selected for orbital group  1
 Library entry C      D def2-SVP             selected for orbital group  1
 Library entry O      S def2-SVP             selected for orbital group  2
 Library entry O      P def2-SVP             selected for orbital group  2
 Library entry O      D def2-SVP             selected for orbital group  2
 Library entry H      S def2-SVP             selected for orbital group  3
 Library entry H      P def2-SVP             selected for orbital group  3


 PROGRAM * SEWARD (Integral evaluation for generally contracted gaussian basis sets)     Author: Roland Lindh, 1990

 Geometry written to block  1 of record 700


 Point group  C1  



 ATOMIC COORDINATES

 NR  ATOM    CHARGE       X              Y              Z

   1  C       6.00   -2.895684032    0.042462146    0.000000000
   2  C       6.00   -0.003628274    0.026853008    0.000000000
   3  O       8.00    0.703715112    2.652343999    0.000000000
   4  H       1.00    2.536919528    2.721885921    0.000000000
   5  H       1.00   -3.647001345   -1.886305720    0.000000000
   6  H       1.00   -3.605540754    1.027670861   -1.675298901
   7  H       1.00   -3.605540754    1.027670861    1.675298901
   8  C       6.00    1.026177977   -1.256025366   -2.392015328
   9  C       6.00    1.026177977   -1.256025366    2.392015328
  10  H       1.00    0.337051552   -0.278772398   -4.080731285
  11  H       1.00    0.337051552   -0.278772398    4.080731285
  12  H       1.00    0.448847749   -3.242770030   -2.499729718
  13  H       1.00    0.448847749   -3.242770030    2.499729718
  14  H       1.00    3.100738214   -1.205021658   -2.419454152
  15  H       1.00    3.100738214   -1.205021658    2.419454152

 Bond lengths in Bohr (Angstrom)

 1-2  2.892097881  1-5  2.069933136  1-6  2.069096224  1-7  2.069096224  2-3  2.719106031
     ( 1.530432290)     ( 1.095361444)     ( 1.094918569)     ( 1.094918569)     ( 1.438888946)

  2- 8  2.903104402   2- 9  2.903104402   3- 4  1.834522965   8-10  2.069222119   8-12  2.071730422
       ( 1.536256691)       ( 1.536256691)       ( 0.970787746)       ( 1.094985190)       ( 1.096312526)

  8-14  2.075368508   9-11  2.069222119   9-13  2.071730422   9-15  2.075368508
       ( 1.098237719)       ( 1.094985190)       ( 1.096312526)       ( 1.098237719)

 Bond angles

  1-2-3  104.76902697   1-2-8  110.92255387   1-2-9  110.92255387   2-1-5  110.97328220

  2- 1- 6  110.22090701   2- 1- 7  110.22090701   2- 3- 4  107.25071562   2- 8-10  110.21836376

  2- 8-12  111.57747468   2- 8-14  110.77023896   2- 9-11  110.21836376   2- 9-13  111.57747468

  2- 9-15  110.77023896   3- 2- 8  109.53648747   3- 2- 9  109.53648747   5- 1- 6  108.61190457

  5- 1- 7  108.61190457   6- 1- 7  108.12870271   8- 2- 9  110.96453384  10- 8-12  108.52192632

 10- 8-14  108.08997829  11- 9-13  108.52192632  11- 9-15  108.08997829  12- 8-14  107.54424578

 13- 9-15  107.54424578

 NUCLEAR CHARGE:                   42
 NUMBER OF PRIMITIVE AOS:         195
 NUMBER OF SYMMETRY AOS:          190
 NUMBER OF CONTRACTIONS:          120   ( 120A   )
 NUMBER OF CORE ORBITALS:           5   (   5A   )
 NUMBER OF VALENCE ORBITALS:       30   (  30A   )


 NUCLEAR REPULSION ENERGY  198.77359127


 Eigenvalues of metric

         1 0.176E-02 0.546E-02 0.548E-02 0.123E-01 0.248E-01 0.256E-01 0.256E-01 0.275E-01


 Contracted 2-electron integrals neglected if value below      1.0D-11
 AO integral compression algorithm  1   Integral accuracy      1.0D-11

     101.974 MB (compressed) written to integral file ( 44.9%)


 NUMBER OF SORTED TWO-ELECTRON INTEGRALS:   26357430.     BUFFER LENGTH:  32768
 NUMBER OF SEGMENTS:   2  SEGMENT LENGTH:   15997996      RECORD LENGTH: 524288

 Memory used in sort:      16.56 MW

 SORT1 READ    28411733. AND WROTE    24096425. INTEGRALS IN     70 RECORDS. CPU TIME:     0.35 SEC, REAL TIME:     0.68 SEC
 SORT2 READ    24096425. AND WROTE    26357430. INTEGRALS IN    389 RECORDS. CPU TIME:     0.61 SEC, REAL TIME:     4.73 SEC

 FILE SIZES:   FILE 1:   132.7 MBYTE,  FILE 4:   293.6 MBYTE,   TOTAL:    426.4 MBYTE

 OPERATOR DM      FOR CENTER  0  COORDINATES:    0.000000    0.000000    0.000000


 **********************************************************************************************************************************
 DATASETS  * FILE   NREC   LENGTH (MB)   RECORD NAMES
              1      19      120.44       500      610      700      900      950      970     1000      129      960     1100   
                                          VAR    BASINP    GEOM    SYMINP    ZMAT    AOBASIS   BASIS     P2S    ABASIS      S 
                                         1400     1410     1200     1210     1080     1600     1650     1300     1700   
                                           T        V       H0       H01     AOSYM     SMH    MOLCAS    ERIS     OPER   

 PROGRAMS   *        TOTAL       INT
 CPU TIMES  *         4.04      3.91
 REAL TIME  *         9.08 SEC
 DISK USED  *       426.89 MB      
 **********************************************************************************************************************************

 Density functional group BH-LYP=B88+LYP
 Functional: B88(Automatically generated (new) B88)                            Gradient terms: 1
 Functional: LYP(Automatically generated (new) LYP)                            Gradient terms: 1
 Use grid at  1800.2


 Exact exchange will be calculated, factor:  0.5000

 Functional: B88                       Factor:  0.5000
 Functional: LYP                       Factor:  1.0000

 Generated new metagrid on record  1800.2 with target accuracy 1.0D-06 and 53396 points in CPU time    1.5
 Computed new grid on record 1800.1 in CPU time    1.7
   99539 words reserved for DFT integration

 PROGRAM * RKS-SCF (Restricted closed shell Kohn-Sham)     Authors: W. Meyer, H.-J. Werner, P.J. Knowles, 1993

 NUMBER OF ELECTRONS:      21+   21-    SPACE SYMMETRY=1    SPIN SYMMETRY: Singlet 
 CONVERGENCE THRESHOLDS:    1.00E-05 (Density)    1.00E-06 (Energy)
 MAX. NUMBER OF ITERATIONS:       60
 INTERPOLATION TYPE:            DIIS
 INTERPOLATION STEPS:              2 (START)      1 (STEP)
 LEVEL SHIFTS:                  0.00 (CLOSED)  0.00 (OPEN) 



 Use fine grid record 1800.2 for energy threshold  1.0D-06
 Orbital guess generated from atomic densities. Full valence occupancy:   21

 Molecular orbital dump at record        2100.2

 Initial occupancy:  21

 ITERATION    DDIFF          GRAD             ENERGY        2-EL.EN.            DIPOLE MOMENTS         DIIS   ORB.
    1      0.000D+00      0.000D+00      -233.22879531    598.980192    0.71123   -0.88196    0.00000    0    start
    2      0.000D+00      0.764D-02      -233.27290048    580.609591    0.13747   -0.20400    0.00000    1    diag
    3      0.126D-01      0.667D-02      -233.35532979    589.309942    0.38428   -0.54652    0.00000    2    diag
    4      0.618D-02      0.619D-03      -233.35581148    589.178819    0.37703   -0.48511    0.00000    3    diag
    5      0.650D-03      0.327D-03      -233.35600221    589.131951    0.37917   -0.51360    0.00000    4    diag
    6      0.295D-03      0.449D-04      -233.35600572    589.176854    0.37874   -0.51055    0.00000    5    diag
    7      0.527D-04      0.150D-04      -233.35600615    589.166893    0.37860   -0.51017    0.00000    6    diag
    8      0.134D-04      0.182D-05      -233.35600616    589.168215    0.37870   -0.51036    0.00000    7    diag
    9      0.304D-05      0.227D-06      -233.35600616    589.168161    0.37867   -0.51032    0.00000    0    orth

 Final occupancy:  21

 !RKS STATE 1.1 Energy               -233.356006161787
 Nuclear energy                       198.77359127
 One-electron energy                 -709.08070845
 Two-electron energy                  294.58408058
 SCF exchange energy                  -32.51128294     Factor= 0.5000
 Density functional                   -17.63296957     B88=-32.52219767 LYP= -1.37187073
 Virial quotient                       -1.01040769
 !RKS STATE 1.1 Dipole moment           0.37866820    -0.51032078     0.00000000
 Dipole moment /Debye                   0.96241553    -1.29702110     0.00000000

 Orbital energies:

         1.1          2.1          3.1          4.1          5.1          6.1          7.1          8.1          9.1         10.1
    -19.667874   -10.644881   -10.583663   -10.583645   -10.577418    -1.130415    -0.887787    -0.784405    -0.782719    -0.644527

        11.1         12.1         13.1         14.1         15.1         16.1         17.1         18.1         19.1         20.1
     -0.560490    -0.521400    -0.519581    -0.478519    -0.463414    -0.442249    -0.430106    -0.418110    -0.412110    -0.379624

        21.1         22.1         23.1
     -0.336902     0.077127     0.130353

 HOMO     21.1    -0.336902 =      -9.1676eV
 LUMO     22.1     0.077127 =       2.0987eV
 LUMO-HOMO         0.414029 =      11.2663eV


 **********************************************************************************************************************************
 DATASETS  * FILE   NREC   LENGTH (MB)   RECORD NAMES
              1      20      122.15       500      610      700      900      950      970     1000      129      960     1100   
                                          VAR    BASINP    GEOM    SYMINP    ZMAT    AOBASIS   BASIS     P2S    ABASIS      S 
                                         1400     1410     1200     1210     1080     1600     1650     1300     1700     1800   
                                           T        V       H0       H01     AOSYM     SMH    MOLCAS    ERIS     OPER     GRID   

              2       5        3.30       700     1000      520     1800     2100   
                                         GEOM     BASIS   MCVARS    GRID      RKS  

 PROGRAMS   *        TOTAL        KS       INT
 CPU TIMES  *        17.77     13.73      3.91
 REAL TIME  *        23.09 SEC
 DISK USED  *       426.89 MB      
 **********************************************************************************************************************************


 PROGRAM * Intrinsic Basis Bonding Analysis (IBBA)          Author: G. Knizia

 Molecular orbitals read from record     2100.2  Type=RKS/CANONICAL (state 1.1)
 Fock matrix read from record            2100.2  Type=RKS/TOTAL (state 1.1)
 Orbital energies read from record       2100.2  Type=RKS/CANONICAL (state 1.1)
 Density matrix read from record         2100.2  Type=RKS/CHARGE (state 1.1)

 Number of core orbitals:           5 (   5 )
 Number of closed-shell orbitals:  16 (  16 )

 Basis set MINAO-AUTO-PP generated.      Number of basis functions:   35 

 Polarized AO type:                A = (O Ot + (1-O)(1-Ot)) P12
 Orthogonalization method:         Symmetric (Loewdin)
 Localization functional:          L = sum[A,i] <i|n_A|i>^4 -> max

 Localization group 1:  21 orbitals, occupancy  2.000
 Iterative localization: IB/PM,    7 iter; Final gradient 0.39E-08

 Bond order analysis:       [THRPRINT= 0.020]

   CEN ATOM   CEN ATOM     WIBERG.BO      RENORM.BO
     1   C  -   2   C       0.995008       0.993411
     1   C  -   5   H       0.968553       0.988434
     1   C  -   6   H       0.963884       0.984233
     1   C  -   7   H       0.963884       0.984233

     2   C  -   1   C       0.995008       0.993411
     2   C  -   9   C       0.994348       0.978068
     2   C  -   8   C       0.994348       0.978068
     2   C  -   3   O       0.934291       0.958323

     3   O  -   2   C       0.934291       0.958323
     3   O  -   4   H       0.873166       0.980101
     3   O  -   9   C       0.023936       0.012270
     3   O  -   8   C       0.023936       0.012270

     4   H  -   3   O       0.873166       0.980101

     5   H  -   1   C       0.968553       0.988434

     6   H  -   1   C       0.963884       0.984233

     7   H  -   1   C       0.963884       0.984233

     8   C  -   2   C       0.994348       0.978068
     8   C  -  14   H       0.967894       0.984629
     8   C  -  12   H       0.965134       0.984986
     8   C  -  10   H       0.964254       0.984072
     8   C  -   3   O       0.023936       0.012270

     9   C  -   2   C       0.994348       0.978068
     9   C  -  15   H       0.967894       0.984629
     9   C  -  13   H       0.965134       0.984986
     9   C  -  11   H       0.964254       0.984072
     9   C  -   3   O       0.023936       0.012270

    10   H  -   8   C       0.964254       0.984072

    11   H  -   9   C       0.964254       0.984072

    12   H  -   8   C       0.965134       0.984986

    13   H  -   9   C       0.965134       0.984986

    14   H  -   8   C       0.967894       0.984629

    15   H  -   9   C       0.967894       0.984629


 Valency analysis:

   CEN ATOM   TOT.VALENCE
     1   C       3.944420
     2   C       3.928182
     3   O       1.912217
     4   H       0.889839
     5   H       0.985443
     6   H       0.982632
     7   H       0.982632
     8   C       3.946681
     9   C       3.946681
    10   H       0.982608
    11   H       0.982608
    12   H       0.984308
    13   H       0.984308
    14   H       0.986584
    15   H       0.986584

 Total charge composition:

   CEN ATOM         s          p       ELECTRONS ->P.CHARGE
     1   C       3.02061    3.35821      6.37882   -0.37882
     2   C       2.92039    2.81235      5.73274    0.26726
     3   O       3.62888    4.93687      8.56575   -0.56575
     4   H       0.66809                 0.66809    0.33191
     5   H       0.87935                 0.87935    0.12065
     6   H       0.86821                 0.86821    0.13179
     7   H       0.86821                 0.86821    0.13179
     8   C       3.02614    3.36625      6.39239   -0.39239
     9   C       3.02614    3.36625      6.39239   -0.39239
    10   H       0.86812                 0.86812    0.13188
    11   H       0.86812                 0.86812    0.13188
    12   H       0.87473                 0.87473    0.12527
    13   H       0.87473                 0.87473    0.12527
    14   H       0.88417                 0.88417    0.11583
    15   H       0.88417                 0.88417    0.11583

 Total charge composition, AO contributions:

   CEN ATOM SHL      SPHERICAL COMPONENTS
     1   C  1s       1.99064
     1   C  2s       1.02998
     1   C  2p       1.04242    1.15155    1.16423

     2   C  1s       1.99233
     2   C  2s       0.92806
     2   C  2p       1.01168    0.78901    1.01166

     3   O  1s       1.99700
     3   O  2s       1.63188
     3   O  2p       1.47345    1.50070    1.96272

     4   H  1s       0.66809

     5   H  1s       0.87935

     6   H  1s       0.86821

     7   H  1s       0.86821

     8   C  1s       1.99074
     8   C  2s       1.03541
     8   C  2p       1.13504    1.13690    1.09430

     9   C  1s       1.99074
     9   C  2s       1.03541
     9   C  2p       1.13504    1.13690    1.09430

    10   H  1s       0.86812

    11   H  1s       0.86812

    12   H  1s       0.87473

    13   H  1s       0.87473

    14   H  1s       0.88417

    15   H  1s       0.88417

 Summary of localized orbital composition:   [THRPRINT= 0.020]

   ORB  GRP  ORB.ENERGY      CENTERS/CHARGES
     1   1   -19.504676      O  3   2.000
     2   1   -10.549666      C  2   2.000
     3   1   -10.464899      C  8   2.000
     4   1   -10.464899      C  9   2.000
     5   1   -10.457822      C  1   2.000
     6   1    -0.849751      O  3   1.333   H  4   0.659
     7   1    -0.812586      O  3   1.283   C  2   0.701
     8   1    -0.653923      C  8   1.010   C  2   0.977
     9   1    -0.653923      C  9   1.010   C  2   0.977
    10   1    -0.652413      C  1   0.991   C  2   0.987   (other: 0.021)
    11   1    -0.645757      O  3   1.984
    12   1    -0.578486      C  9   1.121   H 13   0.867
    13   1    -0.578486      C  8   1.121   H 12   0.867
    14   1    -0.577023      C  9   1.112   H 15   0.878
    15   1    -0.577023      C  8   1.112   H 14   0.878
    16   1    -0.573369      C  1   1.116   H  5   0.873
    17   1    -0.572422      C  8   1.130   H 10   0.861
    18   1    -0.572422      C  9   1.130   H 11   0.861
    19   1    -0.566625      C  1   1.129   H  7   0.861
    20   1    -0.566625      C  1   1.129   H  6   0.861
    21   1    -0.377045      O  3   1.963   (other: 0.037)

 Localized orbitals saved to record      2100.2  (orbital set 2)


 **********************************************************************************************************************************
 DATASETS  * FILE   NREC   LENGTH (MB)   RECORD NAMES
              1      20      122.15       500      610      700      900      950      970     1000      129      960     1100   
                                          VAR    BASINP    GEOM    SYMINP    ZMAT    AOBASIS   BASIS     P2S    ABASIS      S 
                                         1400     1410     1200     1210     1080     1600     1650     1300     1700     1800   
                                           T        V       H0       H01     AOSYM     SMH    MOLCAS    ERIS     OPER     GRID   

              2       5        3.42       700     1000      520     1800     2100   
                                         GEOM     BASIS   MCVARS    GRID      RKS  

 PROGRAMS   *        TOTAL      IBBA        KS       INT
 CPU TIMES  *        17.81      0.04     13.73      3.91
 REAL TIME  *        23.23 SEC
 DISK USED  *       426.89 MB      
 **********************************************************************************************************************************
 Molecular orbitals read from record     2100.2  Type=RKS/LOCAL(IBO)  
 Occupation numbers read from record     2100.2  Type=RKS/LOCAL(IBO)  
 Orbital energies read from record       2100.2  Type=RKS/LOCAL(IBO)  
 Redundancy group numbers read from rec  2100.2  Type=RKS/LOCAL(IBO)  

 IBBA/SVP energy=      0.000000000000

        KS-SCF  
   -233.35600616
 **********************************************************************************************************************************
 Molpro calculation terminated
