
 Primary working directories    : /tmp/sb13343
 Secondary working directories  : /tmp/sb13343
 Wavefunction directory         : /panfs/panasas01/chem/sb13343/wfu/
 Main file repository           : /tmp/sb13343/

 SHA1      : b4a5b34a9e711420743f49e6833241d17c61fb3c
 NAME      : 2099.9.b4a5b34
 ARCHNAME  : linux/x86_64_openmp
 FC        : /cm/shared/languages/GCC-6.1/bin/gfortran
 BLASLIB   : -lblas
 id        : simonbennie

 Nodes     nprocs
 node32-028    1

 Using customized tuning parameters: mindgm=1; mindgv=20; mindgc=4; mindgr=1; noblas=0; minvec=7
 default implementation of scratch files=df  

 memory,500,m
 geomtyp=xyz
 nosym
 noorient
 geometry={
 H         -1.13405        1.76167        0.00000
 C         -1.32915        0.67205        0.00000
 C         -0.06360       -0.12883        0.00000
 C          0.67426       -0.31636        1.28970
 C          0.67426       -0.31636       -1.28970
 H         -1.94006        0.46750        0.88859
 H         -1.94006        0.46750       -0.88859
 H          1.28359        0.56876        1.55544
 H         -0.01165       -0.48291        2.13019
 H          1.36783       -1.16569        1.24157
 H          1.28359        0.56876       -1.55544
 H         -0.01165       -0.48291       -2.13019
 H          1.36783       -1.16569       -1.24157
 }
 basis={ default,svp }
 {ks,S,direct;wf,33,1,1}
 {ibba,bonds=1}

 Variables initialized (895), CPU time= 0.01 sec
 Commands  initialized (725), CPU time= 0.01 sec, 591 directives.
 Default parameters read. Elapsed time= 0.08 sec

 Checking input...
 Passed
1


                                         ***  PROGRAM SYSTEM MOLPRO  ***
                                       Copyright, TTI GmbH Stuttgart, 2015
                                    Version 2099.9 linked May 26 2017 16:03:21


 **********************************************************************************************************************************
 LABEL *                                                                                 
  64 bit serial version                                                                  DATE: 08-Jun-17          TIME: 20:44:09  
 **********************************************************************************************************************************

 SHA1:             b4a5b34a9e711420743f49e6833241d17c61fb3c
 **********************************************************************************************************************************
 SETTING GEOMTYP        =    XYZ

 Variable memory set to  500000000 words,  buffer space 

 ZSYMEL=NOSYM

 SETTING BASIS          =    SVP


 Recomputing integrals since basis changed


 Using spherical harmonics

 Library entry H      S def2-SVP             selected for orbital group  1
 Library entry H      P def2-SVP             selected for orbital group  1
 Library entry C      S def2-SVP             selected for orbital group  2
 Library entry C      P def2-SVP             selected for orbital group  2
 Library entry C      D def2-SVP             selected for orbital group  2


 PROGRAM * SEWARD (Integral evaluation for generally contracted gaussian basis sets)     Author: Roland Lindh, 1990

 Geometry written to block  1 of record 700


 Point group  C1  



 ATOMIC COORDINATES

 NR  ATOM    CHARGE       X              Y              Z

   1  H       1.00   -2.143043912    3.329073822    0.000000000
   2  C       6.00   -2.511729478    1.269990442    0.000000000
   3  C       6.00   -0.120186582   -0.243453417    0.000000000
   4  C       6.00    1.274166737   -0.597833757    2.437179783
   5  C       6.00    1.274166737   -0.597833757   -2.437179783
   6  H       1.00   -3.666182065    0.883446963    1.679191737
   7  H       1.00   -3.666182065    0.883446963   -1.679191737
   8  H       1.00    2.425633556    1.074800631    2.939355603
   9  H       1.00   -0.022015309   -0.912567643    4.025475693
  10  H       1.00    2.584824085   -2.202834846    2.346227264
  11  H       1.00    2.425633556    1.074800631   -2.939355603
  12  H       1.00   -0.022015309   -0.912567643   -4.025475693
  13  H       1.00    2.584824085   -2.202834846   -2.346227264

 Bond lengths in Bohr (Angstrom)

 1-2  2.091830159  2-3  2.830192527  2-6  2.074092940  2-7  2.074092940  3-4  2.830132841
     ( 1.106948849)     ( 1.497673388)     ( 1.097562717)     ( 1.097562717)     ( 1.497641803)

  3- 5  2.830132841   4- 8  2.091832255   4- 9  2.074085151   4-10  2.074156104   5-11  2.091832255
       ( 1.497641803)       ( 1.106949959)       ( 1.097558596)       ( 1.097596142)       ( 1.106949959)

  5-12  2.074085151   5-13  2.074156104
       ( 1.097558596)       ( 1.097596142)

 Bond angles

  1-2-3  112.17549786   1-2-6  106.35284965   1-2-7  106.35284965   2-3-4  118.89987932

  2-3-5  118.89987932   3-2-6  111.75744418   3-2-7  111.75744418   3-4-8  112.19808176

  3- 4- 9  111.75014522   3- 4-10  111.74379558   3- 5-11  112.19808176   3- 5-12  111.75014522

  3- 5-13  111.74379558   4- 3- 5  118.89276928   6- 2- 7  108.11431090   8- 4- 9  106.34995457

  8- 4-10  106.34572146   9- 4-10  108.12296896  11- 5-12  106.34995457  11- 5-13  106.34572146

 12- 5-13  108.12296896

 NUCLEAR CHARGE:                   33
 NUMBER OF PRIMITIVE AOS:         163
 NUMBER OF SYMMETRY AOS:          159
 NUMBER OF CONTRACTIONS:          101   ( 101A   )
 NUMBER OF CORE ORBITALS:           4   (   4A   )
 NUMBER OF VALENCE ORBITALS:       25   (  25A   )


 NUCLEAR REPULSION ENERGY  124.92676597


 Eigenvalues of metric

         1 0.371E-02 0.424E-02 0.424E-02 0.242E-01 0.242E-01 0.268E-01 0.277E-01 0.371E-01


 Contracted 2-electron integrals neglected if value below      1.0D-11
 AO integral compression algorithm  1   Integral accuracy      1.0D-11

     53.477 MB (compressed) written to integral file ( 46.4%)


 NUMBER OF SORTED TWO-ELECTRON INTEGRALS:   13268976.     BUFFER LENGTH:  32768
 NUMBER OF SEGMENTS:   1  SEGMENT LENGTH:   13268976      RECORD LENGTH: 524288

 Memory used in sort:      13.83 MW

 SORT1 READ    14422061. AND WROTE    12225547. INTEGRALS IN     35 RECORDS. CPU TIME:     0.16 SEC, REAL TIME:     0.32 SEC
 SORT2 READ    12225547. AND WROTE    13268976. INTEGRALS IN    204 RECORDS. CPU TIME:     0.31 SEC, REAL TIME:     0.40 SEC

 FILE SIZES:   FILE 1:    84.0 MBYTE,  FILE 4:   146.8 MBYTE,   TOTAL:    230.9 MBYTE

 OPERATOR DM      FOR CENTER  0  COORDINATES:    0.000000    0.000000    0.000000


 **********************************************************************************************************************************
 DATASETS  * FILE   NREC   LENGTH (MB)   RECORD NAMES
              1      19       77.16       500      610      700      900      950      970     1000      129      960     1100   
                                          VAR    BASINP    GEOM    SYMINP    ZMAT    AOBASIS   BASIS     P2S    ABASIS      S 
                                         1400     1410     1200     1210     1080     1600     1650     1300     1700   
                                           T        V       H0       H01     AOSYM     SMH    MOLCAS    ERIS     OPER   

 PROGRAMS   *        TOTAL       INT
 CPU TIMES  *         2.12      1.99
 REAL TIME  *         2.91 SEC
 DISK USED  *       231.35 MB      
 **********************************************************************************************************************************

 Density functional group S=DIRAC
 Functional: DIRAC(Automatically generated (new) DIRAC)                        Gradient terms: 0
 Use grid at  1800.2

 Functional: DIRAC                     Factor:  1.0000

 Generated new metagrid on record  1800.2 with target accuracy 1.0D-06 and 45406 points in CPU time    1.3
 Computed new grid on record 1800.1 in CPU time    1.4
   45874 words reserved for DFT integration

 PROGRAM * RKS-SCF (Restricted open shell Kohn-Sham)     Authors: W. Meyer, H.-J. Werner, P.J. Knowles, 1993

 NUMBER OF ELECTRONS:      17+   16-    SPACE SYMMETRY=1    SPIN SYMMETRY: Doublet 
 CONVERGENCE THRESHOLDS:    1.00E-05 (Density)    1.00E-06 (Energy)
 MAX. NUMBER OF ITERATIONS:       60
 INTERPOLATION TYPE:            DIIS
 INTERPOLATION STEPS:              2 (START)      1 (STEP)
 LEVEL SHIFTS:                 -0.60 (CLOSED) -0.30 (OPEN) 



 Use fine grid record 1800.2 for energy threshold  1.0D-06
 Orbital guess generated from atomic densities. Full valence occupancy:   17

 Molecular orbital dump at record        2100.2

 Initial alpha occupancy:  17
 Initial beta  occupancy:  16
 Wave function symmetry:    1

 ITERATION    DDIFF          GRAD             ENERGY        2-EL.EN.            DIPOLE MOMENTS         DIIS   ORB.
    1      0.000D+00      0.000D+00      -153.86102448    413.445300    0.14487    0.29285    0.00000    0    start
    2      0.000D+00      0.126D-01      -154.09489801    394.453394    0.02218    0.04501    0.00000    1    diag,B
    3      0.147D-01      0.519D-02      -154.13135888    399.030274    0.05118    0.10352    0.00000    2    diag,B
    4      0.445D-02      0.613D-03      -154.13246868    398.674243    0.04198    0.08489    0.00000    3    diag,B
    5      0.150D-02      0.265D-03      -154.13269109    398.679997    0.04358    0.08811    0.00000    4    diag,B
    6      0.682D-03      0.101D-03      -154.13273580    398.629418    0.04195    0.08480    0.00000    5    diag,B
    7      0.413D-03      0.270D-04      -154.13274039    398.625234    0.04245    0.08579    0.00000    6    fixocc
    8      0.150D-03      0.939D-05      -154.13274101    398.625205    0.04247    0.08583    0.00000    7    diag,B
    9      0.611D-04      0.246D-05      -154.13274105    398.625196    0.04257    0.08604    0.00000    8    diag,B
   10      0.121D-04      0.877D-06      -154.13274105    398.625118    0.04257    0.08603    0.00000    9    orth
   11      0.470D-05      0.161D-06      -154.13274105    398.625112    0.04256    0.08602    0.00000    0    orth

 Final alpha occupancy:  17
 Final beta  occupancy:  16

 !RKS STATE 1.1 Energy               -154.132741050779
 Nuclear energy                       124.92676597
 One-electron energy                 -457.04809882
 Two-electron energy                  199.31255593
 Density functional                   -21.32396413     DIRAC=-21.32396413
 Virial quotient                       -0.99704485
 !RKS STATE 1.1 Dipole moment           0.04256445     0.08602393     0.00000000
 Dipole moment /Debye                   0.10818097     0.21863669     0.00000000

 Orbital energies:

         1.1          2.1          3.1          4.1          5.1          6.1          7.1          8.1          9.1         10.1
     -9.712238    -9.703004    -9.703004    -9.702941    -0.657778    -0.560350    -0.560344    -0.414157    -0.341881    -0.341878

        11.1         12.1         13.1         14.1         15.1         16.1         17.1         18.1         19.1
     -0.338156    -0.287037    -0.287007    -0.268893    -0.251681    -0.251675    -0.090885     0.060785     0.111229

 HOMO     17.1    -0.090885 =      -2.4731eV
 LUMO     18.1     0.060785 =       1.6541eV
 LUMO-HOMO         0.151671 =       4.1272eV


 **********************************************************************************************************************************
 DATASETS  * FILE   NREC   LENGTH (MB)   RECORD NAMES
              1      20       78.61       500      610      700      900      950      970     1000      129      960     1100   
                                          VAR    BASINP    GEOM    SYMINP    ZMAT    AOBASIS   BASIS     P2S    ABASIS      S 
                                         1400     1410     1200     1210     1080     1600     1650     1300     1700     1800   
                                           T        V       H0       H01     AOSYM     SMH    MOLCAS    ERIS     OPER     GRID   

              2       5        3.26       700     1000      520     1800     2100   
                                         GEOM     BASIS   MCVARS    GRID      RKS  

 PROGRAMS   *        TOTAL        KS       INT
 CPU TIMES  *         9.87      7.75      1.99
 REAL TIME  *        10.84 SEC
 DISK USED  *       231.35 MB      
 **********************************************************************************************************************************


 PROGRAM * Intrinsic Basis Bonding Analysis (IBBA)          Author: G. Knizia

 Molecular orbitals read from record     2100.2  Type=RKS/CANONICAL (state 1.1)
 Fock matrix read from record            2100.2  Type=RKS/TOTAL (state 1.1)
 Orbital energies read from record       2100.2  Type=RKS/CANONICAL (state 1.1)
 Density matrix read from record         2100.2  Type=RKS/CHARGE (state 1.1)

 Number of core orbitals:           4 (   4 )
 Number of closed-shell orbitals:  12 (  12 )
 Number of active  orbitals:        1 (   1 )

 Basis set MINAO-AUTO-PP generated.      Number of basis functions:   29 

 Polarized AO type:                A = (O Ot + (1-O)(1-Ot)) P12
 Orthogonalization method:         Symmetric (Loewdin)
 Localization functional:          L = sum[A,i] <i|n_A|i>^4 -> max

 Localization group 1:  16 orbitals, occupancy  2.000
 Iterative localization: IB/PM,    7 iter; Final gradient 0.58E-08

 Bond order analysis:       [THRPRINT= 0.020]

   CEN ATOM   CEN ATOM     WIBERG.BO      RENORM.BO
     1   H  -   2   C       0.907676       0.998123
     1   H  -   3   C       0.040433       0.190568

     2   C  -   3   C       1.090297       1.310636
     2   C  -   6   H       0.947292       0.985389
     2   C  -   7   H       0.947292       0.985389
     2   C  -   1   H       0.907676       0.998123

     3   C  -   2   C       1.090297       1.310636
     3   C  -   5   C       1.090279       1.310584
     3   C  -   4   C       1.090279       1.310584
     3   C  -   1   H       0.040433       0.190568
     3   C  -  11   H       0.040403       0.190427
     3   C  -   8   H       0.040403       0.190427

     4   C  -   3   C       1.090279       1.310584
     4   C  -   9   H       0.947331       0.985380
     4   C  -  10   H       0.947234       0.985406
     4   C  -   8   H       0.907702       0.998119

     5   C  -   3   C       1.090279       1.310584
     5   C  -  12   H       0.947331       0.985380
     5   C  -  13   H       0.947234       0.985406
     5   C  -  11   H       0.907702       0.998119

     6   H  -   2   C       0.947292       0.985389

     7   H  -   2   C       0.947292       0.985389

     8   H  -   4   C       0.907702       0.998119
     8   H  -   3   C       0.040403       0.190427

     9   H  -   4   C       0.947331       0.985380

    10   H  -   4   C       0.947234       0.985406

    11   H  -   5   C       0.907702       0.998119
    11   H  -   3   C       0.040403       0.190427

    12   H  -   5   C       0.947331       0.985380

    13   H  -   5   C       0.947234       0.985406


 Valency analysis:

   CEN ATOM   TOT.VALENCE
     1   H       0.964158
     2   C       3.932704
     3   C       3.444743
     4   C       3.932691
     5   C       3.932691
     6   H       0.977277
     7   H       0.977277
     8   H       0.964157
     9   H       0.977291
    10   H       0.977259
    11   H       0.964157
    12   H       0.977291
    13   H       0.977259
 Localization group 2:   1 orbitals, occupancy  1.000
 Iterative localization: IB/PM,    1 iter; Final gradient 0.00E+00

 Bond order analysis:       [THRPRINT= 0.020]

   CEN ATOM   CEN ATOM     WIBERG.BO      RENORM.BO
     1   H  -   3   C       0.085426       0.500000


     3   C  -   1   H       0.085426       0.500000
     3   C  -  11   H       0.085418       0.500000
     3   C  -   8   H       0.085418       0.500000





     8   H  -   3   C       0.085418       0.500000



    11   H  -   3   C       0.085418       0.500000




 Valency analysis:

   CEN ATOM   TOT.VALENCE
     1   H       0.104625
     2   C       0.004162
     3   C       0.352815
     4   C       0.004150
     5   C       0.004150
     6   H       0.018598
     7   H       0.018598
     8   H       0.104616
     9   H       0.018532
    10   H       0.018689
    11   H       0.104616
    12   H       0.018532
    13   H       0.018689

 Total charge composition:

   CEN ATOM         s          p       ELECTRONS ->P.CHARGE
     1   H       0.86606                 0.86606    0.13394
     2   C       3.00314    3.42172      6.42487   -0.42487
     3   C       2.94952    3.02578      5.97530    0.02470
     4   C       3.00313    3.42176      6.42490   -0.42490
     5   C       3.00313    3.42176      6.42490   -0.42490
     6   H       0.85865                 0.85865    0.14135
     7   H       0.85865                 0.85865    0.14135
     8   H       0.86605                 0.86605    0.13395
     9   H       0.85866                 0.85866    0.14134
    10   H       0.85863                 0.85863    0.14137
    11   H       0.86605                 0.86605    0.13395
    12   H       0.85866                 0.85866    0.14134
    13   H       0.85863                 0.85863    0.14137

 Total charge composition, AO contributions:

   CEN ATOM SHL      SPHERICAL COMPONENTS
     1   H  1s       0.86606

     2   C  1s       1.99205
     2   C  2s       1.01109
     2   C  2p       1.10776    1.13828    1.17568

     3   C  1s       1.99364
     3   C  2s       0.95588
     3   C  2p       1.00659    1.01549    1.00370

     4   C  1s       1.99205
     4   C  2s       1.01108
     4   C  2p       1.15072    1.16322    1.10783

     5   C  1s       1.99205
     5   C  2s       1.01108
     5   C  2p       1.15072    1.16322    1.10783

     6   H  1s       0.85865

     7   H  1s       0.85865

     8   H  1s       0.86605

     9   H  1s       0.85866

    10   H  1s       0.85863

    11   H  1s       0.86605

    12   H  1s       0.85866

    13   H  1s       0.85863

 Active orbital charges:

   CEN ATOM         s          p       ELECTRONS ->SPIN.DEN
     1   H       0.05538                 0.05538    0.05538
     2   C       0.00028    0.00181      0.00209    0.00209
     3   C       0.01555    0.75573      0.77128    0.77128
     4   C       0.00028    0.00180      0.00208    0.00208
     5   C       0.00028    0.00180      0.00208    0.00208
     6   H       0.00939                 0.00939    0.00939
     7   H       0.00939                 0.00939    0.00939
     8   H       0.05537                 0.05537    0.05537
     9   H       0.00935                 0.00935    0.00935
    10   H       0.00943                 0.00943    0.00943
    11   H       0.05537                 0.05537    0.05537
    12   H       0.00935                 0.00935    0.00935
    13   H       0.00943                 0.00943    0.00943

 Active orbital charges, AO contributions:

   CEN ATOM SHL      SPHERICAL COMPONENTS
     1   H  1s       0.05538

     2   C  1s       0.00000
     2   C  2s       0.00028
     2   C  2p       0.00001    0.00180    0.00000

     3   C  1s       0.00001
     3   C  2s       0.01554
     3   C  2p       0.14791    0.60782    0.00000

     4   C  1s       0.00000
     4   C  2s       0.00028
     4   C  2p       0.00060    0.00100    0.00019

     5   C  1s       0.00000
     5   C  2s       0.00028
     5   C  2p       0.00060    0.00100    0.00019

     6   H  1s       0.00939

     7   H  1s       0.00939

     8   H  1s       0.05537

     9   H  1s       0.00935

    10   H  1s       0.00943

    11   H  1s       0.05537

    12   H  1s       0.00935

    13   H  1s       0.00943

 Summary of localized orbital composition:   [THRPRINT= 0.020]

   ORB  GRP  ORB.ENERGY      CENTERS/CHARGES
     1   1    -9.623144      C  3   2.000
     2   1    -9.594624      C  4   2.000
     3   1    -9.594624      C  5   2.000
     4   1    -9.594623      C  2   2.000
     5   1    -0.484841      C  5   1.014   C  3   0.971
     6   1    -0.484841      C  4   1.014   C  3   0.971
     7   1    -0.484818      C  2   1.014   C  3   0.971
     8   1    -0.393546      C  2   1.128   H  1   0.806   C  3   0.062
     9   1    -0.393544      C  5   1.128   H 11   0.806   C  3   0.062
    10   1    -0.393544      C  4   1.128   H  8   0.806   C  3   0.062
    11   1    -0.389987      C  4   1.136   H  9   0.841   (other: 0.023)
    12   1    -0.389987      C  5   1.136   H 12   0.841   (other: 0.023)
    13   1    -0.389984      C  2   1.136   H  7   0.841   (other: 0.023)
    14   1    -0.389984      C  2   1.136   H  6   0.841   (other: 0.023)
    15   1    -0.389968      C  5   1.136   H 13   0.841   (other: 0.023)
    16   1    -0.389968      C  4   1.136   H 10   0.841   (other: 0.023)
    17   2    -0.056236      C  3   0.771   H  1   0.055   H 11   0.055   H  8   0.055   (other: 0.063)

 Localized orbitals saved to record      2100.2  (orbital set 2)


 **********************************************************************************************************************************
 DATASETS  * FILE   NREC   LENGTH (MB)   RECORD NAMES
              1      20       78.61       500      610      700      900      950      970     1000      129      960     1100   
                                          VAR    BASINP    GEOM    SYMINP    ZMAT    AOBASIS   BASIS     P2S    ABASIS      S 
                                         1400     1410     1200     1210     1080     1600     1650     1300     1700     1800   
                                           T        V       H0       H01     AOSYM     SMH    MOLCAS    ERIS     OPER     GRID   

              2       5        3.34       700     1000      520     1800     2100   
                                         GEOM     BASIS   MCVARS    GRID      RKS  

 PROGRAMS   *        TOTAL      IBBA        KS       INT
 CPU TIMES  *         9.91      0.03      7.75      1.99
 REAL TIME  *        10.95 SEC
 DISK USED  *       231.35 MB      
 **********************************************************************************************************************************
 Molecular orbitals read from record     2100.2  Type=RKS/LOCAL(IBO)  
 Occupation numbers read from record     2100.2  Type=RKS/LOCAL(IBO)  
 Orbital energies read from record       2100.2  Type=RKS/LOCAL(IBO)  
 Redundancy group numbers read from rec  2100.2  Type=RKS/LOCAL(IBO)  

 IBBA/SVP energy=      0.000000000000

        KS-SCF  
   -154.13274105
 **********************************************************************************************************************************
 Molpro calculation terminated
