
 Primary working directories    : /local
 Secondary working directories  : /local
 Wavefunction directory         : /local/
 Main file repository           : /local/

 SHA1      : b4a5b34a9e711420743f49e6833241d17c61fb3c
 NAME      : 2099.9.b4a5b34
 ARCHNAME  : linux/x86_64_openmp
 FC        : /cm/shared/languages/GCC-6.1/bin/gfortran
 BLASLIB   : -lblas
 id        : simonbennie

 Nodes     nprocs
 node44-017    1

 Using customized tuning parameters: mindgm=1; mindgv=20; mindgc=4; mindgr=1; noblas=0; minvec=7
 default implementation of scratch files=df  

 memory,500,m
 geomtyp=xyz
 nosym
 noorient
 geometry={
 C         -1.53233        0.02247        0.00000
 C         -0.00192        0.01421        0.00000
 O          0.37239        1.40356        0.00000
 H          1.34248        1.44036        0.00000
 H         -1.92991       -0.99819        0.00000
 H         -1.90797        0.54382       -0.88653
 H         -1.90797        0.54382        0.88653
 C          0.54303       -0.66466       -1.26580
 C          0.54303       -0.66466        1.26580
 H          0.17836       -0.14752       -2.15943
 H          0.17836       -0.14752        2.15943
 H          0.23752       -1.71600       -1.32280
 H          0.23752       -1.71600        1.32280
 H          1.64084       -0.63767       -1.28032
 H          1.64084       -0.63767        1.28032
 }
 basis={ default,avtz }
 {ks,B97R,direct;wf,42,1,0}
 {ibba,bonds=1}

 Variables initialized (895), CPU time= 0.00 sec
 Commands  initialized (725), CPU time= 0.02 sec, 591 directives.
 Default parameters read. Elapsed time= 0.08 sec

 Checking input...
 Passed
1


                                         ***  PROGRAM SYSTEM MOLPRO  ***
                                       Copyright, TTI GmbH Stuttgart, 2015
                                    Version 2099.9 linked May 26 2017 16:03:21


 **********************************************************************************************************************************
 LABEL *                                                                                 
  64 bit serial version                                                                  DATE: 12-Jun-17          TIME: 16:06:30  
 **********************************************************************************************************************************

 SHA1:             b4a5b34a9e711420743f49e6833241d17c61fb3c
 **********************************************************************************************************************************
 SETTING GEOMTYP        =    XYZ

 Variable memory set to  500000000 words,  buffer space 

 ZSYMEL=NOSYM

 SETTING BASIS          =    AVTZ


 Recomputing integrals since basis changed


 Using spherical harmonics

 Library entry C      S aug-cc-pVTZ          selected for orbital group  1
 Library entry C      P aug-cc-pVTZ          selected for orbital group  1
 Library entry C      D aug-cc-pVTZ          selected for orbital group  1
 Library entry C      F aug-cc-pVTZ          selected for orbital group  1
 Library entry O      S aug-cc-pVTZ          selected for orbital group  2
 Library entry O      P aug-cc-pVTZ          selected for orbital group  2
 Library entry O      D aug-cc-pVTZ          selected for orbital group  2
 Library entry O      F aug-cc-pVTZ          selected for orbital group  2
 Library entry H      S aug-cc-pVTZ          selected for orbital group  3
 Library entry H      P aug-cc-pVTZ          selected for orbital group  3
 Library entry H      D aug-cc-pVTZ          selected for orbital group  3


 PROGRAM * SEWARD (Integral evaluation for generally contracted gaussian basis sets)     Author: Roland Lindh, 1990

 Geometry written to block  1 of record 700


 Point group  C1  



 ATOMIC COORDINATES

 NR  ATOM    CHARGE       X              Y              Z

   1  C       6.00   -2.895684032    0.042462146    0.000000000
   2  C       6.00   -0.003628274    0.026853008    0.000000000
   3  O       8.00    0.703715112    2.652343999    0.000000000
   4  H       1.00    2.536919528    2.721885921    0.000000000
   5  H       1.00   -3.647001345   -1.886305720    0.000000000
   6  H       1.00   -3.605540754    1.027670861   -1.675298901
   7  H       1.00   -3.605540754    1.027670861    1.675298901
   8  C       6.00    1.026177977   -1.256025366   -2.392015328
   9  C       6.00    1.026177977   -1.256025366    2.392015328
  10  H       1.00    0.337051552   -0.278772398   -4.080731285
  11  H       1.00    0.337051552   -0.278772398    4.080731285
  12  H       1.00    0.448847749   -3.242770030   -2.499729718
  13  H       1.00    0.448847749   -3.242770030    2.499729718
  14  H       1.00    3.100738214   -1.205021658   -2.419454152
  15  H       1.00    3.100738214   -1.205021658    2.419454152

 Bond lengths in Bohr (Angstrom)

 1-2  2.892097881  1-5  2.069933136  1-6  2.069096224  1-7  2.069096224  2-3  2.719106031
     ( 1.530432290)     ( 1.095361444)     ( 1.094918569)     ( 1.094918569)     ( 1.438888946)

  2- 8  2.903104402   2- 9  2.903104402   3- 4  1.834522965   8-10  2.069222119   8-12  2.071730422
       ( 1.536256691)       ( 1.536256691)       ( 0.970787746)       ( 1.094985190)       ( 1.096312526)

  8-14  2.075368508   9-11  2.069222119   9-13  2.071730422   9-15  2.075368508
       ( 1.098237719)       ( 1.094985190)       ( 1.096312526)       ( 1.098237719)

 Bond angles

  1-2-3  104.76902697   1-2-8  110.92255387   1-2-9  110.92255387   2-1-5  110.97328220

  2- 1- 6  110.22090701   2- 1- 7  110.22090701   2- 3- 4  107.25071562   2- 8-10  110.21836376

  2- 8-12  111.57747468   2- 8-14  110.77023896   2- 9-11  110.21836376   2- 9-13  111.57747468

  2- 9-15  110.77023896   3- 2- 8  109.53648747   3- 2- 9  109.53648747   5- 1- 6  108.61190457

  5- 1- 7  108.61190457   6- 1- 7  108.12870271   8- 2- 9  110.96453384  10- 8-12  108.52192632

 10- 8-14  108.08997829  11- 9-13  108.52192632  11- 9-15  108.08997829  12- 8-14  107.54424578

 13- 9-15  107.54424578

 NUCLEAR CHARGE:                   42
 NUMBER OF PRIMITIVE AOS:         605
 NUMBER OF SYMMETRY AOS:          540
 NUMBER OF CONTRACTIONS:          460   ( 460A   )
 NUMBER OF CORE ORBITALS:           5   (   5A   )
 NUMBER OF VALENCE ORBITALS:       30   (  30A   )


 NUCLEAR REPULSION ENERGY  198.77359127


 Eigenvalues of metric

         1 0.351E-05 0.596E-05 0.770E-05 0.977E-05 0.161E-04 0.173E-04 0.207E-04 0.297E-04


 Contracted 2-electron integrals neglected if value below      1.0D-12
 AO integral compression algorithm  1   Integral accuracy      1.0D-12

     24892.932 MB (compressed) written to integral file ( 51.7%)


 NUMBER OF SORTED TWO-ELECTRON INTEGRALS: 5621233465.     BUFFER LENGTH:  32768
 NUMBER OF SEGMENTS: 176  SEGMENT LENGTH:   31999951      RECORD LENGTH: 131072

 Memory used in sort:      32.16 MW

 SORT1 READ  6020115514. AND WROTE  5366777799. INTEGRALS IN  61513 RECORDS. CPU TIME:    84.45 SEC, REAL TIME:   927.04 SEC
 SORT2 READ  5366777799. AND WROTE  5621233465. INTEGRALS IN  94959 RECORDS. CPU TIME:   136.55 SEC, REAL TIME:  4246.70 SEC

 FILE SIZES:   FILE 1: 24930.9 MBYTE,  FILE 4: 64501.1 MBYTE,   TOTAL:  89432.0 MBYTE

 OPERATOR DM      FOR CENTER  0  COORDINATES:    0.000000    0.000000    0.000000


 **********************************************************************************************************************************
 DATASETS  * FILE   NREC   LENGTH (MB)   RECORD NAMES
              1      19    23757.53       500      610      700      900      950      970     1000      129      960     1100   
                                          VAR    BASINP    GEOM    SYMINP    ZMAT    AOBASIS   BASIS     P2S    ABASIS      S 
                                         1400     1410     1200     1210     1080     1600     1650     1300     1700   
                                           T        V       H0       H01     AOSYM     SMH    MOLCAS    ERIS     OPER   

 PROGRAMS   *        TOTAL       INT
 CPU TIMES  *       440.79    440.65
 REAL TIME  *      5559.13 SEC
 DISK USED  *        89.43 GB      
 **********************************************************************************************************************************

 Density functional group B97R=B97RDF
 Functional: B97RDF(Automatically generated (new) B97RDF)                      Gradient terms: 1
 Use grid at  1800.2


 Exact exchange will be calculated, factor:  0.2100

 Functional: B97RDF                    Factor:  1.0000

 Generated new metagrid on record  1800.2 with target accuracy 1.0D-06 and 55396 points in CPU time    1.7
 Computed new grid on record 1800.1 in CPU time    1.9
  370324 words reserved for DFT integration

 PROGRAM * RKS-SCF (Restricted closed shell Kohn-Sham)     Authors: W. Meyer, H.-J. Werner, P.J. Knowles, 1993

 NUMBER OF ELECTRONS:      21+   21-    SPACE SYMMETRY=1    SPIN SYMMETRY: Singlet 
 CONVERGENCE THRESHOLDS:    1.00E-05 (Density)    1.00E-06 (Energy)
 MAX. NUMBER OF ITERATIONS:       60
 INTERPOLATION TYPE:            DIIS
 INTERPOLATION STEPS:              2 (START)      1 (STEP)
 LEVEL SHIFTS:                  0.00 (CLOSED)  0.00 (OPEN) 



 Use fine grid record 1800.2 for energy threshold  1.0D-06
 Orbital guess generated from atomic densities. Full valence occupancy:   35

 Molecular orbital dump at record        2100.2

 Initial occupancy:  21

 ITERATION    DDIFF          GRAD             ENERGY        2-EL.EN.            DIPOLE MOMENTS         DIIS   ORB.
    1      0.000D+00      0.000D+00      -233.49189426    622.424799    0.68719   -0.80245    0.00000    0    start
    2      0.000D+00      0.463D-02      -233.36996667    589.157893   -0.24057   -0.12549    0.00000    1    diag
    3      0.977D-02      0.603D-02      -233.68428179    609.011471    0.36794   -0.63299    0.00000    2    diag
    4      0.508D-02      0.765D-03      -233.68811211    608.227498    0.33022   -0.48847    0.00000    3    diag
    5      0.661D-03      0.206D-03      -233.68838167    608.131779    0.32816   -0.54131    0.00000    4    diag
    6      0.179D-03      0.635D-04      -233.68841192    608.236439    0.33034   -0.53122    0.00000    5    diag
    7      0.579D-04      0.189D-04      -233.68841448    608.224497    0.33093   -0.52980    0.00000    6    diag
    8      0.166D-04      0.218D-05      -233.68841453    608.229696    0.33072   -0.53124    0.00000    7    diag
    9      0.286D-05      0.631D-06      -233.68841453    608.228543    0.33087   -0.53056    0.00000    0    orth

 Final occupancy:  21

 !RKS STATE 1.1 Energy               -233.688414526770
 Nuclear energy                       198.77359127
 One-electron energy                 -709.42169088
 Two-electron energy                  304.11427173
 SCF exchange energy                  -32.50951152     Factor= 0.2100
 Density functional                   -27.15458665     B97RDF=-27.15458665
 Virial quotient                       -1.00620389
 !RKS STATE 1.1 Dipole moment           0.33087040    -0.53055912     0.00000000
 Dipole moment /Debye                   0.84093358    -1.34845845     0.00000000

 Orbital energies:

         1.1          2.1          3.1          4.1          5.1          6.1          7.1          8.1          9.1         10.1
    -19.142625   -10.245572   -10.175594   -10.175581   -10.170433    -1.026433    -0.793600    -0.696530    -0.695510    -0.572396

        11.1         12.1         13.1         14.1         15.1         16.1         17.1         18.1         19.1         20.1
     -0.492509    -0.454746    -0.451754    -0.415058    -0.400099    -0.382055    -0.368639    -0.358055    -0.350676    -0.322573

        21.1         22.1         23.1
     -0.275678    -0.008005     0.015070

 HOMO     21.1    -0.275678 =      -7.5016eV
 LUMO     22.1    -0.008005 =      -0.2178eV
 LUMO-HOMO         0.267673 =       7.2838eV


 **********************************************************************************************************************************
 DATASETS  * FILE   NREC   LENGTH (MB)   RECORD NAMES
              1      20    23759.30       500      610      700      900      950      970     1000      129      960     1100   
                                          VAR    BASINP    GEOM    SYMINP    ZMAT    AOBASIS   BASIS     P2S    ABASIS      S 
                                         1400     1410     1200     1210     1080     1600     1650     1300     1700     1800   
                                           T        V       H0       H01     AOSYM     SMH    MOLCAS    ERIS     OPER     GRID   

              2       5        7.31       700     1000      520     1800     2100   
                                         GEOM     BASIS   MCVARS    GRID      RKS  

 PROGRAMS   *        TOTAL        KS       INT
 CPU TIMES  *      1543.13   1102.33    440.65
 REAL TIME  *      9702.31 SEC
 DISK USED  *        89.43 GB      
 **********************************************************************************************************************************


 PROGRAM * Intrinsic Basis Bonding Analysis (IBBA)          Author: G. Knizia

 Molecular orbitals read from record     2100.2  Type=RKS/CANONICAL (state 1.1)
 Fock matrix read from record            2100.2  Type=RKS/TOTAL (state 1.1)
 Orbital energies read from record       2100.2  Type=RKS/CANONICAL (state 1.1)
 Density matrix read from record         2100.2  Type=RKS/CHARGE (state 1.1)

 Number of core orbitals:           5 (   5 )
 Number of closed-shell orbitals:  16 (  16 )

 Basis set MINAO-AUTO-PP generated.      Number of basis functions:   35 

 Polarized AO type:                A = (O Ot + (1-O)(1-Ot)) P12
 Orthogonalization method:         Symmetric (Loewdin)
 Localization functional:          L = sum[A,i] <i|n_A|i>^4 -> max

 Localization group 1:  21 orbitals, occupancy  2.000
 Iterative localization: IB/PM,    7 iter; Final gradient 0.28E-08

 Bond order analysis:       [THRPRINT= 0.020]

   CEN ATOM   CEN ATOM     WIBERG.BO      RENORM.BO
     1   C  -   2   C       0.996609       0.993801
     1   C  -   5   H       0.963267       0.987223
     1   C  -   6   H       0.958416       0.981474
     1   C  -   7   H       0.958416       0.981474

     2   C  -   1   C       0.996609       0.993801
     2   C  -   9   C       0.995331       0.976217
     2   C  -   8   C       0.995331       0.976217
     2   C  -   3   O       0.932094       0.949610

     3   O  -   2   C       0.932094       0.949610
     3   O  -   4   H       0.860226       0.976357
     3   O  -   9   C       0.027445       0.014029
     3   O  -   8   C       0.027445       0.014029

     4   H  -   3   O       0.860226       0.976357

     5   H  -   1   C       0.963267       0.987223

     6   H  -   1   C       0.958416       0.981474

     7   H  -   1   C       0.958416       0.981474

     8   C  -   2   C       0.995331       0.976217
     8   C  -  14   H       0.962636       0.982195
     8   C  -  12   H       0.959063       0.981569
     8   C  -  10   H       0.958925       0.981330
     8   C  -   3   O       0.027445       0.014029

     9   C  -   2   C       0.995331       0.976217
     9   C  -  15   H       0.962636       0.982195
     9   C  -  13   H       0.959063       0.981569
     9   C  -  11   H       0.958925       0.981330
     9   C  -   3   O       0.027445       0.014029

    10   H  -   8   C       0.958925       0.981330

    11   H  -   9   C       0.958925       0.981330

    12   H  -   8   C       0.959063       0.981569

    13   H  -   9   C       0.959063       0.981569

    14   H  -   8   C       0.962636       0.982195

    15   H  -   9   C       0.962636       0.982195


 Valency analysis:

   CEN ATOM   TOT.VALENCE
     1   C       3.936497
     2   C       3.929352
     3   O       1.913850
     4   H       0.879808
     5   H       0.981724
     6   H       0.979089
     7   H       0.979089
     8   C       3.939117
     9   C       3.939117
    10   H       0.979118
    11   H       0.979118
    12   H       0.980939
    13   H       0.980939
    14   H       0.983238
    15   H       0.983238

 Total charge composition:

   CEN ATOM         s          p       ELECTRONS ->P.CHARGE
     1   C       3.04539    3.37150      6.41688   -0.41688
     2   C       2.94141    2.79907      5.74048    0.25952
     3   O       3.65144    4.92643      8.57787   -0.57787
     4   H       0.65331                 0.65331    0.34669
     5   H       0.86481                 0.86481    0.13519
     6   H       0.85539                 0.85539    0.14461
     7   H       0.85539                 0.85539    0.14461
     8   C       3.05172    3.37824      6.42996   -0.42996
     9   C       3.05172    3.37824      6.42996   -0.42996
    10   H       0.85549                 0.85549    0.14451
    11   H       0.85549                 0.85549    0.14451
    12   H       0.86194                 0.86194    0.13806
    13   H       0.86194                 0.86194    0.13806
    14   H       0.87053                 0.87053    0.12947
    15   H       0.87053                 0.87053    0.12947

 Total charge composition, AO contributions:

   CEN ATOM SHL      SPHERICAL COMPONENTS
     1   C  1s       1.99106
     1   C  2s       1.05433
     1   C  2p       1.03774    1.16078    1.17297

     2   C  1s       1.99270
     2   C  2s       0.94871
     2   C  2p       1.00606    0.78429    1.00872

     3   O  1s       1.99712
     3   O  2s       1.65432
     3   O  2p       1.47626    1.49354    1.95663

     4   H  1s       0.65331

     5   H  1s       0.86481

     6   H  1s       0.85539

     7   H  1s       0.85539

     8   C  1s       1.99116
     8   C  2s       1.06055
     8   C  2p       1.14273    1.14260    1.09291

     9   C  1s       1.99116
     9   C  2s       1.06055
     9   C  2p       1.14273    1.14260    1.09291

    10   H  1s       0.85549

    11   H  1s       0.85549

    12   H  1s       0.86194

    13   H  1s       0.86194

    14   H  1s       0.87053

    15   H  1s       0.87053

 Summary of localized orbital composition:   [THRPRINT= 0.020]

   ORB  GRP  ORB.ENERGY      CENTERS/CHARGES
     1   1   -18.980482      O  3   2.000
     2   1   -10.153227      C  2   2.000
     3   1   -10.059852      C  9   2.000
     4   1   -10.059852      C  8   2.000
     5   1   -10.053897      C  1   2.000
     6   1    -0.766731      O  3   1.349   H  4   0.642
     7   1    -0.723200      O  3   1.287   C  2   0.695
     8   1    -0.586739      O  3   1.982
     9   1    -0.577453      C  8   1.008   C  2   0.977
    10   1    -0.577453      C  9   1.008   C  2   0.977
    11   1    -0.576810      C  1   0.990   C  2   0.986   (other: 0.023)
    12   1    -0.509102      C  8   1.134   H 12   0.852
    13   1    -0.509102      C  9   1.134   H 13   0.852
    14   1    -0.507213      C  8   1.125   H 14   0.863
    15   1    -0.507213      C  9   1.125   H 15   0.863
    16   1    -0.504862      C  1   1.129   H  5   0.858
    17   1    -0.503238      C  9   1.142   H 11   0.847
    18   1    -0.503238      C  8   1.142   H 10   0.847
    19   1    -0.498656      C  1   1.141   H  6   0.847
    20   1    -0.498656      C  1   1.141   H  7   0.847
    21   1    -0.309140      O  3   1.957   (other: 0.043)

 Localized orbitals saved to record      2100.2  (orbital set 2)


 **********************************************************************************************************************************
 DATASETS  * FILE   NREC   LENGTH (MB)   RECORD NAMES
              1      20    23759.30       500      610      700      900      950      970     1000      129      960     1100   
                                          VAR    BASINP    GEOM    SYMINP    ZMAT    AOBASIS   BASIS     P2S    ABASIS      S 
                                         1400     1410     1200     1210     1080     1600     1650     1300     1700     1800   
                                           T        V       H0       H01     AOSYM     SMH    MOLCAS    ERIS     OPER     GRID   

              2       5        9.01       700     1000      520     1800     2100   
                                         GEOM     BASIS   MCVARS    GRID      RKS  

 PROGRAMS   *        TOTAL      IBBA        KS       INT
 CPU TIMES  *      1543.38      0.25   1102.33    440.65
 REAL TIME  *      9702.89 SEC
 DISK USED  *        89.43 GB      
 **********************************************************************************************************************************
 Molecular orbitals read from record     2100.2  Type=RKS/LOCAL(IBO)  
 Occupation numbers read from record     2100.2  Type=RKS/LOCAL(IBO)  
 Orbital energies read from record       2100.2  Type=RKS/LOCAL(IBO)  
 Redundancy group numbers read from rec  2100.2  Type=RKS/LOCAL(IBO)  

 IBBA/aug-cc-pVTZ energy=      0.000000000000

        KS-SCF  
   -233.68841453
 **********************************************************************************************************************************
 Molpro calculation terminated
