
 Primary working directories    : /local
 Secondary working directories  : /local
 Wavefunction directory         : /local/
 Main file repository           : /local/

 SHA1      : b4a5b34a9e711420743f49e6833241d17c61fb3c
 NAME      : 2099.9.b4a5b34
 ARCHNAME  : linux/x86_64_openmp
 FC        : /cm/shared/languages/GCC-6.1/bin/gfortran
 BLASLIB   : -lblas
 id        : simonbennie

 Nodes     nprocs
 node36-029    1

 Using customized tuning parameters: mindgm=1; mindgv=20; mindgc=4; mindgr=1; noblas=0; minvec=7
 default implementation of scratch files=df  

 memory,500,m
 geomtyp=xyz
 nosym
 noorient
 geometry={
 C         -1.53233        0.02247        0.00000
 C         -0.00192        0.01421        0.00000
 O          0.37239        1.40356        0.00000
 H          1.34248        1.44036        0.00000
 H         -1.92991       -0.99819        0.00000
 H         -1.90797        0.54382       -0.88653
 H         -1.90797        0.54382        0.88653
 C          0.54303       -0.66466       -1.26580
 C          0.54303       -0.66466        1.26580
 H          0.17836       -0.14752       -2.15943
 H          0.17836       -0.14752        2.15943
 H          0.23752       -1.71600       -1.32280
 H          0.23752       -1.71600        1.32280
 H          1.64084       -0.63767       -1.28032
 H          1.64084       -0.63767        1.28032
 }
 basis={ default,avtz }
 {uks,B3LYP5,direct;wf,42,1,0}
 {ibba,bonds=1}

 Variables initialized (895), CPU time= 0.01 sec
 Commands  initialized (725), CPU time= 0.01 sec, 591 directives.
 Default parameters read. Elapsed time= 0.16 sec

 Checking input...
 Passed
1


                                         ***  PROGRAM SYSTEM MOLPRO  ***
                                       Copyright, TTI GmbH Stuttgart, 2015
                                    Version 2099.9 linked May 26 2017 16:03:21


 **********************************************************************************************************************************
 LABEL *                                                                                 
  64 bit serial version                                                                  DATE: 12-Jun-17          TIME: 16:02:21  
 **********************************************************************************************************************************

 SHA1:             b4a5b34a9e711420743f49e6833241d17c61fb3c
 **********************************************************************************************************************************
 SETTING GEOMTYP        =    XYZ

 Variable memory set to  500000000 words,  buffer space 

 ZSYMEL=NOSYM

 SETTING BASIS          =    AVTZ


 Recomputing integrals since basis changed


 Using spherical harmonics

 Library entry C      S aug-cc-pVTZ          selected for orbital group  1
 Library entry C      P aug-cc-pVTZ          selected for orbital group  1
 Library entry C      D aug-cc-pVTZ          selected for orbital group  1
 Library entry C      F aug-cc-pVTZ          selected for orbital group  1
 Library entry O      S aug-cc-pVTZ          selected for orbital group  2
 Library entry O      P aug-cc-pVTZ          selected for orbital group  2
 Library entry O      D aug-cc-pVTZ          selected for orbital group  2
 Library entry O      F aug-cc-pVTZ          selected for orbital group  2
 Library entry H      S aug-cc-pVTZ          selected for orbital group  3
 Library entry H      P aug-cc-pVTZ          selected for orbital group  3
 Library entry H      D aug-cc-pVTZ          selected for orbital group  3


 PROGRAM * SEWARD (Integral evaluation for generally contracted gaussian basis sets)     Author: Roland Lindh, 1990

 Geometry written to block  1 of record 700


 Point group  C1  



 ATOMIC COORDINATES

 NR  ATOM    CHARGE       X              Y              Z

   1  C       6.00   -2.895684032    0.042462146    0.000000000
   2  C       6.00   -0.003628274    0.026853008    0.000000000
   3  O       8.00    0.703715112    2.652343999    0.000000000
   4  H       1.00    2.536919528    2.721885921    0.000000000
   5  H       1.00   -3.647001345   -1.886305720    0.000000000
   6  H       1.00   -3.605540754    1.027670861   -1.675298901
   7  H       1.00   -3.605540754    1.027670861    1.675298901
   8  C       6.00    1.026177977   -1.256025366   -2.392015328
   9  C       6.00    1.026177977   -1.256025366    2.392015328
  10  H       1.00    0.337051552   -0.278772398   -4.080731285
  11  H       1.00    0.337051552   -0.278772398    4.080731285
  12  H       1.00    0.448847749   -3.242770030   -2.499729718
  13  H       1.00    0.448847749   -3.242770030    2.499729718
  14  H       1.00    3.100738214   -1.205021658   -2.419454152
  15  H       1.00    3.100738214   -1.205021658    2.419454152

 Bond lengths in Bohr (Angstrom)

 1-2  2.892097881  1-5  2.069933136  1-6  2.069096224  1-7  2.069096224  2-3  2.719106031
     ( 1.530432290)     ( 1.095361444)     ( 1.094918569)     ( 1.094918569)     ( 1.438888946)

  2- 8  2.903104402   2- 9  2.903104402   3- 4  1.834522965   8-10  2.069222119   8-12  2.071730422
       ( 1.536256691)       ( 1.536256691)       ( 0.970787746)       ( 1.094985190)       ( 1.096312526)

  8-14  2.075368508   9-11  2.069222119   9-13  2.071730422   9-15  2.075368508
       ( 1.098237719)       ( 1.094985190)       ( 1.096312526)       ( 1.098237719)

 Bond angles

  1-2-3  104.76902697   1-2-8  110.92255387   1-2-9  110.92255387   2-1-5  110.97328220

  2- 1- 6  110.22090701   2- 1- 7  110.22090701   2- 3- 4  107.25071562   2- 8-10  110.21836376

  2- 8-12  111.57747468   2- 8-14  110.77023896   2- 9-11  110.21836376   2- 9-13  111.57747468

  2- 9-15  110.77023896   3- 2- 8  109.53648747   3- 2- 9  109.53648747   5- 1- 6  108.61190457

  5- 1- 7  108.61190457   6- 1- 7  108.12870271   8- 2- 9  110.96453384  10- 8-12  108.52192632

 10- 8-14  108.08997829  11- 9-13  108.52192632  11- 9-15  108.08997829  12- 8-14  107.54424578

 13- 9-15  107.54424578

 NUCLEAR CHARGE:                   42
 NUMBER OF PRIMITIVE AOS:         605
 NUMBER OF SYMMETRY AOS:          540
 NUMBER OF CONTRACTIONS:          460   ( 460A   )
 NUMBER OF CORE ORBITALS:           5   (   5A   )
 NUMBER OF VALENCE ORBITALS:       30   (  30A   )


 NUCLEAR REPULSION ENERGY  198.77359127


 Eigenvalues of metric

         1 0.351E-05 0.596E-05 0.770E-05 0.977E-05 0.161E-04 0.173E-04 0.207E-04 0.297E-04


 Contracted 2-electron integrals neglected if value below      1.0D-12
 AO integral compression algorithm  1   Integral accuracy      1.0D-12

     24892.932 MB (compressed) written to integral file ( 51.7%)


 NUMBER OF SORTED TWO-ELECTRON INTEGRALS: 5621233465.     BUFFER LENGTH:  32768
 NUMBER OF SEGMENTS: 176  SEGMENT LENGTH:   31999951      RECORD LENGTH: 131072

 Memory used in sort:      32.16 MW

 SORT1 READ  6020115514. AND WROTE  5366777799. INTEGRALS IN  61513 RECORDS. CPU TIME:    86.45 SEC, REAL TIME:  1676.15 SEC
 SORT2 READ  5366777799. AND WROTE  5621233465. INTEGRALS IN  94959 RECORDS. CPU TIME:   141.96 SEC, REAL TIME:  4713.77 SEC

 FILE SIZES:   FILE 1: 24930.9 MBYTE,  FILE 4: 64501.1 MBYTE,   TOTAL:  89432.0 MBYTE

 OPERATOR DM      FOR CENTER  0  COORDINATES:    0.000000    0.000000    0.000000


 **********************************************************************************************************************************
 DATASETS  * FILE   NREC   LENGTH (MB)   RECORD NAMES
              1      19    23757.53       500      610      700      900      950      970     1000      129      960     1100   
                                          VAR    BASINP    GEOM    SYMINP    ZMAT    AOBASIS   BASIS     P2S    ABASIS      S 
                                         1400     1410     1200     1210     1080     1600     1650     1300     1700   
                                           T        V       H0       H01     AOSYM     SMH    MOLCAS    ERIS     OPER   

 PROGRAMS   *        TOTAL       INT
 CPU TIMES  *       436.23    436.09
 REAL TIME  *      7165.19 SEC
 DISK USED  *        89.43 GB      
 **********************************************************************************************************************************

 Density functional group B3LYP5=B88+DIRAC+LYP+VWN5
 Functional: B88(Automatically generated (new) B88)                            Gradient terms: 1
 Functional: DIRAC(Automatically generated (new) DIRAC)                        Gradient terms: 0
 Functional: LYP(Automatically generated (new) LYP)                            Gradient terms: 1
 Functional: VWN5(Automatically generated (new) VWN5)                          Gradient terms: 0
 Use grid at  1800.2


 Exact exchange will be calculated, factor:  0.2000

 Functional: B88                       Factor:  0.7200
 Functional: DIRAC                     Factor:  0.0800
 Functional: LYP                       Factor:  0.8100
 Functional: VWN5                      Factor:  0.1900

 Generated new metagrid on record  1800.2 with target accuracy 1.0D-06 and 55396 points in CPU time    1.6
 Computed new grid on record 1800.1 in CPU time    1.7
  370324 words reserved for DFT integration

 PROGRAM * UKS-SCF (Unrestricted Kohn-Sham)     Authors: W. Meyer, H.-J. Werner, P.J. Knowles, 1993

 NUMBER OF ELECTRONS:      21+   21-    SPACE SYMMETRY=1    SPIN SYMMETRY: Singlet 
 CONVERGENCE THRESHOLDS:    1.00E-05 (Density)    1.00E-06 (Energy)
 MAX. NUMBER OF ITERATIONS:       60
 INTERPOLATION TYPE:            DIIS
 INTERPOLATION STEPS:              2 (START)      1 (STEP)
 LEVEL SHIFTS:                 -0.20 (ALPHA)  -0.20 (BETA) 



 Use fine grid record 1800.2 for energy threshold  1.0D-06
 Orbital guess generated from atomic densities. Full valence occupancy:   35

 Molecular orbital dump at record        2200.2

 Initial alpha occupation  21
 Initial beta  occupation  21

 ITERATION    DDIFF          GRAD             ENERGY        2-EL.EN.            DIPOLE MOMENTS         DIIS
    1      0.000D+00      0.000D+00      -233.39616262    624.131062    0.69821   -0.82940    0.00000    0
    2      0.706D-02      0.147D-02      -233.58107194    603.828874    0.23335   -0.48878    0.00000    1
    3      0.216D-02      0.753D-03      -233.61868223    609.168905    0.35456   -0.58857    0.00000    2
    4      0.416D-03      0.110D-03      -233.61981921    609.025636    0.34083   -0.54253    0.00000    3
    5      0.254D-03      0.488D-04      -233.62021217    608.944473    0.33635   -0.54565    0.00000    4
    6      0.188D-03      0.144D-04      -233.62028722    608.902665    0.33337   -0.54134    0.00000    5
    7      0.686D-04      0.371D-05      -233.62029143    608.873731    0.33187   -0.54127    0.00000    6
    8      0.217D-04      0.221D-05      -233.62029215    608.883096    0.33192   -0.54163    0.00000    7
    9      0.104D-04      0.373D-06      -233.62029221    608.882452    0.33184   -0.54150    0.00000    6
   10      0.169D-05      0.106D-06      -233.62029222    608.881929    0.33178   -0.54158    0.00000    7
   11      0.687D-06      0.531D-07      -233.62029222    608.882300    0.33178   -0.54157    0.00000    7

 Final alpha occupancy:  21
 Final beta  occupancy:  21

 !UKS STATE 1.1 Energy               -233.620292216365
 Nuclear energy                       198.77359127
 One-electron energy                 -709.42674745
 Two-electron energy                  304.44115014
 Density functional                   -27.40828618     B88=-32.56049982 DIRAC=-29.34250803 LYP= -1.37424051 VWN5= -2.65363605
 Virial quotient                       -1.00636039
 !UKS STATE 1.1 Dipole moment           0.33178383    -0.54157383     0.00000000
 Dipole moment /Debye                   0.84325514    -1.37645321     0.00000000

 Orbital energies for positive spin:

         1.1          2.1          3.1          4.1          5.1          6.1          7.1          8.1          9.1         10.1
    -19.123405   -10.232058   -10.163273   -10.163258   -10.157927    -1.018064    -0.787293    -0.691435    -0.690332    -0.568763

        11.1         12.1         13.1         14.1         15.1         16.1         17.1         18.1         19.1         20.1
     -0.489732    -0.452237    -0.449438    -0.413165    -0.398538    -0.380692    -0.367406    -0.356782    -0.349653    -0.321761

        21.1         22.1         23.1
     -0.274769    -0.015418     0.007037

 Orbital energies for negative spin:

         1.1          2.1          3.1          4.1          5.1          6.1          7.1          8.1          9.1         10.1
    -19.123404   -10.232058   -10.163273   -10.163257   -10.157927    -1.018062    -0.787292    -0.691434    -0.690331    -0.568763

        11.1         12.1         13.1         14.1         15.1         16.1         17.1         18.1         19.1         20.1
     -0.489732    -0.452237    -0.449438    -0.413164    -0.398538    -0.380691    -0.367406    -0.356782    -0.349653    -0.321760

        21.1         22.1         23.1
     -0.274768    -0.015417     0.007037

 HOMO    -21.1    -0.274768 =      -7.4768eV
 LUMO     22.1    -0.015418 =      -0.4195eV
 LUMO-HOMO         0.259350 =       7.0573eV

 EXPECTATION VALUE OF S**2:             0.00000000

 Occupation number threshold for canonical orbitals:  1.999000 (occupied),  0.001000 (virtual)

 Number of pseudo-canonical orbitals per symmetry:   21
 Number of active natural orbitals per symmetry:      0

 Natural orbitals saved to record    2200.2 (Orbital set 3)

 Orbital spaces for UNO-CAS (Min. occupation: 0.020  Max. occupation: 1.980):

 Closed:       21
 Active:        0


 **********************************************************************************************************************************
 DATASETS  * FILE   NREC   LENGTH (MB)   RECORD NAMES
              1      20    23759.30       500      610      700      900      950      970     1000      129      960     1100   
                                          VAR    BASINP    GEOM    SYMINP    ZMAT    AOBASIS   BASIS     P2S    ABASIS      S 
                                         1400     1410     1200     1210     1080     1600     1650     1300     1700     1800   
                                           T        V       H0       H01     AOSYM     SMH    MOLCAS    ERIS     OPER     GRID   

              2       5       11.56       700     1000      520     1800     2200   
                                         GEOM     BASIS   MCVARS    GRID      UKS  

 PROGRAMS   *        TOTAL       UKS       INT
 CPU TIMES  *      2060.35   1624.12    436.09
 REAL TIME  *     10549.23 SEC
 DISK USED  *        89.43 GB      
 **********************************************************************************************************************************


 PROGRAM * Intrinsic Basis Bonding Analysis (IBBA)          Author: G. Knizia

 Molecular orbitals read from record     2200.2  Type=UKS/ALPHA (state 1.1)
 Fock matrix read from record            2200.2  Type=UKS/TOTAL (state 1.1)
 Orbital energies read from record       2200.2  Type=UKS/ALPHA (state 1.1)
 Density matrix read from record         2200.2  Type=UKS/CHARGE (state 1.1)

 Number of core orbitals:           5 (   5 )
 Number of closed-shell orbitals:  16 (  16 )

 Basis set MINAO-AUTO-PP generated.      Number of basis functions:   35 

 Polarized AO type:                A = (O Ot + (1-O)(1-Ot)) P12
 Orthogonalization method:         Symmetric (Loewdin)
 Localization functional:          L = sum[A,i] <i|n_A|i>^4 -> max

 Localization group 1:  21 orbitals, occupancy  2.000
 Iterative localization: IB/PM,    7 iter; Final gradient 0.29E-08

 Bond order analysis:       [THRPRINT= 0.020]

   CEN ATOM   CEN ATOM     WIBERG.BO      RENORM.BO
     1   C  -   2   C       0.996398       0.994043
     1   C  -   5   H       0.963778       0.987180
     1   C  -   6   H       0.959094       0.981685
     1   C  -   7   H       0.959094       0.981685

     2   C  -   1   C       0.996398       0.994043
     2   C  -   9   C       0.995281       0.976612
     2   C  -   8   C       0.995281       0.976612
     2   C  -   3   O       0.930963       0.950165

     3   O  -   2   C       0.930963       0.950165
     3   O  -   4   H       0.861334       0.976113
     3   O  -   9   C       0.027296       0.013961
     3   O  -   8   C       0.027296       0.013961

     4   H  -   3   O       0.861334       0.976113

     5   H  -   1   C       0.963778       0.987180

     6   H  -   1   C       0.959094       0.981685

     7   H  -   1   C       0.959094       0.981685

     8   C  -   2   C       0.995281       0.976612
     8   C  -  14   H       0.963222       0.982408
     8   C  -  12   H       0.959613       0.981644
     8   C  -  10   H       0.959572       0.981522
     8   C  -   3   O       0.027296       0.013961

     9   C  -   2   C       0.995281       0.976612
     9   C  -  15   H       0.963222       0.982408
     9   C  -  13   H       0.959613       0.981644
     9   C  -  11   H       0.959572       0.981522
     9   C  -   3   O       0.027296       0.013961

    10   H  -   8   C       0.959572       0.981522

    11   H  -   9   C       0.959572       0.981522

    12   H  -   8   C       0.959613       0.981644

    13   H  -   9   C       0.959613       0.981644

    14   H  -   8   C       0.963222       0.982408

    15   H  -   9   C       0.963222       0.982408


 Valency analysis:

   CEN ATOM   TOT.VALENCE
     1   C       3.937673
     2   C       3.928023
     3   O       1.913147
     4   H       0.880998
     5   H       0.982250
     6   H       0.979620
     7   H       0.979620
     8   C       3.940242
     9   C       3.940242
    10   H       0.979622
    11   H       0.979622
    12   H       0.981443
    13   H       0.981443
    14   H       0.983695
    15   H       0.983695

 Total charge composition:

   CEN ATOM         s          p       ELECTRONS ->P.CHARGE
     1   C       3.04206    3.36896      6.41102   -0.41102
     2   C       2.93908    2.79987      5.73894    0.26106
     3   O       3.64907    4.92959      8.57867   -0.57867
     4   H       0.65503                 0.65503    0.34497
     5   H       0.86677                 0.86677    0.13323
     6   H       0.85724                 0.85724    0.14276
     7   H       0.85724                 0.85724    0.14276
     8   C       3.04846    3.37575      6.42421   -0.42421
     9   C       3.04846    3.37575      6.42421   -0.42421
    10   H       0.85725                 0.85725    0.14275
    11   H       0.85725                 0.85725    0.14275
    12   H       0.86378                 0.86378    0.13622
    13   H       0.86378                 0.86378    0.13622
    14   H       0.87231                 0.87231    0.12769
    15   H       0.87231                 0.87231    0.12769

 Total charge composition, AO contributions:

   CEN ATOM SHL      SPHERICAL COMPONENTS
     1   C  1s       1.99121
     1   C  2s       1.05086
     1   C  2p       1.03726    1.15964    1.17207

     2   C  1s       1.99283
     2   C  2s       0.94625
     2   C  2p       1.00702    0.78288    1.00997

     3   O  1s       1.99715
     3   O  2s       1.65192
     3   O  2p       1.47604    1.49662    1.95694

     4   H  1s       0.65503

     5   H  1s       0.86677

     6   H  1s       0.85724

     7   H  1s       0.85724

     8   C  1s       1.99131
     8   C  2s       1.05716
     8   C  2p       1.14180    1.14161    1.09234

     9   C  1s       1.99131
     9   C  2s       1.05716
     9   C  2p       1.14180    1.14161    1.09234

    10   H  1s       0.85725

    11   H  1s       0.85725

    12   H  1s       0.86378

    13   H  1s       0.86378

    14   H  1s       0.87231

    15   H  1s       0.87231

 Summary of localized orbital composition:   [THRPRINT= 0.020]

   ORB  GRP  ORB.ENERGY      CENTERS/CHARGES
     1   1   -18.963026      O  3   2.000
     2   1   -10.140073      C  2   2.000
     3   1   -10.048172      C  8   2.000
     4   1   -10.048172      C  9   2.000
     5   1   -10.042039      C  1   2.000
     6   1    -0.762781      O  3   1.347   H  4   0.643
     7   1    -0.720303      O  3   1.289   C  2   0.693
     8   1    -0.578097      O  3   1.982
     9   1    -0.574404      C  9   1.007   C  2   0.978
    10   1    -0.574404      C  8   1.007   C  2   0.978
    11   1    -0.573626      C  1   0.990   C  2   0.987   (other: 0.023)
    12   1    -0.506561      C  9   1.132   H 13   0.854
    13   1    -0.506561      C  8   1.132   H 12   0.854
    14   1    -0.504660      C  9   1.123   H 15   0.865
    15   1    -0.504660      C  8   1.123   H 14   0.865
    16   1    -0.502192      C  1   1.127   H  5   0.860
    17   1    -0.500570      C  8   1.140   H 10   0.849
    18   1    -0.500570      C  9   1.140   H 11   0.849
    19   1    -0.495828      C  1   1.140   H  7   0.849
    20   1    -0.495828      C  1   1.140   H  6   0.849
    21   1    -0.307382      O  3   1.957   (other: 0.043)

 Localized orbitals saved to record      2200.2  (orbital set 4)


 **********************************************************************************************************************************
 DATASETS  * FILE   NREC   LENGTH (MB)   RECORD NAMES
              1      20    23759.30       500      610      700      900      950      970     1000      129      960     1100   
                                          VAR    BASINP    GEOM    SYMINP    ZMAT    AOBASIS   BASIS     P2S    ABASIS      S 
                                         1400     1410     1200     1210     1080     1600     1650     1300     1700     1800   
                                           T        V       H0       H01     AOSYM     SMH    MOLCAS    ERIS     OPER     GRID   

              2       5       13.27       700     1000      520     1800     2200   
                                         GEOM     BASIS   MCVARS    GRID      UKS  

 PROGRAMS   *        TOTAL      IBBA       UKS       INT
 CPU TIMES  *      2060.60      0.24   1624.12    436.09
 REAL TIME  *     10550.23 SEC
 DISK USED  *        89.43 GB      
 **********************************************************************************************************************************
 Molecular orbitals read from record     2200.2  Type=UKS/LOCAL(IBO)  
 Occupation numbers read from record     2200.2  Type=UKS/LOCAL(IBO)  
 Orbital energies read from record       2200.2  Type=UKS/LOCAL(IBO)  
 Redundancy group numbers read from rec  2200.2  Type=UKS/BETA (state 1.1)

 IBBA/aug-cc-pVTZ energy=      0.000000000000

        UKS-SCF 
   -233.62029222
 **********************************************************************************************************************************
 Molpro calculation terminated
