
 Primary working directories    : /local
 Secondary working directories  : /local
 Wavefunction directory         : /local/
 Main file repository           : /local/

 SHA1      : b4a5b34a9e711420743f49e6833241d17c61fb3c
 NAME      : 2099.9.b4a5b34
 ARCHNAME  : linux/x86_64_openmp
 FC        : /cm/shared/languages/GCC-6.1/bin/gfortran
 BLASLIB   : -lblas
 id        : simonbennie

 Nodes     nprocs
 node34-003    1

 Using customized tuning parameters: mindgm=1; mindgv=20; mindgc=4; mindgr=1; noblas=0; minvec=7
 default implementation of scratch files=df  

 memory,500,m
 geomtyp=xyz
 nosym
 noorient
 geometry={
 C         -1.53233        0.02247        0.00000
 C         -0.00192        0.01421        0.00000
 O          0.37239        1.40356        0.00000
 H          1.34248        1.44036        0.00000
 H         -1.92991       -0.99819        0.00000
 H         -1.90797        0.54382       -0.88653
 H         -1.90797        0.54382        0.88653
 C          0.54303       -0.66466       -1.26580
 C          0.54303       -0.66466        1.26580
 H          0.17836       -0.14752       -2.15943
 H          0.17836       -0.14752        2.15943
 H          0.23752       -1.71600       -1.32280
 H          0.23752       -1.71600        1.32280
 H          1.64084       -0.63767       -1.28032
 H          1.64084       -0.63767        1.28032
 }
 basis={ default,avtz }
 {ks,B-P,direct;wf,42,1,0}
 {ibba,bonds=1}

 Variables initialized (895), CPU time= 0.00 sec
 Commands  initialized (725), CPU time= 0.02 sec, 591 directives.
 Default parameters read. Elapsed time= 0.17 sec

 Checking input...
 Passed
1


                                         ***  PROGRAM SYSTEM MOLPRO  ***
                                       Copyright, TTI GmbH Stuttgart, 2015
                                    Version 2099.9 linked May 26 2017 16:03:21


 **********************************************************************************************************************************
 LABEL *                                                                                 
  64 bit serial version                                                                  DATE: 12-Jun-17          TIME: 15:48:31  
 **********************************************************************************************************************************

 SHA1:             b4a5b34a9e711420743f49e6833241d17c61fb3c
 **********************************************************************************************************************************
 SETTING GEOMTYP        =    XYZ

 Variable memory set to  500000000 words,  buffer space 

 ZSYMEL=NOSYM

 SETTING BASIS          =    AVTZ


 Recomputing integrals since basis changed


 Using spherical harmonics

 Library entry C      S aug-cc-pVTZ          selected for orbital group  1
 Library entry C      P aug-cc-pVTZ          selected for orbital group  1
 Library entry C      D aug-cc-pVTZ          selected for orbital group  1
 Library entry C      F aug-cc-pVTZ          selected for orbital group  1
 Library entry O      S aug-cc-pVTZ          selected for orbital group  2
 Library entry O      P aug-cc-pVTZ          selected for orbital group  2
 Library entry O      D aug-cc-pVTZ          selected for orbital group  2
 Library entry O      F aug-cc-pVTZ          selected for orbital group  2
 Library entry H      S aug-cc-pVTZ          selected for orbital group  3
 Library entry H      P aug-cc-pVTZ          selected for orbital group  3
 Library entry H      D aug-cc-pVTZ          selected for orbital group  3


 PROGRAM * SEWARD (Integral evaluation for generally contracted gaussian basis sets)     Author: Roland Lindh, 1990

 Geometry written to block  1 of record 700


 Point group  C1  



 ATOMIC COORDINATES

 NR  ATOM    CHARGE       X              Y              Z

   1  C       6.00   -2.895684032    0.042462146    0.000000000
   2  C       6.00   -0.003628274    0.026853008    0.000000000
   3  O       8.00    0.703715112    2.652343999    0.000000000
   4  H       1.00    2.536919528    2.721885921    0.000000000
   5  H       1.00   -3.647001345   -1.886305720    0.000000000
   6  H       1.00   -3.605540754    1.027670861   -1.675298901
   7  H       1.00   -3.605540754    1.027670861    1.675298901
   8  C       6.00    1.026177977   -1.256025366   -2.392015328
   9  C       6.00    1.026177977   -1.256025366    2.392015328
  10  H       1.00    0.337051552   -0.278772398   -4.080731285
  11  H       1.00    0.337051552   -0.278772398    4.080731285
  12  H       1.00    0.448847749   -3.242770030   -2.499729718
  13  H       1.00    0.448847749   -3.242770030    2.499729718
  14  H       1.00    3.100738214   -1.205021658   -2.419454152
  15  H       1.00    3.100738214   -1.205021658    2.419454152

 Bond lengths in Bohr (Angstrom)

 1-2  2.892097881  1-5  2.069933136  1-6  2.069096224  1-7  2.069096224  2-3  2.719106031
     ( 1.530432290)     ( 1.095361444)     ( 1.094918569)     ( 1.094918569)     ( 1.438888946)

  2- 8  2.903104402   2- 9  2.903104402   3- 4  1.834522965   8-10  2.069222119   8-12  2.071730422
       ( 1.536256691)       ( 1.536256691)       ( 0.970787746)       ( 1.094985190)       ( 1.096312526)

  8-14  2.075368508   9-11  2.069222119   9-13  2.071730422   9-15  2.075368508
       ( 1.098237719)       ( 1.094985190)       ( 1.096312526)       ( 1.098237719)

 Bond angles

  1-2-3  104.76902697   1-2-8  110.92255387   1-2-9  110.92255387   2-1-5  110.97328220

  2- 1- 6  110.22090701   2- 1- 7  110.22090701   2- 3- 4  107.25071562   2- 8-10  110.21836376

  2- 8-12  111.57747468   2- 8-14  110.77023896   2- 9-11  110.21836376   2- 9-13  111.57747468

  2- 9-15  110.77023896   3- 2- 8  109.53648747   3- 2- 9  109.53648747   5- 1- 6  108.61190457

  5- 1- 7  108.61190457   6- 1- 7  108.12870271   8- 2- 9  110.96453384  10- 8-12  108.52192632

 10- 8-14  108.08997829  11- 9-13  108.52192632  11- 9-15  108.08997829  12- 8-14  107.54424578

 13- 9-15  107.54424578

 NUCLEAR CHARGE:                   42
 NUMBER OF PRIMITIVE AOS:         605
 NUMBER OF SYMMETRY AOS:          540
 NUMBER OF CONTRACTIONS:          460   ( 460A   )
 NUMBER OF CORE ORBITALS:           5   (   5A   )
 NUMBER OF VALENCE ORBITALS:       30   (  30A   )


 NUCLEAR REPULSION ENERGY  198.77359127


 Eigenvalues of metric

         1 0.351E-05 0.596E-05 0.770E-05 0.977E-05 0.161E-04 0.173E-04 0.207E-04 0.297E-04


 Contracted 2-electron integrals neglected if value below      1.0D-12
 AO integral compression algorithm  1   Integral accuracy      1.0D-12

     24892.932 MB (compressed) written to integral file ( 51.7%)


 NUMBER OF SORTED TWO-ELECTRON INTEGRALS: 5621233465.     BUFFER LENGTH:  32768
 NUMBER OF SEGMENTS: 176  SEGMENT LENGTH:   31999951      RECORD LENGTH: 131072

 Memory used in sort:      32.16 MW

 SORT1 READ  6020115514. AND WROTE  5366777799. INTEGRALS IN  61513 RECORDS. CPU TIME:    87.54 SEC, REAL TIME:  8143.09 SEC
 SORT2 READ  5366777799. AND WROTE  5621233465. INTEGRALS IN  94959 RECORDS. CPU TIME:   143.90 SEC, REAL TIME: 15987.23 SEC

 FILE SIZES:   FILE 1: 24930.9 MBYTE,  FILE 4: 64501.1 MBYTE,   TOTAL:  89432.0 MBYTE

 OPERATOR DM      FOR CENTER  0  COORDINATES:    0.000000    0.000000    0.000000


 **********************************************************************************************************************************
 DATASETS  * FILE   NREC   LENGTH (MB)   RECORD NAMES
              1      19    23757.53       500      610      700      900      950      970     1000      129      960     1100   
                                          VAR    BASINP    GEOM    SYMINP    ZMAT    AOBASIS   BASIS     P2S    ABASIS      S 
                                         1400     1410     1200     1210     1080     1600     1650     1300     1700   
                                           T        V       H0       H01     AOSYM     SMH    MOLCAS    ERIS     OPER   

 PROGRAMS   *        TOTAL       INT
 CPU TIMES  *       449.27    449.14
 REAL TIME  *     25367.43 SEC
 DISK USED  *        89.43 GB      
 **********************************************************************************************************************************

 Density functional group B-P=B88+P86
 Functional: B88(Automatically generated (new) B88)                            Gradient terms: 1
 Functional: P86(Automatically generated (new) P86)                            Gradient terms: 1
 Use grid at  1800.2

 Functional: B88                       Factor:  1.0000
 Functional: P86                       Factor:  1.0000

 Generated new metagrid on record  1800.2 with target accuracy 1.0D-06 and 55396 points in CPU time    1.7
 Computed new grid on record 1800.1 in CPU time    1.9
  370324 words reserved for DFT integration

 PROGRAM * RKS-SCF (Restricted closed shell Kohn-Sham)     Authors: W. Meyer, H.-J. Werner, P.J. Knowles, 1993

 NUMBER OF ELECTRONS:      21+   21-    SPACE SYMMETRY=1    SPIN SYMMETRY: Singlet 
 CONVERGENCE THRESHOLDS:    1.00E-05 (Density)    1.00E-06 (Energy)
 MAX. NUMBER OF ITERATIONS:       60
 INTERPOLATION TYPE:            DIIS
 INTERPOLATION STEPS:              2 (START)      1 (STEP)
 LEVEL SHIFTS:                  0.00 (CLOSED)  0.00 (OPEN) 



 Use fine grid record 1800.2 for energy threshold  1.0D-06
 Orbital guess generated from atomic densities. Full valence occupancy:   35

 Molecular orbital dump at record        2100.2

 Initial occupancy:  21

 ITERATION    DDIFF          GRAD             ENERGY        2-EL.EN.            DIPOLE MOMENTS         DIIS   ORB.
    1      0.000D+00      0.000D+00      -233.46260630    640.500290    0.69213   -0.76853    0.00000    0    start
    2      0.000D+00      0.584D-02      -232.88146776    588.195588   -0.71755    0.13839    0.00000    1    diag
    3      0.146D-01      0.974D-02      -233.75560412    624.359054    0.42385   -0.76160    0.00000    2    diag
    4      0.935D-02      0.153D-02      -233.77093040    622.053301    0.32668   -0.40674    0.00000    3    diag
    5      0.146D-02      0.561D-03      -233.77301021    621.660179    0.31094   -0.54449    0.00000    4    diag
    6      0.556D-03      0.188D-03      -233.77326925    621.877189    0.31721   -0.51177    0.00000    5    diag
    7      0.165D-03      0.589D-04      -233.77329255    621.868429    0.32115   -0.51038    0.00000    6    diag
    8      0.542D-04      0.855D-05      -233.77329322    621.890326    0.31967   -0.51577    0.00000    7    diag
    9      0.107D-04      0.244D-05      -233.77329328    621.890385    0.32029   -0.51419    0.00000    8    diag
   10      0.267D-05      0.378D-06      -233.77329328    621.889847    0.32026   -0.51441    0.00000    0    orth

 Final occupancy:  21

 !RKS STATE 1.1 Energy               -233.773293282320
 Nuclear energy                       198.77359127
 One-electron energy                 -709.44489916
 Two-electron energy                  310.94492363
 Density functional                   -34.04690903     B88=-32.54689256 P86= -1.50001647
 Virial quotient                       -1.00649361
 !RKS STATE 1.1 Dipole moment           0.32025855    -0.51441107     0.00000000
 Dipole moment /Debye                   0.81396272    -1.30741689     0.00000000

 Orbital energies:

         1.1          2.1          3.1          4.1          5.1          6.1          7.1          8.1          9.1         10.1
    -18.768502    -9.960053    -9.891117    -9.891091    -9.886196    -0.936112    -0.719621    -0.629088    -0.628372    -0.517784

        11.1         12.1         13.1         14.1         15.1         16.1         17.1         18.1         19.1         20.1
     -0.443903    -0.408306    -0.405564    -0.370361    -0.356900    -0.340792    -0.327128    -0.316395    -0.309843    -0.283165

        21.1         22.1         23.1
     -0.230955    -0.023410     0.001720

 HOMO     21.1    -0.230955 =      -6.2846eV
 LUMO     22.1    -0.023410 =      -0.6370eV
 LUMO-HOMO         0.207544 =       5.6476eV


 **********************************************************************************************************************************
 DATASETS  * FILE   NREC   LENGTH (MB)   RECORD NAMES
              1      20    23759.30       500      610      700      900      950      970     1000      129      960     1100   
                                          VAR    BASINP    GEOM    SYMINP    ZMAT    AOBASIS   BASIS     P2S    ABASIS      S 
                                         1400     1410     1200     1210     1080     1600     1650     1300     1700     1800   
                                           T        V       H0       H01     AOSYM     SMH    MOLCAS    ERIS     OPER     GRID   

              2       5        7.31       700     1000      520     1800     2100   
                                         GEOM     BASIS   MCVARS    GRID      RKS  

 PROGRAMS   *        TOTAL        KS       INT
 CPU TIMES  *       971.38    522.10    449.14
 REAL TIME  *     26850.25 SEC
 DISK USED  *        89.43 GB      
 **********************************************************************************************************************************


 PROGRAM * Intrinsic Basis Bonding Analysis (IBBA)          Author: G. Knizia

 Molecular orbitals read from record     2100.2  Type=RKS/CANONICAL (state 1.1)
 Fock matrix read from record            2100.2  Type=RKS/TOTAL (state 1.1)
 Orbital energies read from record       2100.2  Type=RKS/CANONICAL (state 1.1)
 Density matrix read from record         2100.2  Type=RKS/CHARGE (state 1.1)

 Number of core orbitals:           5 (   5 )
 Number of closed-shell orbitals:  16 (  16 )

 Basis set MINAO-AUTO-PP generated.      Number of basis functions:   35 

 Polarized AO type:                A = (O Ot + (1-O)(1-Ot)) P12
 Orthogonalization method:         Symmetric (Loewdin)
 Localization functional:          L = sum[A,i] <i|n_A|i>^4 -> max

 Localization group 1:  21 orbitals, occupancy  2.000
 Iterative localization: IB/PM,    7 iter; Final gradient 0.49E-08

 Bond order analysis:       [THRPRINT= 0.020]

   CEN ATOM   CEN ATOM     WIBERG.BO      RENORM.BO
     1   C  -   2   C       0.996607       0.993215
     1   C  -   5   H       0.959993       0.986131
     1   C  -   6   H       0.955313       0.979834
     1   C  -   7   H       0.955313       0.979834

     2   C  -   1   C       0.996607       0.993215
     2   C  -   9   C       0.995171       0.974075
     2   C  -   8   C       0.995171       0.974075
     2   C  -   3   O       0.935536       0.943959

     3   O  -   2   C       0.935536       0.943959
     3   O  -   4   H       0.859427       0.973597
     3   O  -   9   C       0.030375       0.015541
     3   O  -   8   C       0.030375       0.015541

     4   H  -   3   O       0.859427       0.973597

     5   H  -   1   C       0.959993       0.986131

     6   H  -   1   C       0.955313       0.979834

     7   H  -   1   C       0.955313       0.979834

     8   C  -   2   C       0.995171       0.974075
     8   C  -  14   H       0.959528       0.980674
     8   C  -  10   H       0.955922       0.979668
     8   C  -  12   H       0.955161       0.978995
     8   C  -   3   O       0.030375       0.015541

     9   C  -   2   C       0.995171       0.974075
     9   C  -  15   H       0.959528       0.980674
     9   C  -  11   H       0.955922       0.979668
     9   C  -  13   H       0.955161       0.978995
     9   C  -   3   O       0.030375       0.015541

    10   H  -   8   C       0.955922       0.979668

    11   H  -   9   C       0.955922       0.979668

    12   H  -   8   C       0.955161       0.978995

    13   H  -   9   C       0.955161       0.978995

    14   H  -   8   C       0.959528       0.980674

    15   H  -   9   C       0.959528       0.980674


 Valency analysis:

   CEN ATOM   TOT.VALENCE
     1   C       3.932324
     2   C       3.933552
     3   O       1.930294
     4   H       0.881030
     5   H       0.980207
     6   H       0.977756
     7   H       0.977756
     8   C       3.935049
     9   C       3.935049
    10   H       0.977830
    11   H       0.977830
    12   H       0.979604
    13   H       0.979604
    14   H       0.981952
    15   H       0.981952

 Total charge composition:

   CEN ATOM         s          p       ELECTRONS ->P.CHARGE
     1   C       3.04671    3.38427      6.43098   -0.43098
     2   C       2.94183    2.80953      5.75136    0.24864
     3   O       3.65370    4.91157      8.56527   -0.56527
     4   H       0.65508                 0.65508    0.34492
     5   H       0.85931                 0.85931    0.14069
     6   H       0.85086                 0.85086    0.14914
     7   H       0.85086                 0.85086    0.14914
     8   C       3.05352    3.39068      6.44420   -0.44420
     9   C       3.05352    3.39068      6.44420   -0.44420
    10   H       0.85110                 0.85110    0.14890
    11   H       0.85110                 0.85110    0.14890
    12   H       0.85719                 0.85719    0.14281
    13   H       0.85719                 0.85719    0.14281
    14   H       0.86566                 0.86566    0.13434
    15   H       0.86566                 0.86566    0.13434

 Total charge composition, AO contributions:

   CEN ATOM SHL      SPHERICAL COMPONENTS
     1   C  1s       1.99136
     1   C  2s       1.05535
     1   C  2p       1.04014    1.16596    1.17817

     2   C  1s       1.99297
     2   C  2s       0.94886
     2   C  2p       1.00762    0.79076    1.01115

     3   O  1s       1.99720
     3   O  2s       1.65650
     3   O  2p       1.47287    1.48719    1.95151

     4   H  1s       0.65508

     5   H  1s       0.85931

     6   H  1s       0.85086

     7   H  1s       0.85086

     8   C  1s       1.99146
     8   C  2s       1.06206
     8   C  2p       1.14765    1.14710    1.09593

     9   C  1s       1.99146
     9   C  2s       1.06206
     9   C  2p       1.14765    1.14710    1.09593

    10   H  1s       0.85110

    11   H  1s       0.85110

    12   H  1s       0.85719

    13   H  1s       0.85719

    14   H  1s       0.86566

    15   H  1s       0.86566

 Summary of localized orbital composition:   [THRPRINT= 0.020]

   ORB  GRP  ORB.ENERGY      CENTERS/CHARGES
     1   1   -18.613848      O  3   2.000
     2   1    -9.870508      C  2   2.000
     3   1    -9.778832      C  9   2.000
     4   1    -9.778832      C  8   2.000
     5   1    -9.773151      C  1   2.000
     6   1    -0.701960      O  3   1.348   H  4   0.642
     7   1    -0.660503      O  3   1.282   C  2   0.699
     8   1    -0.524270      C  9   1.007   C  2   0.977
     9   1    -0.524270      C  8   1.007   C  2   0.977
    10   1    -0.523941      C  1   0.990   C  2   0.984   (other: 0.025)
    11   1    -0.519118      O  3   1.980
    12   1    -0.459236      C  8   1.138   H 12   0.847
    13   1    -0.459236      C  9   1.138   H 13   0.847
    14   1    -0.457558      C  8   1.129   H 14   0.858
    15   1    -0.457558      C  9   1.129   H 15   0.858
    16   1    -0.455272      C  1   1.133   H  5   0.852
    17   1    -0.453340      C  9   1.146   H 11   0.842
    18   1    -0.453340      C  8   1.146   H 10   0.842
    19   1    -0.449044      C  1   1.146   H  6   0.842
    20   1    -0.449044      C  1   1.146   H  7   0.842
    21   1    -0.258390      O  3   1.951   (other: 0.049)

 Localized orbitals saved to record      2100.2  (orbital set 2)


 **********************************************************************************************************************************
 DATASETS  * FILE   NREC   LENGTH (MB)   RECORD NAMES
              1      20    23759.30       500      610      700      900      950      970     1000      129      960     1100   
                                          VAR    BASINP    GEOM    SYMINP    ZMAT    AOBASIS   BASIS     P2S    ABASIS      S 
                                         1400     1410     1200     1210     1080     1600     1650     1300     1700     1800   
                                           T        V       H0       H01     AOSYM     SMH    MOLCAS    ERIS     OPER     GRID   

              2       5        9.01       700     1000      520     1800     2100   
                                         GEOM     BASIS   MCVARS    GRID      RKS  

 PROGRAMS   *        TOTAL      IBBA        KS       INT
 CPU TIMES  *       971.64      0.25    522.10    449.14
 REAL TIME  *     26850.72 SEC
 DISK USED  *        89.43 GB      
 **********************************************************************************************************************************
 Molecular orbitals read from record     2100.2  Type=RKS/LOCAL(IBO)  
 Occupation numbers read from record     2100.2  Type=RKS/LOCAL(IBO)  
 Orbital energies read from record       2100.2  Type=RKS/LOCAL(IBO)  
 Redundancy group numbers read from rec  2100.2  Type=RKS/LOCAL(IBO)  

 IBBA/aug-cc-pVTZ energy=      0.000000000000

        KS-SCF  
   -233.77329328
 **********************************************************************************************************************************
 Molpro calculation terminated
