
 Primary working directories    : /tmp/sb13343
 Secondary working directories  : /tmp/sb13343
 Wavefunction directory         : /panfs/panasas01/chem/sb13343/wfu/
 Main file repository           : /tmp/sb13343/

 SHA1      : b4a5b34a9e711420743f49e6833241d17c61fb3c
 NAME      : 2099.9.b4a5b34
 ARCHNAME  : linux/x86_64_openmp
 FC        : /cm/shared/languages/GCC-6.1/bin/gfortran
 BLASLIB   : -lblas
 id        : simonbennie

 Nodes     nprocs
 node32-029    1

 Using customized tuning parameters: mindgm=1; mindgv=20; mindgc=4; mindgr=1; noblas=0; minvec=7
 default implementation of scratch files=df  

 memory,500,m
 geomtyp=xyz
 nosym
 noorient
 geometry={
 C          0.00000        0.00000        0.00000
 C          0.00000        0.00000        1.53307
 O          1.40344        0.00000        1.86307
 C          1.76314        0.00000        3.22887
 H         -1.02289        0.00000       -0.39176
 H          0.51995       -0.88625       -0.37815
 H          0.51995        0.88625       -0.37815
 H          2.85677        0.00000        3.25413
 H          1.40708       -0.89217        3.76475
 H          1.40708        0.89217        3.76475
 C         -0.69252       -1.26694        2.06222
 C         -0.69252        1.26694        2.06222
 H         -0.15366       -2.16088        1.72982
 H         -0.15366        2.16088        1.72982
 H         -1.72011       -1.32515        1.68649
 H         -1.72011        1.32515        1.68649
 H         -0.74365       -1.28188        3.15638
 H         -0.74365        1.28188        3.15638
 }
 basis={ default,svp }
 {ks,LYP88,direct;wf,50,1,0}
 {ibba,bonds=1}

 Variables initialized (895), CPU time= 0.01 sec
 Commands  initialized (725), CPU time= 0.01 sec, 591 directives.
 Default parameters read. Elapsed time= 0.08 sec

 Checking input...
 Passed
1


                                         ***  PROGRAM SYSTEM MOLPRO  ***
                                       Copyright, TTI GmbH Stuttgart, 2015
                                    Version 2099.9 linked May 26 2017 16:03:21


 **********************************************************************************************************************************
 LABEL *                                                                                 
  64 bit serial version                                                                  DATE: 09-Jun-17          TIME: 01:56:13  
 **********************************************************************************************************************************

 SHA1:             b4a5b34a9e711420743f49e6833241d17c61fb3c
 **********************************************************************************************************************************
 SETTING GEOMTYP        =    XYZ

 Variable memory set to  500000000 words,  buffer space 

 ZSYMEL=NOSYM

 SETTING BASIS          =    SVP


 Recomputing integrals since basis changed


 Using spherical harmonics

 Library entry C      S def2-SVP             selected for orbital group  1
 Library entry C      P def2-SVP             selected for orbital group  1
 Library entry C      D def2-SVP             selected for orbital group  1
 Library entry O      S def2-SVP             selected for orbital group  2
 Library entry O      P def2-SVP             selected for orbital group  2
 Library entry O      D def2-SVP             selected for orbital group  2
 Library entry H      S def2-SVP             selected for orbital group  4
 Library entry H      P def2-SVP             selected for orbital group  4


 PROGRAM * SEWARD (Integral evaluation for generally contracted gaussian basis sets)     Author: Roland Lindh, 1990

 Geometry written to block  1 of record 700


 Point group  C1  



 ATOMIC COORDINATES

 NR  ATOM    CHARGE       X              Y              Z

   1  C       6.00    0.000000000    0.000000000    0.000000000
   2  C       6.00    0.000000000    0.000000000    2.897082430
   3  O       8.00    2.652117232    0.000000000    3.520692051
   4  C       6.00    3.331851719    0.000000000    6.101679992
   5  H       1.00   -1.932981956    0.000000000   -0.740319107
   6  H       1.00    0.982563098   -1.674769778   -0.714599934
   7  H       1.00    0.982563098    1.674769778   -0.714599934
   8  H       1.00    5.398512901    0.000000000    6.149414474
   9  H       1.00    2.658995835   -1.685956957    7.114346427
  10  H       1.00    2.658995835    1.685956957    7.114346427
  11  C       6.00   -1.308673136   -2.394169616    3.897031009
  12  C       6.00   -1.308673136    2.394169616    3.897031009
  13  H       1.00   -0.290375316   -4.083471388    3.268886045
  14  H       1.00   -0.290375316    4.083471388    3.268886045
  15  H       1.00   -3.250536804   -2.504170574    3.187004212
  16  H       1.00   -3.250536804    2.504170574    3.187004212
  17  H       1.00   -1.405294833   -2.422402125    5.964693745
  18  H       1.00   -1.405294833    2.422402125    5.964693745

 Bond lengths in Bohr (Angstrom)

 1-2  2.897082430  1-5  2.069901355  1-6  2.069042560  1-7  2.069042560  2-3  2.724447609
     ( 1.533070000)     ( 1.095344626)     ( 1.094890171)     ( 1.094890171)     ( 1.441715587)

  2-11  2.905954351   2-12  2.905954351   3- 4  2.668995640   4- 8  2.067212379   4- 9  2.078624355
       ( 1.537764818)       ( 1.537764818)       ( 1.412371669)       ( 1.093921681)       ( 1.099960639)

  4-10  2.078624355  11-13  2.070081404  11-15  2.070524757  11-17  2.070111596  12-14  2.070081404
       ( 1.099960639)       ( 1.095439904)       ( 1.095674516)       ( 1.095455880)       ( 1.095439904)

 12-16  2.070524757  12-18  2.070111596
       ( 1.095674516)       ( 1.095455880)

 Bond angles

  1- 2- 3  103.23196371   1- 2-11  110.12706952   1- 2-12  110.12706952   2- 1- 5  110.95650426

  2- 1- 6  110.20481748   2- 1- 7  110.20481748   2- 3- 4  117.98647004   2-11-13  110.26679927

  2-11-15  110.37287188   2-11-17  112.08316935   2-12-14  110.26679927   2-12-16  110.37287188

  2-12-18  112.08316935   3- 2-11  111.07703285   3- 2-12  111.07703285   3- 4- 8  106.07765410

  3- 4- 9  112.87219182   3- 4-10  112.87219182   5- 1- 6  108.65976572   5- 1- 7  108.65976572

  6- 1- 7  108.08288210   8- 4- 9  108.20190897   8- 4-10  108.20190897   9- 4-10  108.40564999

 11- 2-12  110.95103964  13-11-15  108.29648994  13-11-17  108.35544687  14-12-16  108.29648994

 14-12-18  108.35544687  15-11-17  107.33851825  16-12-18  107.33851825

 NUCLEAR CHARGE:                   50
 NUMBER OF PRIMITIVE AOS:         234
 NUMBER OF SYMMETRY AOS:          228
 NUMBER OF CONTRACTIONS:          144   ( 144A   )
 NUMBER OF CORE ORBITALS:           6   (   6A   )
 NUMBER OF VALENCE ORBITALS:       36   (  36A   )


 NUCLEAR REPULSION ENERGY  270.15500869


 Eigenvalues of metric

         1 0.176E-02 0.508E-02 0.513E-02 0.102E-01 0.124E-01 0.215E-01 0.221E-01 0.252E-01


 Contracted 2-electron integrals neglected if value below      1.0D-11
 AO integral compression algorithm  1   Integral accuracy      1.0D-11

     186.384 MB (compressed) written to integral file ( 41.3%)


 NUMBER OF SORTED TWO-ELECTRON INTEGRALS:   54502020.     BUFFER LENGTH:  32768
 NUMBER OF SEGMENTS:   4  SEGMENT LENGTH:   15999503      RECORD LENGTH: 524288

 Memory used in sort:      16.56 MW

 SORT1 READ    56333432. AND WROTE    45703433. INTEGRALS IN    132 RECORDS. CPU TIME:     0.82 SEC, REAL TIME:     1.67 SEC
 SORT2 READ    45703433. AND WROTE    54502020. INTEGRALS IN    711 RECORDS. CPU TIME:     1.29 SEC, REAL TIME:     2.62 SEC

 FILE SIZES:   FILE 1:   217.4 MBYTE,  FILE 4:   553.7 MBYTE,   TOTAL:    771.1 MBYTE

 OPERATOR DM      FOR CENTER  0  COORDINATES:    0.000000    0.000000    0.000000


 **********************************************************************************************************************************
 DATASETS  * FILE   NREC   LENGTH (MB)   RECORD NAMES
              1      19      194.45       500      610      700      900      950      970     1000      129      960     1100   
                                          VAR    BASINP    GEOM    SYMINP    ZMAT    AOBASIS   BASIS     P2S    ABASIS      S 
                                         1400     1410     1200     1210     1080     1600     1650     1300     1700   
                                           T        V       H0       H01     AOSYM     SMH    MOLCAS    ERIS     OPER   

 PROGRAMS   *        TOTAL       INT
 CPU TIMES  *         7.98      7.83
 REAL TIME  *        15.95 SEC
 DISK USED  *       771.70 MB      
 **********************************************************************************************************************************

 Density functional group LYP88=LYP
 Functional: LYP(Automatically generated (new) LYP)                            Gradient terms: 1
 Use grid at  1800.2

 Functional: LYP                       Factor:  1.0000

 Generated new metagrid on record  1800.2 with target accuracy 1.0D-06 and 66012 points in CPU time    2.1
 Computed new grid on record 1800.1 in CPU time    2.3
  118710 words reserved for DFT integration

 PROGRAM * RKS-SCF (Restricted closed shell Kohn-Sham)     Authors: W. Meyer, H.-J. Werner, P.J. Knowles, 1993

 NUMBER OF ELECTRONS:      25+   25-    SPACE SYMMETRY=1    SPIN SYMMETRY: Singlet 
 CONVERGENCE THRESHOLDS:    1.00E-05 (Density)    1.00E-06 (Energy)
 MAX. NUMBER OF ITERATIONS:       60
 INTERPOLATION TYPE:            DIIS
 INTERPOLATION STEPS:              2 (START)      1 (STEP)
 LEVEL SHIFTS:                  0.00 (CLOSED)  0.00 (OPEN) 



 Use fine grid record 1800.2 for energy threshold  1.0D-06
 Orbital guess generated from atomic densities. Full valence occupancy:   25

 Molecular orbital dump at record        2100.2

 Initial occupancy:  25

 ITERATION    DDIFF          GRAD             ENERGY        2-EL.EN.            DIPOLE MOMENTS         DIIS   ORB.
    1      0.000D+00      0.000D+00      -232.91252568    723.954228    8.01934   -0.00000    1.08303    0    start
    2      0.000D+00      0.253D-01      -219.92659419    891.369844  -20.00809    0.00000   -3.15398    1    diag
    3      0.246D+00      0.703D-01      -233.64430611    807.948219   -2.54956   -0.00000    1.23310    2    diag
    4      0.595D-01      0.260D-01      -234.77392837    781.994662   -2.83610    0.00000   -0.12658    3    diag
    5      0.209D-01      0.125D-01      -235.07703852    782.122417   -0.96415    0.00000    0.31406    4    diag
    6      0.149D-01      0.802D-02      -235.20906740    769.027740   -0.16913   -0.00000    0.23758    5    diag
    7      0.154D-01      0.356D-02      -235.23423685    771.183943    0.12057   -0.00000    0.15114    6    diag
    8      0.639D-02      0.124D-02      -235.23811556    768.818576   -0.05081   -0.00000    0.07507    7    diag
    9      0.258D-02      0.419D-03      -235.23862237    769.467394    0.02810   -0.00000    0.10745    8    diag
   10      0.756D-03      0.149D-03      -235.23867974    769.393125    0.04072    0.00000    0.11747    9    orth
   11      0.169D-03      0.237D-04      -235.23868157    769.412721    0.03005    0.00000    0.11239    9    diag
   12      0.619D-04      0.590D-05      -235.23868168    769.407959    0.03086    0.00000    0.11365    9    diag
   13      0.131D-04      0.253D-05      -235.23868170    769.407375    0.03116    0.00000    0.11336    9    diag
   14      0.377D-05      0.686D-06      -235.23868170    769.406634    0.03101    0.00000    0.11332    0    orth

 Final occupancy:  25

 !RKS STATE 1.1 Energy               -235.238681696471
 Nuclear energy                       270.15500869
 One-electron energy                 -888.49681019
 Two-electron energy                  384.70331708
 Density functional                    -1.60019728     LYP=-1.60019728
 Virial quotient                       -0.92646474
 !RKS STATE 1.1 Dipole moment           0.03101175     0.00000000     0.11332381
 Dipole moment /Debye                   0.07881884     0.00000000     0.28802153

 Orbital energies:

         1.1          2.1          3.1          4.1          5.1          6.1          7.1          8.1          9.1         10.1
    -16.608063    -8.244923    -8.240053    -8.211315    -8.210896    -8.205760    -0.596523    -0.409343    -0.317314    -0.307815

        11.1         12.1         13.1         14.1         15.1         16.1         17.1         18.1         19.1         20.1
     -0.280563    -0.187472    -0.156782    -0.140690    -0.137564    -0.110452    -0.090137    -0.070631    -0.048044    -0.040648

        21.1         22.1         23.1         24.1         25.1         26.1         27.1
     -0.027572    -0.021041    -0.020780     0.042801     0.083322     0.182272     0.218958

 HOMO     25.1     0.083322 =       2.2673eV
 LUMO     26.1     0.182272 =       4.9599eV
 LUMO-HOMO         0.098951 =       2.6926eV


 **********************************************************************************************************************************
 DATASETS  * FILE   NREC   LENGTH (MB)   RECORD NAMES
              1      20      196.57       500      610      700      900      950      970     1000      129      960     1100   
                                          VAR    BASINP    GEOM    SYMINP    ZMAT    AOBASIS   BASIS     P2S    ABASIS      S 
                                         1400     1410     1200     1210     1080     1600     1650     1300     1700     1800   
                                           T        V       H0       H01     AOSYM     SMH    MOLCAS    ERIS     OPER     GRID   

              2       5        3.48       700     1000      520     1800     2100   
                                         GEOM     BASIS   MCVARS    GRID      RKS  

 PROGRAMS   *        TOTAL        KS       INT
 CPU TIMES  *        38.36     30.37      7.83
 REAL TIME  *        47.02 SEC
 DISK USED  *       771.70 MB      
 **********************************************************************************************************************************


 PROGRAM * Intrinsic Basis Bonding Analysis (IBBA)          Author: G. Knizia

 Molecular orbitals read from record     2100.2  Type=RKS/CANONICAL (state 1.1)
 Fock matrix read from record            2100.2  Type=RKS/TOTAL (state 1.1)
 Orbital energies read from record       2100.2  Type=RKS/CANONICAL (state 1.1)
 Density matrix read from record         2100.2  Type=RKS/CHARGE (state 1.1)

 Number of core orbitals:           6 (   6 )
 Number of closed-shell orbitals:  19 (  19 )

 Basis set MINAO-AUTO-PP generated.      Number of basis functions:   42 

 Polarized AO type:                A = (O Ot + (1-O)(1-Ot)) P12
 Orthogonalization method:         Symmetric (Loewdin)
 Localization functional:          L = sum[A,i] <i|n_A|i>^4 -> max

 Localization group 1:  25 orbitals, occupancy  2.000
 Iterative localization: IB/PM,    8 iter; Final gradient 0.99E-09

 Bond order analysis:       [THRPRINT= 0.020]

   CEN ATOM   CEN ATOM     WIBERG.BO      RENORM.BO
     1   C  -   2   C       0.986097       0.995049
     1   C  -   5   H       0.953921       0.961463
     1   C  -   6   H       0.946972       0.948110
     1   C  -   7   H       0.946972       0.948110
     1   C  -   3   O       0.038920       0.022524

     2   C  -   1   C       0.986097       0.995049
     2   C  -  12   C       0.977819       0.967840
     2   C  -  11   C       0.977819       0.967840
     2   C  -   3   O       0.960312       0.926879

     3   O  -   4   C       1.088378       1.045938
     3   O  -   2   C       0.960312       0.926879
     3   O  -   9   H       0.061822       0.034199
     3   O  -  10   H       0.061822       0.034199
     3   O  -  11   C       0.041480       0.022394
     3   O  -  12   C       0.041480       0.022394
     3   O  -   1   C       0.038920       0.022524
     3   O  -   5   H       0.023017       0.016769
     3   O  -  16   H       0.022193       0.017724
     3   O  -  15   H       0.022193       0.017724

     4   C  -   3   O       1.088378       1.045938
     4   C  -   8   H       0.957453       0.963135
     4   C  -  10   H       0.917713       0.870779
     4   C  -   9   H       0.917713       0.870779

     5   H  -   1   C       0.953921       0.961463
     5   H  -   3   O       0.023017       0.016769

     6   H  -   1   C       0.946972       0.948110
     6   H  -  12   C       0.023795       0.024298

     7   H  -   1   C       0.946972       0.948110
     7   H  -  11   C       0.023795       0.024298

     8   H  -   4   C       0.957453       0.963135

     9   H  -   4   C       0.917713       0.870779
     9   H  -   3   O       0.061822       0.034199

    10   H  -   4   C       0.917713       0.870779
    10   H  -   3   O       0.061822       0.034199

    11   C  -   2   C       0.977819       0.967840
    11   C  -  15   H       0.951603       0.969035
    11   C  -  13   H       0.947776       0.950871
    11   C  -  17   H       0.946190       0.953758
    11   C  -   3   O       0.041480       0.022394
    11   C  -   7   H       0.023795       0.024298
    11   C  -  14   H       0.022638       0.023115

    12   C  -   2   C       0.977819       0.967840
    12   C  -  16   H       0.951603       0.969035
    12   C  -  14   H       0.947776       0.950871
    12   C  -  18   H       0.946190       0.953758
    12   C  -   3   O       0.041480       0.022394
    12   C  -   6   H       0.023795       0.024298
    12   C  -  13   H       0.022638       0.023115

    13   H  -  11   C       0.947776       0.950871
    13   H  -  12   C       0.022638       0.023115

    14   H  -  12   C       0.947776       0.950871
    14   H  -  11   C       0.022638       0.023115

    15   H  -  11   C       0.951603       0.969035
    15   H  -   3   O       0.022193       0.017724

    16   H  -  12   C       0.951603       0.969035
    16   H  -   3   O       0.022193       0.017724

    17   H  -  11   C       0.946190       0.953758

    18   H  -  12   C       0.946190       0.953758


 Valency analysis:

   CEN ATOM   TOT.VALENCE
     1   C       3.966207
     2   C       3.949831
     3   O       2.408949
     4   C       3.930802
     5   H       0.998182
     6   H       0.998231
     7   H       0.998231
     8   H       0.997541
     9   H       0.999930
    10   H       0.999930
    11   C       3.959453
    12   C       3.959453
    13   H       0.998199
    14   H       0.998199
    15   H       0.997121
    16   H       0.997121
    17   H       0.997746
    18   H       0.997746

 Total charge composition:

   CEN ATOM         s          p       ELECTRONS ->P.CHARGE
     1   C       2.91300    3.25407      6.16707   -0.16707
     2   C       2.84080    2.92324      5.76405    0.23595
     3   O       3.48535    4.63519      8.12054   -0.12054
     4   C       2.88867    3.14989      6.03857   -0.03857
     5   H       0.95736                 0.95736    0.04264
     6   H       0.95794                 0.95794    0.04206
     7   H       0.95794                 0.95794    0.04206
     8   H       0.95041                 0.95041    0.04959
     9   H       0.99163                 0.99163    0.00837
    10   H       0.99163                 0.99163    0.00837
    11   C       2.90302    3.29198      6.19500   -0.19500
    12   C       2.90302    3.29198      6.19500   -0.19500
    13   H       0.95756                 0.95756    0.04244
    14   H       0.95756                 0.95756    0.04244
    15   H       0.94634                 0.94634    0.05366
    16   H       0.94634                 0.94634    0.05366
    17   H       0.95252                 0.95252    0.04748
    18   H       0.95252                 0.95252    0.04748

 Total charge composition, AO contributions:

   CEN ATOM SHL      SPHERICAL COMPONENTS
     1   C  1s       1.99780
     1   C  2s       0.91520
     1   C  2p       1.10596    1.11324    1.03487

     2   C  1s       1.99837
     2   C  2s       0.84243
     2   C  2p       0.86546    1.02744    1.03035

     3   O  1s       1.99903
     3   O  2s       1.48631
     3   O  2p       1.39189    1.82519    1.41810

     4   C  1s       1.99800
     4   C  2s       0.89067
     4   C  2p       1.11369    1.13265    0.90355

     5   H  1s       0.95736

     6   H  1s       0.95794

     7   H  1s       0.95794

     8   H  1s       0.95041

     9   H  1s       0.99163

    10   H  1s       0.99163

    11   C  1s       1.99783
    11   C  2s       0.90519
    11   C  2p       1.10561    1.07567    1.11070

    12   C  1s       1.99783
    12   C  2s       0.90519
    12   C  2p       1.10561    1.07567    1.11070

    13   H  1s       0.95756

    14   H  1s       0.95756

    15   H  1s       0.94634

    16   H  1s       0.94634

    17   H  1s       0.95252

    18   H  1s       0.95252

 Summary of localized orbital composition:   [THRPRINT= 0.020]

   ORB  GRP  ORB.ENERGY      CENTERS/CHARGES
     1   1   -16.523176      O  3   2.000
     2   1    -8.172663      C  2   2.000
     3   1    -8.169543      C  4   2.000
     4   1    -8.131807      C 11   2.000
     5   1    -8.131807      C 12   2.000
     6   1    -8.125699      C  1   2.000
     7   1    -0.398731      O  3   1.170   C  4   0.820
     8   1    -0.371146      O  3   1.198   C  2   0.766   (other: 0.036)
     9   1    -0.223976      C 11   1.021   C  2   0.945   (other: 0.033)
    10   1    -0.223976      C 12   1.021   C  2   0.945   (other: 0.033)
    11   1    -0.221481      C  1   1.002   C  2   0.961   (other: 0.037)
    12   1    -0.156664      C  4   1.041   H  9   0.952
    13   1    -0.156664      C  4   1.041   H 10   0.952
    14   1    -0.155926      C  4   1.049   H  8   0.937
    15   1    -0.149740      C 11   1.044   H 15   0.932   (other: 0.025)
    16   1    -0.149740      C 12   1.044   H 16   0.932   (other: 0.025)
    17   1    -0.148490      C 12   1.044   H 18   0.935   (other: 0.022)
    18   1    -0.148490      C 11   1.044   H 17   0.935   (other: 0.022)
    19   1    -0.147602      C 11   1.040   H 13   0.940
    20   1    -0.147602      C 12   1.040   H 14   0.940
    21   1    -0.144769      C  1   1.037   H  5   0.942   (other: 0.020)
    22   1    -0.142558      C  1   1.041   H  7   0.939
    23   1    -0.142558      C  1   1.041   H  6   0.939
    24   1    -0.102266      O  3   1.914   (other: 0.086)
    25   1     0.028815      O  3   1.825   C  4   0.045   C  2   0.031   H  9   0.026   H 10   0.026   (other: 0.048)

 Localized orbitals saved to record      2100.2  (orbital set 2)


 **********************************************************************************************************************************
 DATASETS  * FILE   NREC   LENGTH (MB)   RECORD NAMES
              1      20      196.57       500      610      700      900      950      970     1000      129      960     1100   
                                          VAR    BASINP    GEOM    SYMINP    ZMAT    AOBASIS   BASIS     P2S    ABASIS      S 
                                         1400     1410     1200     1210     1080     1600     1650     1300     1700     1800   
                                           T        V       H0       H01     AOSYM     SMH    MOLCAS    ERIS     OPER     GRID   

              2       5        3.65       700     1000      520     1800     2100   
                                         GEOM     BASIS   MCVARS    GRID      RKS  

 PROGRAMS   *        TOTAL      IBBA        KS       INT
 CPU TIMES  *        38.42      0.07     30.37      7.83
 REAL TIME  *        47.19 SEC
 DISK USED  *       771.70 MB      
 **********************************************************************************************************************************
 Molecular orbitals read from record     2100.2  Type=RKS/LOCAL(IBO)  
 Occupation numbers read from record     2100.2  Type=RKS/LOCAL(IBO)  
 Orbital energies read from record       2100.2  Type=RKS/LOCAL(IBO)  
 Redundancy group numbers read from rec  2100.2  Type=RKS/LOCAL(IBO)  

 IBBA/SVP energy=      0.000000000000

        KS-SCF  
   -235.23868170
 **********************************************************************************************************************************
 Molpro calculation terminated
