
 Primary working directories    : /local
 Secondary working directories  : /local
 Wavefunction directory         : /local/
 Main file repository           : /local/

 SHA1      : b4a5b34a9e711420743f49e6833241d17c61fb3c
 NAME      : 2099.9.b4a5b34
 ARCHNAME  : linux/x86_64_openmp
 FC        : /cm/shared/languages/GCC-6.1/bin/gfortran
 BLASLIB   : -lblas
 id        : simonbennie

 Nodes     nprocs
 node47-021    1

 Using customized tuning parameters: mindgm=1; mindgv=20; mindgc=4; mindgr=1; noblas=0; minvec=7
 default implementation of scratch files=df  

 memory,500,m
 geomtyp=xyz
 nosym
 noorient
 geometry={
 C         -1.53233        0.02247        0.00000
 C         -0.00192        0.01421        0.00000
 O          0.37239        1.40356        0.00000
 H          1.34248        1.44036        0.00000
 H         -1.92991       -0.99819        0.00000
 H         -1.90797        0.54382       -0.88653
 H         -1.90797        0.54382        0.88653
 C          0.54303       -0.66466       -1.26580
 C          0.54303       -0.66466        1.26580
 H          0.17836       -0.14752       -2.15943
 H          0.17836       -0.14752        2.15943
 H          0.23752       -1.71600       -1.32280
 H          0.23752       -1.71600        1.32280
 H          1.64084       -0.63767       -1.28032
 H          1.64084       -0.63767        1.28032
 }
 basis={ default,avdz }
 {ks,BH-LYP,direct;wf,42,1,0}
 {ibba,bonds=1}

 Variables initialized (895), CPU time= 0.01 sec
 Commands  initialized (725), CPU time= 0.01 sec, 591 directives.
 Default parameters read. Elapsed time= 0.13 sec

 Checking input...
 Passed
1


                                         ***  PROGRAM SYSTEM MOLPRO  ***
                                       Copyright, TTI GmbH Stuttgart, 2015
                                    Version 2099.9 linked May 26 2017 16:03:21


 **********************************************************************************************************************************
 LABEL *                                                                                 
  64 bit serial version                                                                  DATE: 12-Jun-17          TIME: 16:35:57  
 **********************************************************************************************************************************

 SHA1:             b4a5b34a9e711420743f49e6833241d17c61fb3c
 **********************************************************************************************************************************
 SETTING GEOMTYP        =    XYZ

 Variable memory set to  500000000 words,  buffer space 

 ZSYMEL=NOSYM

 SETTING BASIS          =    AVDZ


 Recomputing integrals since basis changed


 Using spherical harmonics

 Library entry C      S aug-cc-pVDZ          selected for orbital group  1
 Library entry C      P aug-cc-pVDZ          selected for orbital group  1
 Library entry C      D aug-cc-pVDZ          selected for orbital group  1
 Library entry O      S aug-cc-pVDZ          selected for orbital group  2
 Library entry O      P aug-cc-pVDZ          selected for orbital group  2
 Library entry O      D aug-cc-pVDZ          selected for orbital group  2
 Library entry H      S aug-cc-pVDZ          selected for orbital group  3
 Library entry H      P aug-cc-pVDZ          selected for orbital group  3


 PROGRAM * SEWARD (Integral evaluation for generally contracted gaussian basis sets)     Author: Roland Lindh, 1990

 Geometry written to block  1 of record 700


 Point group  C1  



 ATOMIC COORDINATES

 NR  ATOM    CHARGE       X              Y              Z

   1  C       6.00   -2.895684032    0.042462146    0.000000000
   2  C       6.00   -0.003628274    0.026853008    0.000000000
   3  O       8.00    0.703715112    2.652343999    0.000000000
   4  H       1.00    2.536919528    2.721885921    0.000000000
   5  H       1.00   -3.647001345   -1.886305720    0.000000000
   6  H       1.00   -3.605540754    1.027670861   -1.675298901
   7  H       1.00   -3.605540754    1.027670861    1.675298901
   8  C       6.00    1.026177977   -1.256025366   -2.392015328
   9  C       6.00    1.026177977   -1.256025366    2.392015328
  10  H       1.00    0.337051552   -0.278772398   -4.080731285
  11  H       1.00    0.337051552   -0.278772398    4.080731285
  12  H       1.00    0.448847749   -3.242770030   -2.499729718
  13  H       1.00    0.448847749   -3.242770030    2.499729718
  14  H       1.00    3.100738214   -1.205021658   -2.419454152
  15  H       1.00    3.100738214   -1.205021658    2.419454152

 Bond lengths in Bohr (Angstrom)

 1-2  2.892097881  1-5  2.069933136  1-6  2.069096224  1-7  2.069096224  2-3  2.719106031
     ( 1.530432290)     ( 1.095361444)     ( 1.094918569)     ( 1.094918569)     ( 1.438888946)

  2- 8  2.903104402   2- 9  2.903104402   3- 4  1.834522965   8-10  2.069222119   8-12  2.071730422
       ( 1.536256691)       ( 1.536256691)       ( 0.970787746)       ( 1.094985190)       ( 1.096312526)

  8-14  2.075368508   9-11  2.069222119   9-13  2.071730422   9-15  2.075368508
       ( 1.098237719)       ( 1.094985190)       ( 1.096312526)       ( 1.098237719)

 Bond angles

  1-2-3  104.76902697   1-2-8  110.92255387   1-2-9  110.92255387   2-1-5  110.97328220

  2- 1- 6  110.22090701   2- 1- 7  110.22090701   2- 3- 4  107.25071562   2- 8-10  110.21836376

  2- 8-12  111.57747468   2- 8-14  110.77023896   2- 9-11  110.21836376   2- 9-13  111.57747468

  2- 9-15  110.77023896   3- 2- 8  109.53648747   3- 2- 9  109.53648747   5- 1- 6  108.61190457

  5- 1- 7  108.61190457   6- 1- 7  108.12870271   8- 2- 9  110.96453384  10- 8-12  108.52192632

 10- 8-14  108.08997829  11- 9-13  108.52192632  11- 9-15  108.08997829  12- 8-14  107.54424578

 13- 9-15  107.54424578

 NUCLEAR CHARGE:                   42
 NUMBER OF PRIMITIVE AOS:         295
 NUMBER OF SYMMETRY AOS:          285
 NUMBER OF CONTRACTIONS:          205   ( 205A   )
 NUMBER OF CORE ORBITALS:           5   (   5A   )
 NUMBER OF VALENCE ORBITALS:       30   (  30A   )


 NUCLEAR REPULSION ENERGY  198.77359127


 Eigenvalues of metric

         1 0.151E-04 0.552E-04 0.579E-04 0.110E-03 0.111E-03 0.217E-03 0.237E-03 0.259E-03


 Contracted 2-electron integrals neglected if value below      1.0D-12
 AO integral compression algorithm  1   Integral accuracy      1.0D-12

     1203.503 MB (compressed) written to integral file ( 61.3%)


 NUMBER OF SORTED TWO-ELECTRON INTEGRALS:  222932170.     BUFFER LENGTH:  32768
 NUMBER OF SEGMENTS:  14  SEGMENT LENGTH:   15999503      RECORD LENGTH: 524288

 Memory used in sort:      16.56 MW

 SORT1 READ   245224724. AND WROTE   218324786. INTEGRALS IN    630 RECORDS. CPU TIME:     3.37 SEC, REAL TIME:     6.73 SEC
 SORT2 READ   218324786. AND WROTE   222932170. INTEGRALS IN   4591 RECORDS. CPU TIME:     4.91 SEC, REAL TIME:    30.26 SEC

 FILE SIZES:   FILE 1:  1235.3 MBYTE,  FILE 4:  2642.4 MBYTE,   TOTAL:   3877.7 MBYTE

 OPERATOR DM      FOR CENTER  0  COORDINATES:    0.000000    0.000000    0.000000


 **********************************************************************************************************************************
 DATASETS  * FILE   NREC   LENGTH (MB)   RECORD NAMES
              1      19     1149.90       500      610      700      900      950      970     1000      129      960     1100   
                                          VAR    BASINP    GEOM    SYMINP    ZMAT    AOBASIS   BASIS     P2S    ABASIS      S 
                                         1400     1410     1200     1210     1080     1600     1650     1300     1700   
                                           T        V       H0       H01     AOSYM     SMH    MOLCAS    ERIS     OPER   

 PROGRAMS   *        TOTAL       INT
 CPU TIMES  *        21.10     20.96
 REAL TIME  *        52.98 SEC
 DISK USED  *         3.88 GB      
 **********************************************************************************************************************************

 Density functional group BH-LYP=B88+LYP
 Functional: B88(Automatically generated (new) B88)                            Gradient terms: 1
 Functional: LYP(Automatically generated (new) LYP)                            Gradient terms: 1
 Use grid at  1800.2


 Exact exchange will be calculated, factor:  0.5000

 Functional: B88                       Factor:  0.5000
 Functional: LYP                       Factor:  1.0000

 Generated new metagrid on record  1800.2 with target accuracy 1.0D-06 and 53396 points in CPU time    1.7
 Computed new grid on record 1800.1 in CPU time    1.9
  167289 words reserved for DFT integration

 PROGRAM * RKS-SCF (Restricted closed shell Kohn-Sham)     Authors: W. Meyer, H.-J. Werner, P.J. Knowles, 1993

 NUMBER OF ELECTRONS:      21+   21-    SPACE SYMMETRY=1    SPIN SYMMETRY: Singlet 
 CONVERGENCE THRESHOLDS:    1.00E-05 (Density)    1.00E-06 (Energy)
 MAX. NUMBER OF ITERATIONS:       60
 INTERPOLATION TYPE:            DIIS
 INTERPOLATION STEPS:              2 (START)      1 (STEP)
 LEVEL SHIFTS:                  0.00 (CLOSED)  0.00 (OPEN) 



 Use fine grid record 1800.2 for energy threshold  1.0D-06
 Orbital guess generated from atomic densities. Full valence occupancy:   35

 Molecular orbital dump at record        2100.2

 Initial occupancy:  21

 ITERATION    DDIFF          GRAD             ENERGY        2-EL.EN.            DIPOLE MOMENTS         DIIS   ORB.
    1      0.000D+00      0.000D+00      -233.43808024    598.582331    0.69825   -0.84113    0.00000    0    start
    2      0.000D+00      0.542D-02      -233.47161946    579.939299    0.03968   -0.31326    0.00000    1    diag
    3      0.155D-01      0.499D-02      -233.55747411    589.317956    0.35548   -0.60738    0.00000    2    diag
    4      0.738D-02      0.601D-03      -233.55841394    588.983408    0.34246   -0.53615    0.00000    3    diag
    5      0.104D-02      0.248D-03      -233.55862125    588.958465    0.34427   -0.57031    0.00000    4    diag
    6      0.392D-03      0.422D-04      -233.55862725    589.018618    0.34435   -0.56527    0.00000    5    diag
    7      0.720D-04      0.146D-04      -233.55862801    589.005705    0.34421   -0.56484    0.00000    6    diag
    8      0.294D-04      0.154D-05      -233.55862802    589.007313    0.34428   -0.56522    0.00000    7    diag
    9      0.396D-05      0.276D-06      -233.55862802    589.007070    0.34426   -0.56511    0.00000    0    orth

 Final occupancy:  21

 !RKS STATE 1.1 Energy               -233.558628016896
 Nuclear energy                       198.77359127
 One-electron energy                 -709.18734778
 Two-electron energy                  294.50353488
 SCF exchange energy                  -32.53608436     Factor= 0.5000
 Density functional                   -17.64840638     B88=-32.55295253 LYP= -1.37193012
 Virial quotient                       -1.00659741
 !RKS STATE 1.1 Dipole moment           0.34425689    -0.56511032     0.00000000
 Dipole moment /Debye                   0.87495642    -1.43627308     0.00000000

 Orbital energies:

         1.1          2.1          3.1          4.1          5.1          6.1          7.1          8.1          9.1         10.1
    -19.692787   -10.652054   -10.584342   -10.584323   -10.578521    -1.156446    -0.901152    -0.795003    -0.793615    -0.654278

        11.1         12.1         13.1         14.1         15.1         16.1         17.1         18.1         19.1         20.1
     -0.565860    -0.524929    -0.521849    -0.482570    -0.465619    -0.444814    -0.431187    -0.422356    -0.414217    -0.383419

        21.1         22.1         23.1
     -0.343384     0.003870     0.023876

 HOMO     21.1    -0.343384 =      -9.3440eV
 LUMO     22.1     0.003870 =       0.1053eV
 LUMO-HOMO         0.347254 =       9.4493eV


 **********************************************************************************************************************************
 DATASETS  * FILE   NREC   LENGTH (MB)   RECORD NAMES
              1      20     1151.61       500      610      700      900      950      970     1000      129      960     1100   
                                          VAR    BASINP    GEOM    SYMINP    ZMAT    AOBASIS   BASIS     P2S    ABASIS      S 
                                         1400     1410     1200     1210     1080     1600     1650     1300     1700     1800   
                                           T        V       H0       H01     AOSYM     SMH    MOLCAS    ERIS     OPER     GRID   

              2       5        3.87       700     1000      520     1800     2100   
                                         GEOM     BASIS   MCVARS    GRID      RKS  

 PROGRAMS   *        TOTAL        KS       INT
 CPU TIMES  *        82.68     61.58     20.96
 REAL TIME  *       119.02 SEC
 DISK USED  *         3.88 GB      
 **********************************************************************************************************************************


 PROGRAM * Intrinsic Basis Bonding Analysis (IBBA)          Author: G. Knizia

 Molecular orbitals read from record     2100.2  Type=RKS/CANONICAL (state 1.1)
 Fock matrix read from record            2100.2  Type=RKS/TOTAL (state 1.1)
 Orbital energies read from record       2100.2  Type=RKS/CANONICAL (state 1.1)
 Density matrix read from record         2100.2  Type=RKS/CHARGE (state 1.1)

 Number of core orbitals:           5 (   5 )
 Number of closed-shell orbitals:  16 (  16 )

 Basis set MINAO-AUTO-PP generated.      Number of basis functions:   35 

 Polarized AO type:                A = (O Ot + (1-O)(1-Ot)) P12
 Orthogonalization method:         Symmetric (Loewdin)
 Localization functional:          L = sum[A,i] <i|n_A|i>^4 -> max

 Localization group 1:  21 orbitals, occupancy  2.000
 Iterative localization: IB/PM,    7 iter; Final gradient 0.16E-08

 Bond order analysis:       [THRPRINT= 0.020]

   CEN ATOM   CEN ATOM     WIBERG.BO      RENORM.BO
     1   C  -   2   C       0.996676       0.994387
     1   C  -   5   H       0.966668       0.988334
     1   C  -   6   H       0.961910       0.983587
     1   C  -   7   H       0.961910       0.983587

     2   C  -   1   C       0.996676       0.994387
     2   C  -   9   C       0.995685       0.978805
     2   C  -   8   C       0.995685       0.978805
     2   C  -   3   O       0.926353       0.954709

     3   O  -   2   C       0.926353       0.954709
     3   O  -   4   H       0.861422       0.979087
     3   O  -   8   C       0.024336       0.012443
     3   O  -   9   C       0.024336       0.012443

     4   H  -   3   O       0.861422       0.979087

     5   H  -   1   C       0.966668       0.988334

     6   H  -   1   C       0.961910       0.983587

     7   H  -   1   C       0.961910       0.983587

     8   C  -   2   C       0.995685       0.978805
     8   C  -  14   H       0.966107       0.984166
     8   C  -  12   H       0.963067       0.984190
     8   C  -  10   H       0.962304       0.983457
     8   C  -   3   O       0.024336       0.012443

     9   C  -   2   C       0.995685       0.978805
     9   C  -  15   H       0.966107       0.984166
     9   C  -  13   H       0.963067       0.984190
     9   C  -  11   H       0.962304       0.983457
     9   C  -   3   O       0.024336       0.012443

    10   H  -   8   C       0.962304       0.983457

    11   H  -   9   C       0.962304       0.983457

    12   H  -   8   C       0.963067       0.984190

    13   H  -   9   C       0.963067       0.984190

    14   H  -   8   C       0.966107       0.984166

    15   H  -   9   C       0.966107       0.984166


 Valency analysis:

   CEN ATOM   TOT.VALENCE
     1   C       3.940926
     2   C       3.923496
     3   O       1.894884
     4   H       0.878952
     5   H       0.983433
     6   H       0.980550
     7   H       0.980550
     8   C       3.943451
     9   C       3.943451
    10   H       0.980520
    11   H       0.980520
    12   H       0.982449
    13   H       0.982449
    14   H       0.984669
    15   H       0.984669

 Total charge composition:

   CEN ATOM         s          p       ELECTRONS ->P.CHARGE
     1   C       3.04190    3.35866      6.40056   -0.40056
     2   C       2.94025    2.78679      5.72704    0.27296
     3   O       3.64775    4.94555      8.59330   -0.59330
     4   H       0.65208                 0.65208    0.34792
     5   H       0.87129                 0.87129    0.12871
     6   H       0.86054                 0.86054    0.13946
     7   H       0.86054                 0.86054    0.13946
     8   C       3.04768    3.36552      6.41320   -0.41320
     9   C       3.04768    3.36552      6.41320   -0.41320
    10   H       0.86043                 0.86043    0.13957
    11   H       0.86043                 0.86043    0.13957
    12   H       0.86752                 0.86752    0.13248
    13   H       0.86752                 0.86752    0.13248
    14   H       0.87618                 0.87618    0.12382
    15   H       0.87618                 0.87618    0.12382

 Total charge composition, AO contributions:

   CEN ATOM SHL      SPHERICAL COMPONENTS
     1   C  1s       1.99075
     1   C  2s       1.05115
     1   C  2p       1.03560    1.15513    1.16793

     2   C  1s       1.99241
     2   C  2s       0.94784
     2   C  2p       1.00473    0.77515    1.00691

     3   O  1s       1.99703
     3   O  2s       1.65072
     3   O  2p       1.48012    1.50323    1.96220

     4   H  1s       0.65208

     5   H  1s       0.87129

     6   H  1s       0.86054

     7   H  1s       0.86054

     8   C  1s       1.99085
     8   C  2s       1.05683
     8   C  2p       1.13768    1.13765    1.09018

     9   C  1s       1.99085
     9   C  2s       1.05683
     9   C  2p       1.13768    1.13765    1.09018

    10   H  1s       0.86043

    11   H  1s       0.86043

    12   H  1s       0.86752

    13   H  1s       0.86752

    14   H  1s       0.87618

    15   H  1s       0.87618

 Summary of localized orbital composition:   [THRPRINT= 0.020]

   ORB  GRP  ORB.ENERGY      CENTERS/CHARGES
     1   1   -19.521380      O  3   2.000
     2   1   -10.555960      C  2   2.000
     3   1   -10.464117      C  9   2.000
     4   1   -10.464117      C  8   2.000
     5   1   -10.457470      C  1   2.000
     6   1    -0.862742      O  3   1.349   H  4   0.642
     7   1    -0.817463      O  3   1.295   C  2   0.689
     8   1    -0.683355      O  3   1.984
     9   1    -0.658165      C  8   1.008   C  2   0.978
    10   1    -0.658165      C  9   1.008   C  2   0.978
    11   1    -0.657200      C  1   0.991   C  2   0.988   (other: 0.021)
    12   1    -0.583357      C  8   1.128   H 12   0.859
    13   1    -0.583357      C  9   1.128   H 13   0.859
    14   1    -0.581121      C  8   1.120   H 14   0.870
    15   1    -0.581121      C  9   1.120   H 15   0.870
    16   1    -0.578669      C  1   1.123   H  5   0.865
    17   1    -0.577211      C  8   1.137   H 10   0.853
    18   1    -0.577211      C  9   1.137   H 11   0.853
    19   1    -0.572166      C  1   1.137   H  7   0.853
    20   1    -0.572166      C  1   1.137   H  6   0.853
    21   1    -0.386214      O  3   1.962   (other: 0.038)

 Localized orbitals saved to record      2100.2  (orbital set 2)


 **********************************************************************************************************************************
 DATASETS  * FILE   NREC   LENGTH (MB)   RECORD NAMES
              1      20     1151.61       500      610      700      900      950      970     1000      129      960     1100   
                                          VAR    BASINP    GEOM    SYMINP    ZMAT    AOBASIS   BASIS     P2S    ABASIS      S 
                                         1400     1410     1200     1210     1080     1600     1650     1300     1700     1800   
                                           T        V       H0       H01     AOSYM     SMH    MOLCAS    ERIS     OPER     GRID   

              2       5        4.21       700     1000      520     1800     2100   
                                         GEOM     BASIS   MCVARS    GRID      RKS  

 PROGRAMS   *        TOTAL      IBBA        KS       INT
 CPU TIMES  *        82.74      0.06     61.58     20.96
 REAL TIME  *       119.20 SEC
 DISK USED  *         3.88 GB      
 **********************************************************************************************************************************
 Molecular orbitals read from record     2100.2  Type=RKS/LOCAL(IBO)  
 Occupation numbers read from record     2100.2  Type=RKS/LOCAL(IBO)  
 Orbital energies read from record       2100.2  Type=RKS/LOCAL(IBO)  
 Redundancy group numbers read from rec  2100.2  Type=RKS/LOCAL(IBO)  

 IBBA/aug-cc-pVDZ energy=      0.000000000000

        KS-SCF  
   -233.55862802
 **********************************************************************************************************************************
 Molpro calculation terminated
