
 Primary working directories    : /local
 Secondary working directories  : /local
 Wavefunction directory         : /local/
 Main file repository           : /local/

 SHA1      : b4a5b34a9e711420743f49e6833241d17c61fb3c
 NAME      : 2099.9.b4a5b34
 ARCHNAME  : linux/x86_64_openmp
 FC        : /cm/shared/languages/GCC-6.1/bin/gfortran
 BLASLIB   : -lblas
 id        : simonbennie

 Nodes     nprocs
 node45-006    1

 Using customized tuning parameters: mindgm=1; mindgv=20; mindgc=4; mindgr=1; noblas=0; minvec=7
 default implementation of scratch files=df  

 memory,500,m
 geomtyp=xyz
 nosym
 noorient
 geometry={
 C         -1.53233        0.02247        0.00000
 C         -0.00192        0.01421        0.00000
 O          0.37239        1.40356        0.00000
 H          1.34248        1.44036        0.00000
 H         -1.92991       -0.99819        0.00000
 H         -1.90797        0.54382       -0.88653
 H         -1.90797        0.54382        0.88653
 C          0.54303       -0.66466       -1.26580
 C          0.54303       -0.66466        1.26580
 H          0.17836       -0.14752       -2.15943
 H          0.17836       -0.14752        2.15943
 H          0.23752       -1.71600       -1.32280
 H          0.23752       -1.71600        1.32280
 H          1.64084       -0.63767       -1.28032
 H          1.64084       -0.63767        1.28032
 }
 basis={ default,tzvp }
 {ks,MM06-L,direct;wf,42,1,0}
 {ibba,bonds=1}

 Variables initialized (895), CPU time= 0.00 sec
 Commands  initialized (725), CPU time= 0.02 sec, 591 directives.
 Default parameters read. Elapsed time= 0.08 sec

 Checking input...
 Passed
1


                                         ***  PROGRAM SYSTEM MOLPRO  ***
                                       Copyright, TTI GmbH Stuttgart, 2015
                                    Version 2099.9 linked May 26 2017 16:03:21


 **********************************************************************************************************************************
 LABEL *                                                                                 
  64 bit serial version                                                                  DATE: 12-Jun-17          TIME: 19:34:50  
 **********************************************************************************************************************************

 SHA1:             b4a5b34a9e711420743f49e6833241d17c61fb3c
 **********************************************************************************************************************************
 SETTING GEOMTYP        =    XYZ

 Variable memory set to  500000000 words,  buffer space 

 ZSYMEL=NOSYM

 SETTING BASIS          =    TZVP


 Recomputing integrals since basis changed


 Using spherical harmonics

 Library entry C      S def2-TZVP            selected for orbital group  1
 Library entry C      P def2-TZVP            selected for orbital group  1
 Library entry C      D def2-TZVP            selected for orbital group  1
 Library entry C      F def2-TZVP            selected for orbital group  1
 Library entry O      S def2-TZVP            selected for orbital group  2
 Library entry O      P def2-TZVP            selected for orbital group  2
 Library entry O      D def2-TZVP            selected for orbital group  2
 Library entry O      F def2-TZVP            selected for orbital group  2
 Library entry H      S def2-TZVP            selected for orbital group  3
 Library entry H      P def2-TZVP            selected for orbital group  3


 PROGRAM * SEWARD (Integral evaluation for generally contracted gaussian basis sets)     Author: Roland Lindh, 1990

 Geometry written to block  1 of record 700


 Point group  C1  



 ATOMIC COORDINATES

 NR  ATOM    CHARGE       X              Y              Z

   1  C       6.00   -2.895684032    0.042462146    0.000000000
   2  C       6.00   -0.003628274    0.026853008    0.000000000
   3  O       8.00    0.703715112    2.652343999    0.000000000
   4  H       1.00    2.536919528    2.721885921    0.000000000
   5  H       1.00   -3.647001345   -1.886305720    0.000000000
   6  H       1.00   -3.605540754    1.027670861   -1.675298901
   7  H       1.00   -3.605540754    1.027670861    1.675298901
   8  C       6.00    1.026177977   -1.256025366   -2.392015328
   9  C       6.00    1.026177977   -1.256025366    2.392015328
  10  H       1.00    0.337051552   -0.278772398   -4.080731285
  11  H       1.00    0.337051552   -0.278772398    4.080731285
  12  H       1.00    0.448847749   -3.242770030   -2.499729718
  13  H       1.00    0.448847749   -3.242770030    2.499729718
  14  H       1.00    3.100738214   -1.205021658   -2.419454152
  15  H       1.00    3.100738214   -1.205021658    2.419454152

 Bond lengths in Bohr (Angstrom)

 1-2  2.892097881  1-5  2.069933136  1-6  2.069096224  1-7  2.069096224  2-3  2.719106031
     ( 1.530432290)     ( 1.095361444)     ( 1.094918569)     ( 1.094918569)     ( 1.438888946)

  2- 8  2.903104402   2- 9  2.903104402   3- 4  1.834522965   8-10  2.069222119   8-12  2.071730422
       ( 1.536256691)       ( 1.536256691)       ( 0.970787746)       ( 1.094985190)       ( 1.096312526)

  8-14  2.075368508   9-11  2.069222119   9-13  2.071730422   9-15  2.075368508
       ( 1.098237719)       ( 1.094985190)       ( 1.096312526)       ( 1.098237719)

 Bond angles

  1-2-3  104.76902697   1-2-8  110.92255387   1-2-9  110.92255387   2-1-5  110.97328220

  2- 1- 6  110.22090701   2- 1- 7  110.22090701   2- 3- 4  107.25071562   2- 8-10  110.21836376

  2- 8-12  111.57747468   2- 8-14  110.77023896   2- 9-11  110.21836376   2- 9-13  111.57747468

  2- 9-15  110.77023896   3- 2- 8  109.53648747   3- 2- 9  109.53648747   5- 1- 6  108.61190457

  5- 1- 7  108.61190457   6- 1- 7  108.12870271   8- 2- 9  110.96453384  10- 8-12  108.52192632

 10- 8-14  108.08997829  11- 9-13  108.52192632  11- 9-15  108.08997829  12- 8-14  107.54424578

 13- 9-15  107.54424578

 NUCLEAR CHARGE:                   42
 NUMBER OF PRIMITIVE AOS:         335
 NUMBER OF SYMMETRY AOS:          310
 NUMBER OF CONTRACTIONS:          215   ( 215A   )
 NUMBER OF CORE ORBITALS:           5   (   5A   )
 NUMBER OF VALENCE ORBITALS:       30   (  30A   )


 NUCLEAR REPULSION ENERGY  198.77359127


 Eigenvalues of metric

         1 0.262E-03 0.510E-03 0.539E-03 0.594E-03 0.697E-03 0.755E-03 0.210E-02 0.239E-02


 Contracted 2-electron integrals neglected if value below      1.0D-11
 AO integral compression algorithm  1   Integral accuracy      1.0D-11

     977.797 MB (compressed) written to integral file ( 41.7%)


 NUMBER OF SORTED TWO-ELECTRON INTEGRALS:  269595810.     BUFFER LENGTH:  32768
 NUMBER OF SEGMENTS:  17  SEGMENT LENGTH:   15999762      RECORD LENGTH: 524288

 Memory used in sort:      16.56 MW

 SORT1 READ   292827432. AND WROTE   238500613. INTEGRALS IN    690 RECORDS. CPU TIME:     3.32 SEC, REAL TIME:     6.71 SEC
 SORT2 READ   238500613. AND WROTE   269595810. INTEGRALS IN   3730 RECORDS. CPU TIME:     5.42 SEC, REAL TIME:    16.60 SEC

 FILE SIZES:   FILE 1:  1009.7 MBYTE,  FILE 4:  2894.1 MBYTE,   TOTAL:   3903.8 MBYTE

 OPERATOR DM      FOR CENTER  0  COORDINATES:    0.000000    0.000000    0.000000


 **********************************************************************************************************************************
 DATASETS  * FILE   NREC   LENGTH (MB)   RECORD NAMES
              1      19      926.27       500      610      700      900      950      970     1000      129      960     1100   
                                          VAR    BASINP    GEOM    SYMINP    ZMAT    AOBASIS   BASIS     P2S    ABASIS      S 
                                         1400     1410     1200     1210     1080     1600     1650     1300     1700   
                                           T        V       H0       H01     AOSYM     SMH    MOLCAS    ERIS     OPER   

 PROGRAMS   *        TOTAL       INT
 CPU TIMES  *        25.26     25.11
 REAL TIME  *        63.30 SEC
 DISK USED  *         3.90 GB      
 **********************************************************************************************************************************

 Density functional group MM06-L=M06LX+M06LC
 Functional: M06LX(Automatically generated (new) M06LX)                        Gradient terms: 2
 Functional: M06LC(Automatically generated (new) M06LC)                        Gradient terms: 2
 Use grid at  1800.2

 Functional: M06LX                     Factor:  1.0000
 Functional: M06LC                     Factor:  1.0000

 Generated new metagrid on record  1800.2 with target accuracy 1.0D-06 and 54596 points in CPU time    1.7
 Computed new grid on record 1800.1 in CPU time    1.9
  339049 words reserved for DFT integration

 PROGRAM * RKS-SCF (Restricted closed shell Kohn-Sham)     Authors: W. Meyer, H.-J. Werner, P.J. Knowles, 1993

 NUMBER OF ELECTRONS:      21+   21-    SPACE SYMMETRY=1    SPIN SYMMETRY: Singlet 
 CONVERGENCE THRESHOLDS:    1.00E-05 (Density)    1.00E-06 (Energy)
 MAX. NUMBER OF ITERATIONS:       60
 INTERPOLATION TYPE:            DIIS
 INTERPOLATION STEPS:              2 (START)      1 (STEP)
 LEVEL SHIFTS:                  0.00 (CLOSED)  0.00 (OPEN) 



 Use fine grid record 1800.2 for energy threshold  1.0D-06
 Orbital guess generated from atomic densities. Full valence occupancy:   21

 Molecular orbital dump at record        2100.2

 Initial occupancy:  21

 ITERATION    DDIFF          GRAD             ENERGY        2-EL.EN.            DIPOLE MOMENTS         DIIS   ORB.
    1      0.000D+00      0.000D+00      -233.48644108    638.338983    0.68286   -0.78899    0.00000    0    start
    2      0.000D+00      0.768D-02      -233.22496360    598.415831   -0.29247    0.18677    0.00000    1    diag
    3      0.134D-01      0.113D-01      -233.72342811    623.202008    0.40521   -0.60378    0.00000    2    diag
    4      0.979D-02      0.115D-02      -233.72738676    622.052282    0.34484   -0.42390    0.00000    3    diag
    5      0.822D-03      0.471D-03      -233.72804292    622.064354    0.34470   -0.50327    0.00000    4    diag
    6      0.498D-03      0.114D-03      -233.72805758    622.187134    0.34916   -0.47831    0.00000    5    diag
    7      0.111D-03      0.101D-03      -233.72809015    622.144319    0.34947   -0.48666    0.00000    6    diag
    8      0.432D-04      0.105D-04      -233.72809054    622.156294    0.34802   -0.49045    0.00000    7    diag
    9      0.912D-05      0.317D-05      -233.72809054    622.157309    0.34907   -0.48801    0.00000    0    orth

 Final occupancy:  21

 !RKS STATE 1.1 Energy               -233.728090543534
 Nuclear energy                       198.77359127
 One-electron energy                 -709.50598775
 Two-electron energy                  311.07865447
 Density functional                   -34.07434853     M06LX=-32.55809154 M06LC= -1.51625699
 Virial quotient                       -1.00491388
 !RKS STATE 1.1 Dipole moment           0.34906971    -0.48800660     0.00000000
 Dipole moment /Debye                   0.88718860    -1.24030782     0.00000000

 Orbital energies:

         1.1          2.1          3.1          4.1          5.1          6.1          7.1          8.1          9.1         10.1
    -18.956155   -10.108612   -10.040544   -10.040542   -10.035630    -0.986086    -0.751289    -0.655505    -0.654377    -0.530837

        11.1         12.1         13.1         14.1         15.1         16.1         17.1         18.1         19.1         20.1
     -0.453000    -0.415008    -0.412117    -0.377066    -0.363559    -0.347915    -0.335092    -0.321785    -0.316086    -0.287987

        21.1         22.1         23.1
     -0.233969     0.029247     0.072078

 HOMO     21.1    -0.233969 =      -6.3666eV
 LUMO     22.1     0.029247 =       0.7959eV
 LUMO-HOMO         0.263217 =       7.1625eV


 **********************************************************************************************************************************
 DATASETS  * FILE   NREC   LENGTH (MB)   RECORD NAMES
              1      20      928.02       500      610      700      900      950      970     1000      129      960     1100   
                                          VAR    BASINP    GEOM    SYMINP    ZMAT    AOBASIS   BASIS     P2S    ABASIS      S 
                                         1400     1410     1200     1210     1080     1600     1650     1300     1700     1800   
                                           T        V       H0       H01     AOSYM     SMH    MOLCAS    ERIS     OPER     GRID   

              2       5        3.96       700     1000      520     1800     2100   
                                         GEOM     BASIS   MCVARS    GRID      RKS  

 PROGRAMS   *        TOTAL        KS       INT
 CPU TIMES  *       168.49    143.23     25.11
 REAL TIME  *       208.48 SEC
 DISK USED  *         3.90 GB      
 **********************************************************************************************************************************


 PROGRAM * Intrinsic Basis Bonding Analysis (IBBA)          Author: G. Knizia

 Molecular orbitals read from record     2100.2  Type=RKS/CANONICAL (state 1.1)
 Fock matrix read from record            2100.2  Type=RKS/TOTAL (state 1.1)
 Orbital energies read from record       2100.2  Type=RKS/CANONICAL (state 1.1)
 Density matrix read from record         2100.2  Type=RKS/CHARGE (state 1.1)

 Number of core orbitals:           5 (   5 )
 Number of closed-shell orbitals:  16 (  16 )

 Basis set MINAO-AUTO-PP generated.      Number of basis functions:   35 

 Polarized AO type:                A = (O Ot + (1-O)(1-Ot)) P12
 Orthogonalization method:         Symmetric (Loewdin)
 Localization functional:          L = sum[A,i] <i|n_A|i>^4 -> max

 Localization group 1:  21 orbitals, occupancy  2.000
 Iterative localization: IB/PM,    7 iter; Final gradient 0.16E-08

 Bond order analysis:       [THRPRINT= 0.020]

   CEN ATOM   CEN ATOM     WIBERG.BO      RENORM.BO
     1   C  -   2   C       0.996987       0.993781
     1   C  -   5   H       0.964804       0.987458
     1   C  -   6   H       0.960285       0.981646
     1   C  -   7   H       0.960285       0.981646

     2   C  -   1   C       0.996987       0.993781
     2   C  -   9   C       0.995081       0.975416
     2   C  -   8   C       0.995081       0.975416
     2   C  -   3   O       0.929888       0.949625

     3   O  -   2   C       0.929888       0.949625
     3   O  -   4   H       0.860819       0.977587
     3   O  -   8   C       0.028270       0.014341
     3   O  -   9   C       0.028270       0.014341

     4   H  -   3   O       0.860819       0.977587

     5   H  -   1   C       0.964804       0.987458

     6   H  -   1   C       0.960285       0.981646

     7   H  -   1   C       0.960285       0.981646

     8   C  -   2   C       0.995081       0.975416
     8   C  -  14   H       0.964275       0.982285
     8   C  -  10   H       0.960653       0.981430
     8   C  -  12   H       0.960028       0.980421
     8   C  -   3   O       0.028270       0.014341

     9   C  -   2   C       0.995081       0.975416
     9   C  -  15   H       0.964275       0.982285
     9   C  -  11   H       0.960653       0.981430
     9   C  -  13   H       0.960028       0.980421
     9   C  -   3   O       0.028270       0.014341

    10   H  -   8   C       0.960653       0.981430

    11   H  -   9   C       0.960653       0.981430

    12   H  -   8   C       0.960028       0.980421

    13   H  -   9   C       0.960028       0.980421

    14   H  -   8   C       0.964275       0.982285

    15   H  -   9   C       0.964275       0.982285


 Valency analysis:

   CEN ATOM   TOT.VALENCE
     1   C       3.941849
     2   C       3.926415
     3   O       1.915177
     4   H       0.880106
     5   H       0.982587
     6   H       0.980260
     7   H       0.980260
     8   C       3.943863
     9   C       3.943863
    10   H       0.980277
    11   H       0.980277
    12   H       0.982029
    13   H       0.982029
    14   H       0.984155
    15   H       0.984155

 Total charge composition:

   CEN ATOM         s          p       ELECTRONS ->P.CHARGE
     1   C       3.05695    3.35356      6.41051   -0.41051
     2   C       2.94710    2.77457      5.72167    0.27833
     3   O       3.66966    4.91076      8.58043   -0.58043
     4   H       0.65374                 0.65374    0.34626
     5   H       0.86804                 0.86804    0.13196
     6   H       0.85950                 0.85950    0.14050
     7   H       0.85950                 0.85950    0.14050
     8   C       3.06326    3.36041      6.42367   -0.42367
     9   C       3.06326    3.36041      6.42367   -0.42367
    10   H       0.85956                 0.85956    0.14044
    11   H       0.85956                 0.85956    0.14044
    12   H       0.86594                 0.86594    0.13406
    13   H       0.86594                 0.86594    0.13406
    14   H       0.87412                 0.87412    0.12588
    15   H       0.87412                 0.87412    0.12588

 Total charge composition, AO contributions:

   CEN ATOM SHL      SPHERICAL COMPONENTS
     1   C  1s       1.99090
     1   C  2s       1.06605
     1   C  2p       1.03971    1.15147    1.16238

     2   C  1s       1.99258
     2   C  2s       0.95452
     2   C  2p       0.99716    0.77674    1.00067

     3   O  1s       1.99708
     3   O  2s       1.67258
     3   O  2p       1.46751    1.48881    1.95444

     4   H  1s       0.65374

     5   H  1s       0.86804

     6   H  1s       0.85950

     7   H  1s       0.85950

     8   C  1s       1.99101
     8   C  2s       1.07226
     8   C  2p       1.13509    1.13467    1.09065

     9   C  1s       1.99101
     9   C  2s       1.07226
     9   C  2p       1.13509    1.13467    1.09065

    10   H  1s       0.85956

    11   H  1s       0.85956

    12   H  1s       0.86594

    13   H  1s       0.86594

    14   H  1s       0.87412

    15   H  1s       0.87412

 Summary of localized orbital composition:   [THRPRINT= 0.020]

   ORB  GRP  ORB.ENERGY      CENTERS/CHARGES
     1   1   -18.788120      O  3   2.000
     2   1   -10.016867      C  2   2.000
     3   1    -9.924723      C  9   2.000
     4   1    -9.924723      C  8   2.000
     5   1    -9.918983      C  1   2.000
     6   1    -0.719794      O  3   1.347   H  4   0.643
     7   1    -0.674608      O  3   1.293   C  2   0.688
     8   1    -0.562964      O  3   1.982
     9   1    -0.540720      C  1   0.996   C  2   0.980   (other: 0.023)
    10   1    -0.540589      C  8   1.012   C  2   0.973
    11   1    -0.540589      C  9   1.012   C  2   0.973
    12   1    -0.472332      C  9   1.130   H 13   0.856
    13   1    -0.472332      C  8   1.130   H 12   0.856
    14   1    -0.470436      C  8   1.121   H 14   0.867
    15   1    -0.470436      C  9   1.121   H 15   0.867
    16   1    -0.468707      C  1   1.125   H  5   0.861
    17   1    -0.466042      C  9   1.138   H 11   0.852
    18   1    -0.466042      C  8   1.138   H 10   0.852
    19   1    -0.461277      C  1   1.137   H  6   0.852
    20   1    -0.461277      C  1   1.137   H  7   0.852
    21   1    -0.261602      O  3   1.954   (other: 0.046)

 Localized orbitals saved to record      2100.2  (orbital set 2)


 **********************************************************************************************************************************
 DATASETS  * FILE   NREC   LENGTH (MB)   RECORD NAMES
              1      20      928.02       500      610      700      900      950      970     1000      129      960     1100   
                                          VAR    BASINP    GEOM    SYMINP    ZMAT    AOBASIS   BASIS     P2S    ABASIS      S 
                                         1400     1410     1200     1210     1080     1600     1650     1300     1700     1800   
                                           T        V       H0       H01     AOSYM     SMH    MOLCAS    ERIS     OPER     GRID   

              2       5        4.33       700     1000      520     1800     2100   
                                         GEOM     BASIS   MCVARS    GRID      RKS  

 PROGRAMS   *        TOTAL      IBBA        KS       INT
 CPU TIMES  *       168.55      0.06    143.23     25.11
 REAL TIME  *       208.84 SEC
 DISK USED  *         3.90 GB      
 **********************************************************************************************************************************
 Molecular orbitals read from record     2100.2  Type=RKS/LOCAL(IBO)  
 Occupation numbers read from record     2100.2  Type=RKS/LOCAL(IBO)  
 Orbital energies read from record       2100.2  Type=RKS/LOCAL(IBO)  
 Redundancy group numbers read from rec  2100.2  Type=RKS/LOCAL(IBO)  

 IBBA/TZVP energy=      0.000000000000

        KS-SCF  
   -233.72809054
 **********************************************************************************************************************************
 Molpro calculation terminated
