
 Primary working directories    : /tmp/sb13343
 Secondary working directories  : /tmp/sb13343
 Wavefunction directory         : /panfs/panasas01/chem/sb13343/wfu/
 Main file repository           : /tmp/sb13343/

 SHA1      : b4a5b34a9e711420743f49e6833241d17c61fb3c
 NAME      : 2099.9.b4a5b34
 ARCHNAME  : linux/x86_64_openmp
 FC        : /cm/shared/languages/GCC-6.1/bin/gfortran
 BLASLIB   : -lblas
 id        : simonbennie

 Nodes     nprocs
 node32-030    1

 Using customized tuning parameters: mindgm=1; mindgv=20; mindgc=4; mindgr=1; noblas=0; minvec=7
 default implementation of scratch files=df  

 memory,500,m
 geomtyp=xyz
 nosym
 noorient
 geometry={
 H         -1.13405        1.76167        0.00000
 C         -1.32915        0.67205        0.00000
 C         -0.06360       -0.12883        0.00000
 C          0.67426       -0.31636        1.28970
 C          0.67426       -0.31636       -1.28970
 H         -1.94006        0.46750        0.88859
 H         -1.94006        0.46750       -0.88859
 H          1.28359        0.56876        1.55544
 H         -0.01165       -0.48291        2.13019
 H          1.36783       -1.16569        1.24157
 H          1.28359        0.56876       -1.55544
 H         -0.01165       -0.48291       -2.13019
 H          1.36783       -1.16569       -1.24157
 }
 basis={ default,sto-3g }
 {ks,B97R,direct;wf,33,1,1}
 {ibba,bonds=1}

 Variables initialized (895), CPU time= 0.00 sec
 Commands  initialized (725), CPU time= 0.01 sec, 591 directives.
 Default parameters read. Elapsed time= 0.09 sec

 Checking input...
 Passed
1


                                         ***  PROGRAM SYSTEM MOLPRO  ***
                                       Copyright, TTI GmbH Stuttgart, 2015
                                    Version 2099.9 linked May 26 2017 16:03:21


 **********************************************************************************************************************************
 LABEL *                                                                                 
  64 bit serial version                                                                  DATE: 08-Jun-17          TIME: 20:21:45  
 **********************************************************************************************************************************

 SHA1:             b4a5b34a9e711420743f49e6833241d17c61fb3c
 **********************************************************************************************************************************
 SETTING GEOMTYP        =    XYZ

 Variable memory set to  500000000 words,  buffer space 

 ZSYMEL=NOSYM

 SETTING BASIS          =    STO-3G


 Recomputing integrals since basis changed


 Using spherical harmonics

 Library entry H      S STO-3G               selected for orbital group  1
 Library entry C      S STO-3G               selected for orbital group  2
 Library entry C      P STO-3G               selected for orbital group  2


 PROGRAM * SEWARD (Integral evaluation for generally contracted gaussian basis sets)     Author: Roland Lindh, 1990

 Geometry written to block  1 of record 700


 Point group  C1  



 ATOMIC COORDINATES

 NR  ATOM    CHARGE       X              Y              Z

   1  H       1.00   -2.143043912    3.329073822    0.000000000
   2  C       6.00   -2.511729478    1.269990442    0.000000000
   3  C       6.00   -0.120186582   -0.243453417    0.000000000
   4  C       6.00    1.274166737   -0.597833757    2.437179783
   5  C       6.00    1.274166737   -0.597833757   -2.437179783
   6  H       1.00   -3.666182065    0.883446963    1.679191737
   7  H       1.00   -3.666182065    0.883446963   -1.679191737
   8  H       1.00    2.425633556    1.074800631    2.939355603
   9  H       1.00   -0.022015309   -0.912567643    4.025475693
  10  H       1.00    2.584824085   -2.202834846    2.346227264
  11  H       1.00    2.425633556    1.074800631   -2.939355603
  12  H       1.00   -0.022015309   -0.912567643   -4.025475693
  13  H       1.00    2.584824085   -2.202834846   -2.346227264

 Bond lengths in Bohr (Angstrom)

 1-2  2.091830159  2-3  2.830192527  2-6  2.074092940  2-7  2.074092940  3-4  2.830132841
     ( 1.106948849)     ( 1.497673388)     ( 1.097562717)     ( 1.097562717)     ( 1.497641803)

  3- 5  2.830132841   4- 8  2.091832255   4- 9  2.074085151   4-10  2.074156104   5-11  2.091832255
       ( 1.497641803)       ( 1.106949959)       ( 1.097558596)       ( 1.097596142)       ( 1.106949959)

  5-12  2.074085151   5-13  2.074156104
       ( 1.097558596)       ( 1.097596142)

 Bond angles

  1-2-3  112.17549786   1-2-6  106.35284965   1-2-7  106.35284965   2-3-4  118.89987932

  2-3-5  118.89987932   3-2-6  111.75744418   3-2-7  111.75744418   3-4-8  112.19808176

  3- 4- 9  111.75014522   3- 4-10  111.74379558   3- 5-11  112.19808176   3- 5-12  111.75014522

  3- 5-13  111.74379558   4- 3- 5  118.89276928   6- 2- 7  108.11431090   8- 4- 9  106.34995457

  8- 4-10  106.34572146   9- 4-10  108.12296896  11- 5-12  106.34995457  11- 5-13  106.34572146

 12- 5-13  108.12296896

 NUCLEAR CHARGE:                   33
 NUMBER OF PRIMITIVE AOS:          87
 NUMBER OF SYMMETRY AOS:           87
 NUMBER OF CONTRACTIONS:           29   (  29A   )
 NUMBER OF CORE ORBITALS:           4   (   4A   )
 NUMBER OF VALENCE ORBITALS:       25   (  25A   )


 NUCLEAR REPULSION ENERGY  124.92676597


 Eigenvalues of metric

         1 0.210E+00 0.225E+00 0.225E+00 0.315E+00 0.353E+00 0.353E+00 0.362E+00 0.372E+00


 Contracted 2-electron integrals neglected if value below      1.0D-11
 AO integral compression algorithm  1   Integral accuracy      1.0D-11

     0.786 MB (compressed) written to integral file (100.0%)


 NUMBER OF SORTED TWO-ELECTRON INTEGRALS:      94830.     BUFFER LENGTH:  32768
 NUMBER OF SEGMENTS:   1  SEGMENT LENGTH:      94830      RECORD LENGTH: 524288

 Memory used in sort:       0.65 MW

 SORT1 READ      108770. AND WROTE       91348. INTEGRALS IN      1 RECORDS. CPU TIME:     0.01 SEC, REAL TIME:     0.00 SEC
 SORT2 READ       91348. AND WROTE       94830. INTEGRALS IN      3 RECORDS. CPU TIME:     0.01 SEC, REAL TIME:     0.02 SEC

 FILE SIZES:   FILE 1:    31.0 MBYTE,  FILE 4:     4.2 MBYTE,   TOTAL:     35.2 MBYTE

 OPERATOR DM      FOR CENTER  0  COORDINATES:    0.000000    0.000000    0.000000


 **********************************************************************************************************************************
 DATASETS  * FILE   NREC   LENGTH (MB)   RECORD NAMES
              1      19       30.62       500      610      700      900      950      970     1000      129      960     1100   
                                          VAR    BASINP    GEOM    SYMINP    ZMAT    AOBASIS   BASIS     P2S    ABASIS      S 
                                         1400     1410     1200     1210     1080     1600     1650     1300     1700   
                                           T        V       H0       H01     AOSYM     SMH    MOLCAS    ERIS     OPER   

 PROGRAMS   *        TOTAL       INT
 CPU TIMES  *         0.67      0.53
 REAL TIME  *         0.95 SEC
 DISK USED  *        35.68 MB      
 **********************************************************************************************************************************

 Density functional group B97R=B97RDF
 Functional: B97RDF(Automatically generated (new) B97RDF)                      Gradient terms: 1
 Use grid at  1800.2


 Exact exchange will be calculated, factor:  0.2100

 Functional: B97RDF                    Factor:  1.0000

 Generated new metagrid on record  1800.2 with target accuracy 1.0D-06 and 45406 points in CPU time    1.3
 Computed new grid on record 1800.1 in CPU time    1.5
   27459 words reserved for DFT integration

 PROGRAM * RKS-SCF (Restricted open shell Kohn-Sham)     Authors: W. Meyer, H.-J. Werner, P.J. Knowles, 1993

 NUMBER OF ELECTRONS:      17+   16-    SPACE SYMMETRY=1    SPIN SYMMETRY: Doublet 
 CONVERGENCE THRESHOLDS:    1.00E-05 (Density)    1.00E-06 (Energy)
 MAX. NUMBER OF ITERATIONS:       60
 INTERPOLATION TYPE:            DIIS
 INTERPOLATION STEPS:              2 (START)      1 (STEP)
 LEVEL SHIFTS:                 -0.60 (CLOSED) -0.30 (OPEN) 



 Use fine grid record 1800.2 for energy threshold  1.0D-06
 Orbital guess generated from atomic densities. Full valence occupancy:   17

 Molecular orbital dump at record        2100.2

 Initial alpha occupancy:  17
 Initial beta  occupancy:  16
 Wave function symmetry:    1

 ITERATION    DDIFF          GRAD             ENERGY        2-EL.EN.            DIPOLE MOMENTS         DIIS   ORB.
    1      0.000D+00      0.000D+00      -155.63487838    401.809269    0.19553    0.39544   -0.00000    0    start
    2      0.000D+00      0.262D-01      -155.86289798    390.630930    0.01551    0.03152   -0.00000    1    diag,B
    3      0.505D-01      0.230D-02      -155.86521556    391.138733    0.03742    0.07581   -0.00000    2    diag,B
    4      0.405D-02      0.604D-03      -155.86566082    391.127067    0.03861    0.07821   -0.00000    3    diag,B
    5      0.151D-02      0.187D-03      -155.86571493    391.121058    0.03827    0.07751   -0.00000    4    diag,B
    6      0.615D-03      0.347D-04      -155.86571661    391.121373    0.03788    0.07672   -0.00000    5    diag,B
    7      0.860D-04      0.113D-04      -155.86571676    391.121592    0.03781    0.07658   -0.00000    6    fixocc
    8      0.334D-04      0.170D-05      -155.86571676    391.121606    0.03783    0.07664   -0.00000    7    diag,B
    9      0.587D-05      0.247D-06      -155.86571676    391.121610    0.03783    0.07663   -0.00000    0    orth

 Final alpha occupancy:  17
 Final beta  occupancy:  16

 !RKS STATE 1.1 Energy               -155.865716759328
 Nuclear energy                       124.92676597
 One-electron energy                 -456.34265312
 Two-electron energy                  195.56080495
 Density functional                   -20.01063456     B97RDF=-20.01063456
 Virial quotient                       -1.01562183
 !RKS STATE 1.1 Dipole moment           0.03782901     0.07662796    -0.00000000
 Dipole moment /Debye                   0.09614546     0.19475608    -0.00000000

 Orbital energies:

         1.1          2.1          3.1          4.1          5.1          6.1          7.1          8.1          9.1         10.1
    -10.008875   -10.008865   -10.008840    -9.980715    -0.751118    -0.652847    -0.652836    -0.487648    -0.398138    -0.398119

        11.1         12.1         13.1         14.1         15.1         16.1         17.1         18.1         19.1
     -0.392939    -0.346085    -0.346043    -0.330250    -0.293898    -0.293895    -0.107428     0.393020     0.393024

 HOMO     17.1    -0.107428 =      -2.9233eV
 LUMO     18.1     0.393020 =      10.6946eV
 LUMO-HOMO         0.500447 =      13.6179eV


 **********************************************************************************************************************************
 DATASETS  * FILE   NREC   LENGTH (MB)   RECORD NAMES
              1      20       32.07       500      610      700      900      950      970     1000      129      960     1100   
                                          VAR    BASINP    GEOM    SYMINP    ZMAT    AOBASIS   BASIS     P2S    ABASIS      S 
                                         1400     1410     1200     1210     1080     1600     1650     1300     1700     1800   
                                           T        V       H0       H01     AOSYM     SMH    MOLCAS    ERIS     OPER     GRID   

              2       5        2.99       700     1000      520     1800     2100   
                                         GEOM     BASIS   MCVARS    GRID      RKS  

 PROGRAMS   *        TOTAL        KS       INT
 CPU TIMES  *         4.86      4.19      0.53
 REAL TIME  *         5.52 SEC
 DISK USED  *        35.68 MB      
 **********************************************************************************************************************************


 PROGRAM * Intrinsic Basis Bonding Analysis (IBBA)          Author: G. Knizia

 Molecular orbitals read from record     2100.2  Type=RKS/CANONICAL (state 1.1)
 Fock matrix read from record            2100.2  Type=RKS/TOTAL (state 1.1)
 Orbital energies read from record       2100.2  Type=RKS/CANONICAL (state 1.1)
 Density matrix read from record         2100.2  Type=RKS/CHARGE (state 1.1)

 Number of core orbitals:           4 (   4 )
 Number of closed-shell orbitals:  12 (  12 )
 Number of active  orbitals:        1 (   1 )

 Basis set MINAO-AUTO-PP generated.      Number of basis functions:   29 

 Polarized AO type:                A = (O Ot + (1-O)(1-Ot)) P12
 Orthogonalization method:         Symmetric (Loewdin)
 Localization functional:          L = sum[A,i] <i|n_A|i>^4 -> max

 Localization group 1:  16 orbitals, occupancy  2.000
 Iterative localization: IB/PM,    7 iter; Final gradient 0.93E-09

 Bond order analysis:       [THRPRINT= 0.020]

   CEN ATOM   CEN ATOM     WIBERG.BO      RENORM.BO
     1   H  -   2   C       0.933182       0.998669
     1   H  -   3   C       0.029691       0.205015

     2   C  -   3   C       1.059760       1.320343
     2   C  -   7   H       0.959277       0.990159
     2   C  -   6   H       0.959277       0.990159
     2   C  -   1   H       0.933182       0.998669

     3   C  -   2   C       1.059760       1.320343
     3   C  -   5   C       1.059743       1.320249
     3   C  -   4   C       1.059743       1.320249
     3   C  -   1   H       0.029691       0.205015
     3   C  -  11   H       0.029676       0.204908
     3   C  -   8   H       0.029676       0.204908

     4   C  -   3   C       1.059743       1.320249
     4   C  -   9   H       0.959298       0.990154
     4   C  -  10   H       0.959247       0.990170
     4   C  -   8   H       0.933199       0.998667

     5   C  -   3   C       1.059743       1.320249
     5   C  -  12   H       0.959298       0.990154
     5   C  -  13   H       0.959247       0.990170
     5   C  -  11   H       0.933199       0.998667

     6   H  -   2   C       0.959277       0.990159

     7   H  -   2   C       0.959277       0.990159

     8   H  -   4   C       0.933199       0.998667
     8   H  -   3   C       0.029676       0.204908

     9   H  -   4   C       0.959298       0.990154

    10   H  -   4   C       0.959247       0.990170

    11   H  -   5   C       0.933199       0.998667
    11   H  -   3   C       0.029676       0.204908

    12   H  -   5   C       0.959298       0.990154

    13   H  -   5   C       0.959247       0.990170


 Valency analysis:

   CEN ATOM   TOT.VALENCE
     1   H       0.973440
     2   C       3.937952
     3   C       3.306909
     4   C       3.937941
     5   C       3.937941
     6   H       0.981123
     7   H       0.981123
     8   H       0.973438
     9   H       0.981126
    10   H       0.981115
    11   H       0.973438
    12   H       0.981126
    13   H       0.981115
 Localization group 2:   1 orbitals, occupancy  1.000
 Iterative localization: IB/PM,    1 iter; Final gradient 0.00E+00

 Bond order analysis:       [THRPRINT= 0.020]

   CEN ATOM   CEN ATOM     WIBERG.BO      RENORM.BO
     1   H  -   3   C       0.060268       0.500000


     3   C  -   1   H       0.060268       0.500000
     3   C  -  11   H       0.060260       0.500000
     3   C  -   8   H       0.060260       0.500000





     8   H  -   3   C       0.060260       0.500000



    11   H  -   3   C       0.060260       0.500000




 Valency analysis:

   CEN ATOM   TOT.VALENCE
     1   H       0.068970
     2   C       0.004893
     3   C       0.265295
     4   C       0.004890
     5   C       0.004890
     6   H       0.014161
     7   H       0.014161
     8   H       0.068962
     9   H       0.014106
    10   H       0.014222
    11   H       0.068962
    12   H       0.014106
    13   H       0.014222

 Total charge composition:

   CEN ATOM         s          p       ELECTRONS ->P.CHARGE
     1   H       0.87279                 0.87279    0.12721
     2   C       2.99345    3.40324      6.39668   -0.39668
     3   C       2.97604    2.99713      5.97318    0.02682
     4   C       2.99344    3.40325      6.39669   -0.39669
     5   C       2.99344    3.40325      6.39669   -0.39669
     6   H       0.86974                 0.86974    0.13026
     7   H       0.86974                 0.86974    0.13026
     8   H       0.87278                 0.87278    0.12722
     9   H       0.86972                 0.86972    0.13028
    10   H       0.86974                 0.86974    0.13026
    11   H       0.87278                 0.87278    0.12722
    12   H       0.86972                 0.86972    0.13028
    13   H       0.86974                 0.86974    0.13026

 Total charge composition, AO contributions:

   CEN ATOM SHL      SPHERICAL COMPONENTS
     1   H  1s       0.87279

     2   C  1s       1.99159
     2   C  2s       1.00186
     2   C  2p       1.10256    1.13449    1.16619

     3   C  1s       1.99307
     3   C  2s       0.98297
     3   C  2p       0.99892    0.99944    0.99878

     4   C  1s       1.99159
     4   C  2s       1.00185
     4   C  2p       1.14308    1.15928    1.10090

     5   C  1s       1.99159
     5   C  2s       1.00185
     5   C  2p       1.14308    1.15928    1.10090

     6   H  1s       0.86974

     7   H  1s       0.86974

     8   H  1s       0.87278

     9   H  1s       0.86972

    10   H  1s       0.86974

    11   H  1s       0.87278

    12   H  1s       0.86972

    13   H  1s       0.86974

 Active orbital charges:

   CEN ATOM         s          p       ELECTRONS ->SPIN.DEN
     1   H       0.03576                 0.03576    0.03576
     2   C       0.00014    0.00232      0.00245    0.00245
     3   C       0.01683    0.82574      0.84257    0.84257
     4   C       0.00014    0.00231      0.00245    0.00245
     5   C       0.00014    0.00231      0.00245    0.00245
     6   H       0.00713                 0.00713    0.00713
     7   H       0.00713                 0.00713    0.00713
     8   H       0.03576                 0.03576    0.03576
     9   H       0.00710                 0.00710    0.00710
    10   H       0.00716                 0.00716    0.00716
    11   H       0.03576                 0.03576    0.03576
    12   H       0.00710                 0.00710    0.00710
    13   H       0.00716                 0.00716    0.00716

 Active orbital charges, AO contributions:

   CEN ATOM SHL      SPHERICAL COMPONENTS
     1   H  1s       0.03576

     2   C  1s       0.00000
     2   C  2s       0.00014
     2   C  2p       0.00000    0.00231    0.00000

     3   C  1s       0.00001
     3   C  2s       0.01681
     3   C  2p       0.16165    0.66409    0.00000

     4   C  1s       0.00000
     4   C  2s       0.00014
     4   C  2p       0.00084    0.00108    0.00039

     5   C  1s       0.00000
     5   C  2s       0.00014
     5   C  2p       0.00084    0.00108    0.00039

     6   H  1s       0.00713

     7   H  1s       0.00713

     8   H  1s       0.03576

     9   H  1s       0.00710

    10   H  1s       0.00716

    11   H  1s       0.03576

    12   H  1s       0.00710

    13   H  1s       0.00716

 Summary of localized orbital composition:   [THRPRINT= 0.020]

   ORB  GRP  ORB.ENERGY      CENTERS/CHARGES
     1   1    -9.895185      C  2   2.000
     2   1    -9.895173      C  5   2.000
     3   1    -9.895173      C  4   2.000
     4   1    -9.883914      C  3   2.000
     5   1    -0.540320      C  4   1.009   C  3   0.978
     6   1    -0.540320      C  5   1.009   C  3   0.978
     7   1    -0.540297      C  2   1.009   C  3   0.978
     8   1    -0.463425      C  4   1.123   H  8   0.833   C  3   0.041
     9   1    -0.463425      C  5   1.123   H 11   0.833   C  3   0.041
    10   1    -0.463421      C  2   1.123   H  1   0.833   C  3   0.041
    11   1    -0.461756      C  2   1.128   H  7   0.857
    12   1    -0.461756      C  2   1.128   H  6   0.857
    13   1    -0.461754      C  5   1.128   H 12   0.857
    14   1    -0.461754      C  4   1.128   H  9   0.857
    15   1    -0.461719      C  4   1.128   H 10   0.857
    16   1    -0.461719      C  5   1.128   H 13   0.857
    17   2    -0.013916      C  3   0.843   H  1   0.036   H 11   0.036   H  8   0.036   (other: 0.050)

 Localized orbitals saved to record      2100.2  (orbital set 2)


 **********************************************************************************************************************************
 DATASETS  * FILE   NREC   LENGTH (MB)   RECORD NAMES
              1      20       32.07       500      610      700      900      950      970     1000      129      960     1100   
                                          VAR    BASINP    GEOM    SYMINP    ZMAT    AOBASIS   BASIS     P2S    ABASIS      S 
                                         1400     1410     1200     1210     1080     1600     1650     1300     1700     1800   
                                           T        V       H0       H01     AOSYM     SMH    MOLCAS    ERIS     OPER     GRID   

              2       5        3.00       700     1000      520     1800     2100   
                                         GEOM     BASIS   MCVARS    GRID      RKS  

 PROGRAMS   *        TOTAL      IBBA        KS       INT
 CPU TIMES  *         4.88      0.02      4.19      0.53
 REAL TIME  *         5.65 SEC
 DISK USED  *        35.68 MB      
 **********************************************************************************************************************************
 Molecular orbitals read from record     2100.2  Type=RKS/LOCAL(IBO)  
 Occupation numbers read from record     2100.2  Type=RKS/LOCAL(IBO)  
 Orbital energies read from record       2100.2  Type=RKS/LOCAL(IBO)  
 Redundancy group numbers read from rec  2100.2  Type=RKS/LOCAL(IBO)  

 IBBA/STO-3G energy=      0.000000000000

        KS-SCF  
   -155.86571676
 **********************************************************************************************************************************
 Molpro calculation terminated
