
 Primary working directories    : /tmp/sb13343
 Secondary working directories  : /tmp/sb13343
 Wavefunction directory         : /panfs/panasas01/chem/sb13343/wfu/
 Main file repository           : /tmp/sb13343/

 SHA1      : b4a5b34a9e711420743f49e6833241d17c61fb3c
 NAME      : 2099.9.b4a5b34
 ARCHNAME  : linux/x86_64_openmp
 FC        : /cm/shared/languages/GCC-6.1/bin/gfortran
 BLASLIB   : -lblas
 id        : simonbennie

 Nodes     nprocs
 node32-007    1

 Using customized tuning parameters: mindgm=1; mindgv=20; mindgc=4; mindgr=1; noblas=0; minvec=7
 default implementation of scratch files=df  

 memory,500,m
 geomtyp=xyz
 nosym
 noorient
 geometry={
 C          0.00000        0.00000        0.00000
 C          0.00000        0.00000        1.53307
 O          1.40344        0.00000        1.86307
 C          1.76314        0.00000        3.22887
 H         -1.02289        0.00000       -0.39176
 H          0.51995       -0.88625       -0.37815
 H          0.51995        0.88625       -0.37815
 H          2.85677        0.00000        3.25413
 H          1.40708       -0.89217        3.76475
 H          1.40708        0.89217        3.76475
 C         -0.69252       -1.26694        2.06222
 C         -0.69252        1.26694        2.06222
 H         -0.15366       -2.16088        1.72982
 H         -0.15366        2.16088        1.72982
 H         -1.72011       -1.32515        1.68649
 H         -1.72011        1.32515        1.68649
 H         -0.74365       -1.28188        3.15638
 H         -0.74365        1.28188        3.15638
 }
 basis={ default,svp }
 {ks,MM05-2X,direct;wf,50,1,0}
 {ibba,bonds=1}

 Variables initialized (895), CPU time= 0.01 sec
 Commands  initialized (725), CPU time= 0.01 sec, 591 directives.
 Default parameters read. Elapsed time= 0.08 sec

 Checking input...
 Passed
1


                                         ***  PROGRAM SYSTEM MOLPRO  ***
                                       Copyright, TTI GmbH Stuttgart, 2015
                                    Version 2099.9 linked May 26 2017 16:03:21


 **********************************************************************************************************************************
 LABEL *                                                                                 
  64 bit serial version                                                                  DATE: 09-Jun-17          TIME: 01:54:05  
 **********************************************************************************************************************************

 SHA1:             b4a5b34a9e711420743f49e6833241d17c61fb3c
 **********************************************************************************************************************************
 SETTING GEOMTYP        =    XYZ

 Variable memory set to  500000000 words,  buffer space 

 ZSYMEL=NOSYM

 SETTING BASIS          =    SVP


 Recomputing integrals since basis changed


 Using spherical harmonics

 Library entry C      S def2-SVP             selected for orbital group  1
 Library entry C      P def2-SVP             selected for orbital group  1
 Library entry C      D def2-SVP             selected for orbital group  1
 Library entry O      S def2-SVP             selected for orbital group  2
 Library entry O      P def2-SVP             selected for orbital group  2
 Library entry O      D def2-SVP             selected for orbital group  2
 Library entry H      S def2-SVP             selected for orbital group  4
 Library entry H      P def2-SVP             selected for orbital group  4


 PROGRAM * SEWARD (Integral evaluation for generally contracted gaussian basis sets)     Author: Roland Lindh, 1990

 Geometry written to block  1 of record 700


 Point group  C1  



 ATOMIC COORDINATES

 NR  ATOM    CHARGE       X              Y              Z

   1  C       6.00    0.000000000    0.000000000    0.000000000
   2  C       6.00    0.000000000    0.000000000    2.897082430
   3  O       8.00    2.652117232    0.000000000    3.520692051
   4  C       6.00    3.331851719    0.000000000    6.101679992
   5  H       1.00   -1.932981956    0.000000000   -0.740319107
   6  H       1.00    0.982563098   -1.674769778   -0.714599934
   7  H       1.00    0.982563098    1.674769778   -0.714599934
   8  H       1.00    5.398512901    0.000000000    6.149414474
   9  H       1.00    2.658995835   -1.685956957    7.114346427
  10  H       1.00    2.658995835    1.685956957    7.114346427
  11  C       6.00   -1.308673136   -2.394169616    3.897031009
  12  C       6.00   -1.308673136    2.394169616    3.897031009
  13  H       1.00   -0.290375316   -4.083471388    3.268886045
  14  H       1.00   -0.290375316    4.083471388    3.268886045
  15  H       1.00   -3.250536804   -2.504170574    3.187004212
  16  H       1.00   -3.250536804    2.504170574    3.187004212
  17  H       1.00   -1.405294833   -2.422402125    5.964693745
  18  H       1.00   -1.405294833    2.422402125    5.964693745

 Bond lengths in Bohr (Angstrom)

 1-2  2.897082430  1-5  2.069901355  1-6  2.069042560  1-7  2.069042560  2-3  2.724447609
     ( 1.533070000)     ( 1.095344626)     ( 1.094890171)     ( 1.094890171)     ( 1.441715587)

  2-11  2.905954351   2-12  2.905954351   3- 4  2.668995640   4- 8  2.067212379   4- 9  2.078624355
       ( 1.537764818)       ( 1.537764818)       ( 1.412371669)       ( 1.093921681)       ( 1.099960639)

  4-10  2.078624355  11-13  2.070081404  11-15  2.070524757  11-17  2.070111596  12-14  2.070081404
       ( 1.099960639)       ( 1.095439904)       ( 1.095674516)       ( 1.095455880)       ( 1.095439904)

 12-16  2.070524757  12-18  2.070111596
       ( 1.095674516)       ( 1.095455880)

 Bond angles

  1- 2- 3  103.23196371   1- 2-11  110.12706952   1- 2-12  110.12706952   2- 1- 5  110.95650426

  2- 1- 6  110.20481748   2- 1- 7  110.20481748   2- 3- 4  117.98647004   2-11-13  110.26679927

  2-11-15  110.37287188   2-11-17  112.08316935   2-12-14  110.26679927   2-12-16  110.37287188

  2-12-18  112.08316935   3- 2-11  111.07703285   3- 2-12  111.07703285   3- 4- 8  106.07765410

  3- 4- 9  112.87219182   3- 4-10  112.87219182   5- 1- 6  108.65976572   5- 1- 7  108.65976572

  6- 1- 7  108.08288210   8- 4- 9  108.20190897   8- 4-10  108.20190897   9- 4-10  108.40564999

 11- 2-12  110.95103964  13-11-15  108.29648994  13-11-17  108.35544687  14-12-16  108.29648994

 14-12-18  108.35544687  15-11-17  107.33851825  16-12-18  107.33851825

 NUCLEAR CHARGE:                   50
 NUMBER OF PRIMITIVE AOS:         234
 NUMBER OF SYMMETRY AOS:          228
 NUMBER OF CONTRACTIONS:          144   ( 144A   )
 NUMBER OF CORE ORBITALS:           6   (   6A   )
 NUMBER OF VALENCE ORBITALS:       36   (  36A   )


 NUCLEAR REPULSION ENERGY  270.15500869


 Eigenvalues of metric

         1 0.176E-02 0.508E-02 0.513E-02 0.102E-01 0.124E-01 0.215E-01 0.221E-01 0.252E-01


 Contracted 2-electron integrals neglected if value below      1.0D-11
 AO integral compression algorithm  1   Integral accuracy      1.0D-11

     186.384 MB (compressed) written to integral file ( 41.3%)


 NUMBER OF SORTED TWO-ELECTRON INTEGRALS:   54502020.     BUFFER LENGTH:  32768
 NUMBER OF SEGMENTS:   4  SEGMENT LENGTH:   15999503      RECORD LENGTH: 524288

 Memory used in sort:      16.56 MW

 SORT1 READ    56333432. AND WROTE    45703433. INTEGRALS IN    132 RECORDS. CPU TIME:     0.86 SEC, REAL TIME:     1.68 SEC
 SORT2 READ    45703433. AND WROTE    54502020. INTEGRALS IN    711 RECORDS. CPU TIME:     1.37 SEC, REAL TIME:     1.75 SEC

 FILE SIZES:   FILE 1:   217.4 MBYTE,  FILE 4:   553.7 MBYTE,   TOTAL:    771.1 MBYTE

 OPERATOR DM      FOR CENTER  0  COORDINATES:    0.000000    0.000000    0.000000


 **********************************************************************************************************************************
 DATASETS  * FILE   NREC   LENGTH (MB)   RECORD NAMES
              1      19      194.45       500      610      700      900      950      970     1000      129      960     1100   
                                          VAR    BASINP    GEOM    SYMINP    ZMAT    AOBASIS   BASIS     P2S    ABASIS      S 
                                         1400     1410     1200     1210     1080     1600     1650     1300     1700   
                                           T        V       H0       H01     AOSYM     SMH    MOLCAS    ERIS     OPER   

 PROGRAMS   *        TOTAL       INT
 CPU TIMES  *         8.40      8.24
 REAL TIME  *        14.07 SEC
 DISK USED  *       771.70 MB      
 **********************************************************************************************************************************

 Density functional group MM05-2X=M052XX+M052XC
 Functional: M052XX(Automatically generated (new) M052XX)                      Gradient terms: 2
 Functional: M052XC(Automatically generated (new) M052XC)                      Gradient terms: 2
 Use grid at  1800.2


 Exact exchange will be calculated, factor:  0.5600

 Functional: M052XX                    Factor:  0.4400
 Functional: M052XC                    Factor:  1.0000

 Generated new metagrid on record  1800.2 with target accuracy 1.0D-06 and 66012 points in CPU time    2.1
 Computed new grid on record 1800.1 in CPU time    2.4
  228438 words reserved for DFT integration

 PROGRAM * RKS-SCF (Restricted closed shell Kohn-Sham)     Authors: W. Meyer, H.-J. Werner, P.J. Knowles, 1993

 NUMBER OF ELECTRONS:      25+   25-    SPACE SYMMETRY=1    SPIN SYMMETRY: Singlet 
 CONVERGENCE THRESHOLDS:    1.00E-05 (Density)    1.00E-06 (Energy)
 MAX. NUMBER OF ITERATIONS:       60
 INTERPOLATION TYPE:            DIIS
 INTERPOLATION STEPS:              2 (START)      1 (STEP)
 LEVEL SHIFTS:                  0.00 (CLOSED)  0.00 (OPEN) 



 Use fine grid record 1800.2 for energy threshold  1.0D-06
 Orbital guess generated from atomic densities. Full valence occupancy:   25

 Molecular orbital dump at record        2100.2

 Initial occupancy:  25

 ITERATION    DDIFF          GRAD             ENERGY        2-EL.EN.            DIPOLE MOMENTS         DIIS   ORB.
    1      0.000D+00      0.000D+00      -272.59007482    768.356910   -0.69424    0.00000    0.60889    0    start
    2      0.000D+00      0.605D-02      -272.63776907    750.114315   -0.18830   -0.00000    0.11335    1    diag
    3      0.977D-02      0.498D-02      -272.70771962    759.027503   -0.39336   -0.00000    0.37867    2    diag
    4      0.474D-02      0.549D-03      -272.70817962    758.559992   -0.35502   -0.00000    0.34457    3    diag
    5      0.596D-03      0.346D-03      -272.70845890    758.639947   -0.38362   -0.00000    0.35988    4    diag
    6      0.303D-03      0.540D-04      -272.70846584    758.665468   -0.37576   -0.00000    0.35821    5    diag
    7      0.598D-04      0.145D-04      -272.70846640    758.656897   -0.37637   -0.00000    0.35819    6    diag
    8      0.144D-04      0.306D-05      -272.70846643    758.659298   -0.37650   -0.00000    0.35837    7    diag
    9      0.405D-05      0.493D-06      -272.70846643    758.658674   -0.37636   -0.00000    0.35829    0    orth

 Final occupancy:  25

 !RKS STATE 1.1 Energy               -272.708466432952
 Nuclear energy                       270.15500869
 One-electron energy                 -903.56811490
 Two-electron energy                  379.32933720
 SCF exchange energy                  -38.35417520     Factor= 0.5600
 Density functional                   -18.62469743     M052XX=-38.26927501 M052XC= -1.78621643
 Virial quotient                       -1.01194147
 !RKS STATE 1.1 Dipole moment          -0.37636472    -0.00000000     0.35828882
 Dipole moment /Debye                  -0.95656105    -0.00000000     0.91061969

 Orbital energies:

         1.1          2.1          3.1          4.1          5.1          6.1          7.1          8.1          9.1         10.1
    -19.657575   -10.630433   -10.613423   -10.565912   -10.565895   -10.559793    -1.123781    -0.892912    -0.786290    -0.780391

        11.1         12.1         13.1         14.1         15.1         16.1         17.1         18.1         19.1         20.1
     -0.755411    -0.626071    -0.557499    -0.537540    -0.537053    -0.502044    -0.483583    -0.465068    -0.448227    -0.437944

        21.1         22.1         23.1         24.1         25.1         26.1         27.1
     -0.430493    -0.405546    -0.405080    -0.360971    -0.319404     0.098076     0.133146

 HOMO     25.1    -0.319404 =      -8.6914eV
 LUMO     26.1     0.098076 =       2.6688eV
 LUMO-HOMO         0.417480 =      11.3602eV


 **********************************************************************************************************************************
 DATASETS  * FILE   NREC   LENGTH (MB)   RECORD NAMES
              1      20      196.57       500      610      700      900      950      970     1000      129      960     1100   
                                          VAR    BASINP    GEOM    SYMINP    ZMAT    AOBASIS   BASIS     P2S    ABASIS      S 
                                         1400     1410     1200     1210     1080     1600     1650     1300     1700     1800   
                                           T        V       H0       H01     AOSYM     SMH    MOLCAS    ERIS     OPER     GRID   

              2       5        3.48       700     1000      520     1800     2100   
                                         GEOM     BASIS   MCVARS    GRID      RKS  

 PROGRAMS   *        TOTAL        KS       INT
 CPU TIMES  *        81.41     73.01      8.24
 REAL TIME  *        88.02 SEC
 DISK USED  *       771.70 MB      
 **********************************************************************************************************************************


 PROGRAM * Intrinsic Basis Bonding Analysis (IBBA)          Author: G. Knizia

 Molecular orbitals read from record     2100.2  Type=RKS/CANONICAL (state 1.1)
 Fock matrix read from record            2100.2  Type=RKS/TOTAL (state 1.1)
 Orbital energies read from record       2100.2  Type=RKS/CANONICAL (state 1.1)
 Density matrix read from record         2100.2  Type=RKS/CHARGE (state 1.1)

 Number of core orbitals:           6 (   6 )
 Number of closed-shell orbitals:  19 (  19 )

 Basis set MINAO-AUTO-PP generated.      Number of basis functions:   42 

 Polarized AO type:                A = (O Ot + (1-O)(1-Ot)) P12
 Orthogonalization method:         Symmetric (Loewdin)
 Localization functional:          L = sum[A,i] <i|n_A|i>^4 -> max

 Localization group 1:  25 orbitals, occupancy  2.000
 Iterative localization: IB/PM,    7 iter; Final gradient 0.12E-08

 Bond order analysis:       [THRPRINT= 0.020]

   CEN ATOM   CEN ATOM     WIBERG.BO      RENORM.BO
     1   C  -   2   C       0.995387       0.994636
     1   C  -   5   H       0.965497       0.986841
     1   C  -   7   H       0.960830       0.983730
     1   C  -   6   H       0.960830       0.983730

     2   C  -   1   C       0.995387       0.994636
     2   C  -  12   C       0.991771       0.973725
     2   C  -  11   C       0.991771       0.973725
     2   C  -   3   O       0.927731       0.941827

     3   O  -   4   C       0.983007       1.012547
     3   O  -   2   C       0.927731       0.941827
     3   O  -   9   H       0.029410       0.017335
     3   O  -  10   H       0.029410       0.017335
     3   O  -  12   C       0.024106       0.012593
     3   O  -  11   C       0.024106       0.012593

     4   C  -   3   O       0.983007       1.012547
     4   C  -   8   H       0.957825       0.979778
     4   C  -   9   H       0.953697       0.945617
     4   C  -  10   H       0.953697       0.945617

     5   H  -   1   C       0.965497       0.986841

     6   H  -   1   C       0.960830       0.983730

     7   H  -   1   C       0.960830       0.983730

     8   H  -   4   C       0.957825       0.979778

     9   H  -   4   C       0.953697       0.945617
     9   H  -   3   O       0.029410       0.017335

    10   H  -   4   C       0.953697       0.945617
    10   H  -   3   O       0.029410       0.017335

    11   C  -   2   C       0.991771       0.973725
    11   C  -  17   H       0.963916       0.983477
    11   C  -  15   H       0.961915       0.988209
    11   C  -  13   H       0.961146       0.983785
    11   C  -   3   O       0.024106       0.012593

    12   C  -   2   C       0.991771       0.973725
    12   C  -  18   H       0.963916       0.983477
    12   C  -  16   H       0.961915       0.988209
    12   C  -  14   H       0.961146       0.983785
    12   C  -   3   O       0.024106       0.012593

    13   H  -  11   C       0.961146       0.983785

    14   H  -  12   C       0.961146       0.983785

    15   H  -  11   C       0.961915       0.988209

    16   H  -  12   C       0.961915       0.988209

    17   H  -  11   C       0.963916       0.983477

    18   H  -  12   C       0.963916       0.983477


 Valency analysis:

   CEN ATOM   TOT.VALENCE
     1   C       3.936943
     2   C       3.933917
     3   O       2.079337
     4   C       3.868978
     5   H       0.984101
     6   H       0.980668
     7   H       0.980668
     8   H       0.977786
     9   H       0.987337
    10   H       0.987337
    11   C       3.937214
    12   C       3.937214
    13   H       0.980883
    14   H       0.980883
    15   H       0.981738
    16   H       0.981738
    17   H       0.983829
    18   H       0.983829

 Total charge composition:

   CEN ATOM         s          p       ELECTRONS ->P.CHARGE
     1   C       3.01532    3.37936      6.39468   -0.39468
     2   C       2.92164    2.83765      5.75929    0.24071
     3   O       3.58417    4.82871      8.41288   -0.41288
     4   C       3.00555    3.17750      6.18304   -0.18304
     5   H       0.87391                 0.87391    0.12609
     6   H       0.86096                 0.86096    0.13904
     7   H       0.86096                 0.86096    0.13904
     8   H       0.85096                 0.85096    0.14904
     9   H       0.88747                 0.88747    0.11253
    10   H       0.88747                 0.88747    0.11253
    11   C       3.01528    3.39947      6.41476   -0.41476
    12   C       3.01528    3.39947      6.41476   -0.41476
    13   H       0.86174                 0.86174    0.13826
    14   H       0.86174                 0.86174    0.13826
    15   H       0.86486                 0.86486    0.13514
    16   H       0.86486                 0.86486    0.13514
    17   H       0.87283                 0.87283    0.12717
    18   H       0.87283                 0.87283    0.12717

 Total charge composition, AO contributions:

   CEN ATOM SHL      SPHERICAL COMPONENTS
     1   C  1s       1.99072
     1   C  2s       1.02460
     1   C  2p       1.16143    1.17595    1.04198

     2   C  1s       1.99243
     2   C  2s       0.92921
     2   C  2p       0.79713    1.01905    1.02147

     3   O  1s       1.99715
     3   O  2s       1.58702
     3   O  2p       1.44598    1.92181    1.46092

     4   C  1s       1.99137
     4   C  2s       1.01418
     4   C  2p       1.16107    1.16749    0.84893

     5   H  1s       0.87391

     6   H  1s       0.86096

     7   H  1s       0.86096

     8   H  1s       0.85096

     9   H  1s       0.88747

    10   H  1s       0.88747

    11   C  1s       1.99077
    11   C  2s       1.02451
    11   C  2p       1.14704    1.09952    1.15291

    12   C  1s       1.99077
    12   C  2s       1.02451
    12   C  2p       1.14704    1.09952    1.15291

    13   H  1s       0.86174

    14   H  1s       0.86174

    15   H  1s       0.86486

    16   H  1s       0.86486

    17   H  1s       0.87283

    18   H  1s       0.87283

 Summary of localized orbital composition:   [THRPRINT= 0.020]

   ORB  GRP  ORB.ENERGY      CENTERS/CHARGES
     1   1   -19.510613      O  3   2.000
     2   1   -10.536277      C  2   2.000
     3   1   -10.500626      C  4   2.000
     4   1   -10.448343      C 11   2.000
     5   1   -10.448343      C 12   2.000
     6   1   -10.441546      C  1   2.000
     7   1    -0.851070      O  3   1.249   C  4   0.744
     8   1    -0.820357      O  3   1.272   C  2   0.706   (other: 0.022)
     9   1    -0.649688      C 11   1.005   C  2   0.980
    10   1    -0.649688      C 12   1.005   C  2   0.980
    11   1    -0.646141      C  2   0.993   C  1   0.986   (other: 0.021)
    12   1    -0.619468      O  3   1.964   (other: 0.036)
    13   1    -0.595867      C  4   1.128   H  9   0.870
    14   1    -0.595867      C  4   1.128   H 10   0.870
    15   1    -0.591808      C  4   1.148   H  8   0.844
    16   1    -0.577979      C 11   1.129   H 15   0.857
    17   1    -0.577979      C 12   1.129   H 16   0.857
    18   1    -0.576733      C 12   1.125   H 18   0.865
    19   1    -0.576733      C 11   1.125   H 17   0.865
    20   1    -0.573529      C  1   1.121   H  5   0.867
    21   1    -0.572869      C 12   1.136   H 14   0.854
    22   1    -0.572869      C 11   1.136   H 13   0.854
    23   1    -0.566765      C  1   1.137   H  7   0.853
    24   1    -0.566765      C  1   1.137   H  6   0.853
    25   1    -0.380418      O  3   1.922   (other: 0.078)

 Localized orbitals saved to record      2100.2  (orbital set 2)


 **********************************************************************************************************************************
 DATASETS  * FILE   NREC   LENGTH (MB)   RECORD NAMES
              1      20      196.57       500      610      700      900      950      970     1000      129      960     1100   
                                          VAR    BASINP    GEOM    SYMINP    ZMAT    AOBASIS   BASIS     P2S    ABASIS      S 
                                         1400     1410     1200     1210     1080     1600     1650     1300     1700     1800   
                                           T        V       H0       H01     AOSYM     SMH    MOLCAS    ERIS     OPER     GRID   

              2       5        3.65       700     1000      520     1800     2100   
                                         GEOM     BASIS   MCVARS    GRID      RKS  

 PROGRAMS   *        TOTAL      IBBA        KS       INT
 CPU TIMES  *        81.47      0.06     73.01      8.24
 REAL TIME  *        88.19 SEC
 DISK USED  *       771.70 MB      
 **********************************************************************************************************************************
 Molecular orbitals read from record     2100.2  Type=RKS/LOCAL(IBO)  
 Occupation numbers read from record     2100.2  Type=RKS/LOCAL(IBO)  
 Orbital energies read from record       2100.2  Type=RKS/LOCAL(IBO)  
 Redundancy group numbers read from rec  2100.2  Type=RKS/LOCAL(IBO)  

 IBBA/SVP energy=      0.000000000000

        KS-SCF  
   -272.70846643
 **********************************************************************************************************************************
 Molpro calculation terminated
