
 Primary working directories    : /tmp/sb13343
 Secondary working directories  : /tmp/sb13343
 Wavefunction directory         : /panfs/panasas01/chem/sb13343/wfu/
 Main file repository           : /tmp/sb13343/

 SHA1      : b4a5b34a9e711420743f49e6833241d17c61fb3c
 NAME      : 2099.9.b4a5b34
 ARCHNAME  : linux/x86_64_openmp
 FC        : /cm/shared/languages/GCC-6.1/bin/gfortran
 BLASLIB   : -lblas
 id        : simonbennie

 Nodes     nprocs
 node32-007    1

 Using customized tuning parameters: mindgm=1; mindgv=20; mindgc=4; mindgr=1; noblas=0; minvec=7
 default implementation of scratch files=df  

 memory,500,m
 geomtyp=xyz
 nosym
 noorient
 geometry={
 C          0.00000        0.00000        0.00000
 C          0.00000        0.00000        1.53307
 O          1.40344        0.00000        1.86307
 C          1.76314        0.00000        3.22887
 H         -1.02289        0.00000       -0.39176
 H          0.51995       -0.88625       -0.37815
 H          0.51995        0.88625       -0.37815
 H          2.85677        0.00000        3.25413
 H          1.40708       -0.89217        3.76475
 H          1.40708        0.89217        3.76475
 C         -0.69252       -1.26694        2.06222
 C         -0.69252        1.26694        2.06222
 H         -0.15366       -2.16088        1.72982
 H         -0.15366        2.16088        1.72982
 H         -1.72011       -1.32515        1.68649
 H         -1.72011        1.32515        1.68649
 H         -0.74365       -1.28188        3.15638
 H         -0.74365        1.28188        3.15638
 }
 basis={ default,sto-3g }
 {ks,MM06-2X,direct;wf,50,1,0}
 {ibba,bonds=1}

 Variables initialized (895), CPU time= 0.00 sec
 Commands  initialized (725), CPU time= 0.02 sec, 591 directives.
 Default parameters read. Elapsed time= 0.08 sec

 Checking input...
 Passed
1


                                         ***  PROGRAM SYSTEM MOLPRO  ***
                                       Copyright, TTI GmbH Stuttgart, 2015
                                    Version 2099.9 linked May 26 2017 16:03:21


 **********************************************************************************************************************************
 LABEL *                                                                                 
  64 bit serial version                                                                  DATE: 09-Jun-17          TIME: 01:37:33  
 **********************************************************************************************************************************

 SHA1:             b4a5b34a9e711420743f49e6833241d17c61fb3c
 **********************************************************************************************************************************
 SETTING GEOMTYP        =    XYZ

 Variable memory set to  500000000 words,  buffer space 

 ZSYMEL=NOSYM

 SETTING BASIS          =    STO-3G


 Recomputing integrals since basis changed


 Using spherical harmonics

 Library entry C      S STO-3G               selected for orbital group  1
 Library entry C      P STO-3G               selected for orbital group  1
 Library entry O      S STO-3G               selected for orbital group  2
 Library entry O      P STO-3G               selected for orbital group  2
 Library entry H      S STO-3G               selected for orbital group  4


 PROGRAM * SEWARD (Integral evaluation for generally contracted gaussian basis sets)     Author: Roland Lindh, 1990

 Geometry written to block  1 of record 700


 Point group  C1  



 ATOMIC COORDINATES

 NR  ATOM    CHARGE       X              Y              Z

   1  C       6.00    0.000000000    0.000000000    0.000000000
   2  C       6.00    0.000000000    0.000000000    2.897082430
   3  O       8.00    2.652117232    0.000000000    3.520692051
   4  C       6.00    3.331851719    0.000000000    6.101679992
   5  H       1.00   -1.932981956    0.000000000   -0.740319107
   6  H       1.00    0.982563098   -1.674769778   -0.714599934
   7  H       1.00    0.982563098    1.674769778   -0.714599934
   8  H       1.00    5.398512901    0.000000000    6.149414474
   9  H       1.00    2.658995835   -1.685956957    7.114346427
  10  H       1.00    2.658995835    1.685956957    7.114346427
  11  C       6.00   -1.308673136   -2.394169616    3.897031009
  12  C       6.00   -1.308673136    2.394169616    3.897031009
  13  H       1.00   -0.290375316   -4.083471388    3.268886045
  14  H       1.00   -0.290375316    4.083471388    3.268886045
  15  H       1.00   -3.250536804   -2.504170574    3.187004212
  16  H       1.00   -3.250536804    2.504170574    3.187004212
  17  H       1.00   -1.405294833   -2.422402125    5.964693745
  18  H       1.00   -1.405294833    2.422402125    5.964693745

 Bond lengths in Bohr (Angstrom)

 1-2  2.897082430  1-5  2.069901355  1-6  2.069042560  1-7  2.069042560  2-3  2.724447609
     ( 1.533070000)     ( 1.095344626)     ( 1.094890171)     ( 1.094890171)     ( 1.441715587)

  2-11  2.905954351   2-12  2.905954351   3- 4  2.668995640   4- 8  2.067212379   4- 9  2.078624355
       ( 1.537764818)       ( 1.537764818)       ( 1.412371669)       ( 1.093921681)       ( 1.099960639)

  4-10  2.078624355  11-13  2.070081404  11-15  2.070524757  11-17  2.070111596  12-14  2.070081404
       ( 1.099960639)       ( 1.095439904)       ( 1.095674516)       ( 1.095455880)       ( 1.095439904)

 12-16  2.070524757  12-18  2.070111596
       ( 1.095674516)       ( 1.095455880)

 Bond angles

  1- 2- 3  103.23196371   1- 2-11  110.12706952   1- 2-12  110.12706952   2- 1- 5  110.95650426

  2- 1- 6  110.20481748   2- 1- 7  110.20481748   2- 3- 4  117.98647004   2-11-13  110.26679927

  2-11-15  110.37287188   2-11-17  112.08316935   2-12-14  110.26679927   2-12-16  110.37287188

  2-12-18  112.08316935   3- 2-11  111.07703285   3- 2-12  111.07703285   3- 4- 8  106.07765410

  3- 4- 9  112.87219182   3- 4-10  112.87219182   5- 1- 6  108.65976572   5- 1- 7  108.65976572

  6- 1- 7  108.08288210   8- 4- 9  108.20190897   8- 4-10  108.20190897   9- 4-10  108.40564999

 11- 2-12  110.95103964  13-11-15  108.29648994  13-11-17  108.35544687  14-12-16  108.29648994

 14-12-18  108.35544687  15-11-17  107.33851825  16-12-18  107.33851825

 NUCLEAR CHARGE:                   50
 NUMBER OF PRIMITIVE AOS:         126
 NUMBER OF SYMMETRY AOS:          126
 NUMBER OF CONTRACTIONS:           42   (  42A   )
 NUMBER OF CORE ORBITALS:           6   (   6A   )
 NUMBER OF VALENCE ORBITALS:       36   (  36A   )


 NUCLEAR REPULSION ENERGY  270.15500869


 Eigenvalues of metric

         1 0.207E+00 0.226E+00 0.228E+00 0.234E+00 0.307E+00 0.355E+00 0.359E+00 0.362E+00


 Contracted 2-electron integrals neglected if value below      1.0D-11
 AO integral compression algorithm  1   Integral accuracy      1.0D-11

     2.884 MB (compressed) written to integral file ( 84.3%)


 NUMBER OF SORTED TWO-ELECTRON INTEGRALS:     408156.     BUFFER LENGTH:  32768
 NUMBER OF SEGMENTS:   1  SEGMENT LENGTH:     408156      RECORD LENGTH: 524288

 Memory used in sort:       0.97 MW

 SORT1 READ      453477. AND WROTE      382834. INTEGRALS IN      2 RECORDS. CPU TIME:     0.01 SEC, REAL TIME:     0.02 SEC
 SORT2 READ      382834. AND WROTE      408156. INTEGRALS IN     11 RECORDS. CPU TIME:     0.03 SEC, REAL TIME:     0.04 SEC

 FILE SIZES:   FILE 1:    33.2 MBYTE,  FILE 4:     8.4 MBYTE,   TOTAL:     41.6 MBYTE

 OPERATOR DM      FOR CENTER  0  COORDINATES:    0.000000    0.000000    0.000000


 **********************************************************************************************************************************
 DATASETS  * FILE   NREC   LENGTH (MB)   RECORD NAMES
              1      19       31.98       500      610      700      900      950      970     1000      129      960     1100   
                                          VAR    BASINP    GEOM    SYMINP    ZMAT    AOBASIS   BASIS     P2S    ABASIS      S 
                                         1400     1410     1200     1210     1080     1600     1650     1300     1700   
                                           T        V       H0       H01     AOSYM     SMH    MOLCAS    ERIS     OPER   

 PROGRAMS   *        TOTAL       INT
 CPU TIMES  *         0.89      0.75
 REAL TIME  *         1.26 SEC
 DISK USED  *        42.19 MB      
 **********************************************************************************************************************************

 Density functional group MM06-2X=M062XX+M062XC
 Functional: M062XX(Automatically generated (new) M062XX)                      Gradient terms: 2
 Functional: M062XC(Automatically generated (new) M062XC)                      Gradient terms: 2
 Use grid at  1800.2


 Exact exchange will be calculated, factor:  0.5400

 Functional: M062XX                    Factor:  0.4600
 Functional: M062XC                    Factor:  1.0000

 Generated new metagrid on record  1800.2 with target accuracy 1.0D-06 and 66012 points in CPU time    2.0
 Computed new grid on record 1800.1 in CPU time    2.3
   70110 words reserved for DFT integration

 PROGRAM * RKS-SCF (Restricted closed shell Kohn-Sham)     Authors: W. Meyer, H.-J. Werner, P.J. Knowles, 1993

 NUMBER OF ELECTRONS:      25+   25-    SPACE SYMMETRY=1    SPIN SYMMETRY: Singlet 
 CONVERGENCE THRESHOLDS:    1.00E-05 (Density)    1.00E-06 (Energy)
 MAX. NUMBER OF ITERATIONS:       60
 INTERPOLATION TYPE:            DIIS
 INTERPOLATION STEPS:              2 (START)      1 (STEP)
 LEVEL SHIFTS:                  0.00 (CLOSED)  0.00 (OPEN) 



 Use fine grid record 1800.2 for energy threshold  1.0D-06
 Orbital guess generated from atomic densities. Full valence occupancy:   25

 Molecular orbital dump at record        2100.2

 Initial occupancy:  25

 ITERATION    DDIFF          GRAD             ENERGY        2-EL.EN.            DIPOLE MOMENTS         DIIS   ORB.
    1      0.000D+00      0.000D+00      -259.77379435    775.056592   -0.77877    0.00000    0.67154    0    start
    2      0.000D+00      0.214D-01      -259.97118628    752.230451    0.00332    0.00000   -0.21205    1    diag
    3      0.560D-01      0.113D-01      -260.04151917    759.623365   -0.28967    0.00000    0.19894    2    diag
    4      0.196D-01      0.729D-03      -260.04177065    759.696637   -0.27839    0.00000    0.17663    3    diag
    5      0.165D-02      0.309D-03      -260.04181780    759.658186   -0.28214    0.00000    0.18147    4    diag
    6      0.464D-03      0.369D-04      -260.04181865    759.658994   -0.28033    0.00000    0.18092    5    diag
    7      0.878D-04      0.133D-04      -260.04181876    759.658840   -0.28100    0.00000    0.18122    6    diag
    8      0.269D-04      0.126D-05      -260.04181876    759.658750   -0.28096    0.00000    0.18117    7    diag
    9      0.472D-05      0.216D-06      -260.04181876    759.658765   -0.28097    0.00000    0.18117    0    orth

 Final occupancy:  25

 !RKS STATE 1.1 Energy               -260.041818764674
 Nuclear energy                       270.15500869
 One-electron energy                 -900.13870967
 Two-electron energy                  379.82938244
 SCF exchange energy                  -38.48294142     Factor= 0.5400
 Density functional                    -9.88750023     M062XX=-17.62058110 M062XC= -1.78203292
 Virial quotient                       -0.98384286
 !RKS STATE 1.1 Dipole moment          -0.28097009     0.00000000     0.18117344
 Dipole moment /Debye                  -0.71410797     0.00000000     0.46046680

 Orbital energies:

         1.1          2.1          3.1          4.1          5.1          6.1          7.1          8.1          9.1         10.1
    -18.742999    -9.948809    -9.936191    -9.900029    -9.899107    -9.898971    -0.957669    -0.745730    -0.642398    -0.639037

        11.1         12.1         13.1         14.1         15.1         16.1         17.1         18.1         19.1         20.1
     -0.606613    -0.468619    -0.406650    -0.383137    -0.381834    -0.359565    -0.334467    -0.315288    -0.305368    -0.289170

        21.1         22.1         23.1         24.1         25.1         26.1         27.1
     -0.282248    -0.251074    -0.240608    -0.131635    -0.073387     0.482591     0.561534

 HOMO     25.1    -0.073387 =      -1.9970eV
 LUMO     26.1     0.482591 =      13.1320eV
 LUMO-HOMO         0.555978 =      15.1289eV


 **********************************************************************************************************************************
 DATASETS  * FILE   NREC   LENGTH (MB)   RECORD NAMES
              1      20       34.09       500      610      700      900      950      970     1000      129      960     1100   
                                          VAR    BASINP    GEOM    SYMINP    ZMAT    AOBASIS   BASIS     P2S    ABASIS      S 
                                         1400     1410     1200     1210     1080     1600     1650     1300     1700     1800   
                                           T        V       H0       H01     AOSYM     SMH    MOLCAS    ERIS     OPER     GRID   

              2       5        3.09       700     1000      520     1800     2100   
                                         GEOM     BASIS   MCVARS    GRID      RKS  

 PROGRAMS   *        TOTAL        KS       INT
 CPU TIMES  *        15.35     14.46      0.75
 REAL TIME  *        15.99 SEC
 DISK USED  *        42.19 MB      
 **********************************************************************************************************************************


 PROGRAM * Intrinsic Basis Bonding Analysis (IBBA)          Author: G. Knizia

 Molecular orbitals read from record     2100.2  Type=RKS/CANONICAL (state 1.1)
 Fock matrix read from record            2100.2  Type=RKS/TOTAL (state 1.1)
 Orbital energies read from record       2100.2  Type=RKS/CANONICAL (state 1.1)
 Density matrix read from record         2100.2  Type=RKS/CHARGE (state 1.1)

 Number of core orbitals:           6 (   6 )
 Number of closed-shell orbitals:  19 (  19 )

 Basis set MINAO-AUTO-PP generated.      Number of basis functions:   42 

 Polarized AO type:                A = (O Ot + (1-O)(1-Ot)) P12
 Orthogonalization method:         Symmetric (Loewdin)
 Localization functional:          L = sum[A,i] <i|n_A|i>^4 -> max

 Localization group 1:  25 orbitals, occupancy  2.000
 Iterative localization: IB/PM,    7 iter; Final gradient 0.22E-08

 Bond order analysis:       [THRPRINT= 0.020]

   CEN ATOM   CEN ATOM     WIBERG.BO      RENORM.BO
     1   C  -   2   C       0.988689       0.988851
     1   C  -   5   H       0.971227       0.989888
     1   C  -   6   H       0.968332       0.987713
     1   C  -   7   H       0.968332       0.987713

     2   C  -   1   C       0.988689       0.988851
     2   C  -   3   O       0.986714       0.967678
     2   C  -  12   C       0.986199       0.966913
     2   C  -  11   C       0.986199       0.966913

     3   O  -   4   C       1.028866       1.015263
     3   O  -   2   C       0.986714       0.967678
     3   O  -   9   H       0.027895       0.016106
     3   O  -  10   H       0.027895       0.016106
     3   O  -  11   C       0.023038       0.012152
     3   O  -  12   C       0.023038       0.012152

     4   C  -   3   O       1.028866       1.015263
     4   C  -   8   H       0.960287       0.975493
     4   C  -   9   H       0.959208       0.949258
     4   C  -  10   H       0.959208       0.949258

     5   H  -   1   C       0.971227       0.989888

     6   H  -   1   C       0.968332       0.987713

     7   H  -   1   C       0.968332       0.987713

     8   H  -   4   C       0.960287       0.975493

     9   H  -   4   C       0.959208       0.949258
     9   H  -   3   O       0.027895       0.016106

    10   H  -   4   C       0.959208       0.949258
    10   H  -   3   O       0.027895       0.016106

    11   C  -   2   C       0.986199       0.966913
    11   C  -  17   H       0.969665       0.986676
    11   C  -  15   H       0.969116       0.990036
    11   C  -  13   H       0.968785       0.987644
    11   C  -   3   O       0.023038       0.012152

    12   C  -   2   C       0.986199       0.966913
    12   C  -  18   H       0.969665       0.986676
    12   C  -  16   H       0.969116       0.990036
    12   C  -  14   H       0.968785       0.987644
    12   C  -   3   O       0.023038       0.012152

    13   H  -  11   C       0.968785       0.987644

    14   H  -  12   C       0.968785       0.987644

    15   H  -  11   C       0.969116       0.990036

    16   H  -  12   C       0.969116       0.990036

    17   H  -  11   C       0.969665       0.986676

    18   H  -  12   C       0.969665       0.986676


 Valency analysis:

   CEN ATOM   TOT.VALENCE
     1   C       3.944132
     2   C       3.977749
     3   O       2.170168
     4   C       3.928028
     5   H       0.988090
     6   H       0.986792
     7   H       0.986792
     8   H       0.986050
     9   H       0.991995
    10   H       0.991995
    11   C       3.944716
    12   C       3.944716
    13   H       0.987318
    14   H       0.987318
    15   H       0.987319
    16   H       0.987319
    17   H       0.988607
    18   H       0.988607

 Total charge composition:

   CEN ATOM         s          p       ELECTRONS ->P.CHARGE
     1   C       2.96629    3.36429      6.33057   -0.33057
     2   C       2.92918    2.96367      5.89284    0.10716
     3   O       3.62874    4.53368      8.16243   -0.16243
     4   C       2.97562    3.25053      6.22615   -0.22615
     5   H       0.89087                 0.89087    0.10913
     6   H       0.88508                 0.88508    0.11492
     7   H       0.88508                 0.88508    0.11492
     8   H       0.88189                 0.88189    0.11811
     9   H       0.91053                 0.91053    0.08947
    10   H       0.91053                 0.91053    0.08947
    11   C       2.96687    3.37712      6.34398   -0.34398
    12   C       2.96687    3.37712      6.34398   -0.34398
    13   H       0.88739                 0.88739    0.11261
    14   H       0.88739                 0.88739    0.11261
    15   H       0.88739                 0.88739    0.11261
    16   H       0.88739                 0.88739    0.11261
    17   H       0.89326                 0.89326    0.10674
    18   H       0.89326                 0.89326    0.10674

 Total charge composition, AO contributions:

   CEN ATOM SHL      SPHERICAL COMPONENTS
     1   C  1s       1.99301
     1   C  2s       0.97328
     1   C  2p       1.15350    1.16012    1.05067

     2   C  1s       1.99427
     2   C  2s       0.93490
     2   C  2p       0.89541    1.03240    1.03586

     3   O  1s       1.99771
     3   O  2s       1.63104
     3   O  2p       1.29619    1.92059    1.31690

     4   C  1s       1.99348
     4   C  2s       0.98214
     4   C  2p       1.15463    1.15743    0.93847

     5   H  1s       0.89087

     6   H  1s       0.88508

     7   H  1s       0.88508

     8   H  1s       0.88189

     9   H  1s       0.91053

    10   H  1s       0.91053

    11   C  1s       1.99306
    11   C  2s       0.97381
    11   C  2p       1.13948    1.09519    1.14244

    12   C  1s       1.99306
    12   C  2s       0.97381
    12   C  2p       1.13948    1.09519    1.14244

    13   H  1s       0.88739

    14   H  1s       0.88739

    15   H  1s       0.88739

    16   H  1s       0.88739

    17   H  1s       0.89326

    18   H  1s       0.89326

 Summary of localized orbital composition:   [THRPRINT= 0.020]

   ORB  GRP  ORB.ENERGY      CENTERS/CHARGES
     1   1   -18.583352      O  3   2.000
     2   1    -9.857128      C  2   2.000
     3   1    -9.831745      C  4   2.000
     4   1    -9.790699      C  1   2.000
     5   1    -9.790365      C 11   2.000
     6   1    -9.790365      C 12   2.000
     7   1    -0.628575      O  3   1.127   C  4   0.865
     8   1    -0.593141      O  3   1.134   C  2   0.843   (other: 0.023)
     9   1    -0.489450      C  2   0.994   C  1   0.984   (other: 0.022)
    10   1    -0.489305      C 11   0.999   C  2   0.987
    11   1    -0.489305      C 12   0.999   C  2   0.987
    12   1    -0.454363      O  3   1.971   (other: 0.029)
    13   1    -0.447363      C  4   1.104   H 10   0.894
    14   1    -0.447363      C  4   1.104   H  9   0.894
    15   1    -0.447006      C  4   1.119   H  8   0.872
    16   1    -0.435165      C 12   1.105   H 18   0.886
    17   1    -0.435165      C 11   1.105   H 17   0.886
    18   1    -0.433921      C  1   1.107   H  5   0.884
    19   1    -0.433781      C 12   1.110   H 16   0.880
    20   1    -0.433781      C 11   1.110   H 15   0.880
    21   1    -0.431449      C 11   1.111   H 13   0.881
    22   1    -0.431449      C 12   1.111   H 14   0.881
    23   1    -0.428505      C  1   1.113   H  6   0.878
    24   1    -0.428505      C  1   1.113   H  7   0.878
    25   1    -0.119360      O  3   1.921   (other: 0.079)

 Localized orbitals saved to record      2100.2  (orbital set 2)


 **********************************************************************************************************************************
 DATASETS  * FILE   NREC   LENGTH (MB)   RECORD NAMES
              1      20       34.09       500      610      700      900      950      970     1000      129      960     1100   
                                          VAR    BASINP    GEOM    SYMINP    ZMAT    AOBASIS   BASIS     P2S    ABASIS      S 
                                         1400     1410     1200     1210     1080     1600     1650     1300     1700     1800   
                                           T        V       H0       H01     AOSYM     SMH    MOLCAS    ERIS     OPER     GRID   

              2       5        3.11       700     1000      520     1800     2100   
                                         GEOM     BASIS   MCVARS    GRID      RKS  

 PROGRAMS   *        TOTAL      IBBA        KS       INT
 CPU TIMES  *        15.39      0.04     14.46      0.75
 REAL TIME  *        16.14 SEC
 DISK USED  *        42.19 MB      
 **********************************************************************************************************************************
 Molecular orbitals read from record     2100.2  Type=RKS/LOCAL(IBO)  
 Occupation numbers read from record     2100.2  Type=RKS/LOCAL(IBO)  
 Orbital energies read from record       2100.2  Type=RKS/LOCAL(IBO)  
 Redundancy group numbers read from rec  2100.2  Type=RKS/LOCAL(IBO)  

 IBBA/STO-3G energy=      0.000000000000

        KS-SCF  
   -260.04181876
 **********************************************************************************************************************************
 Molpro calculation terminated
