
 Primary working directories    : /tmp/sb13343
 Secondary working directories  : /tmp/sb13343
 Wavefunction directory         : /tmp/sb13343/
 Main file repository           : /tmp/sb13343/

 SHA1      : b4a5b34a9e711420743f49e6833241d17c61fb3c
 NAME      : 2099.9.b4a5b34
 ARCHNAME  : linux/x86_64_openmp
 FC        : /cm/shared/languages/GCC-6.1/bin/gfortran
 BLASLIB   : -lblas
 id        : simonbennie

 Nodes     nprocs
 node32-006    1

 Using customized tuning parameters: mindgm=1; mindgv=20; mindgc=4; mindgr=1; noblas=0; minvec=7
 default implementation of scratch files=df  

 memory,500,m
 geomtyp=xyz
 nosym
 noorient
 geometry={
 C         -1.53233        0.02247        0.00000
 C         -0.00192        0.01421        0.00000
 O          0.37239        1.40356        0.00000
 H          1.34248        1.44036        0.00000
 H         -1.92991       -0.99819        0.00000
 H         -1.90797        0.54382       -0.88653
 H         -1.90797        0.54382        0.88653
 C          0.54303       -0.66466       -1.26580
 C          0.54303       -0.66466        1.26580
 H          0.17836       -0.14752       -2.15943
 H          0.17836       -0.14752        2.15943
 H          0.23752       -1.71600       -1.32280
 H          0.23752       -1.71600        1.32280
 H          1.64084       -0.63767       -1.28032
 H          1.64084       -0.63767        1.28032
 }
 basis={ default,SV(P) }
 {ks,BH-LYP,direct;wf,42,1,0}
 {ibba,bonds=1}

 Variables initialized (895), CPU time= 0.00 sec
 Commands  initialized (725), CPU time= 0.02 sec, 591 directives.
 Default parameters read. Elapsed time= 1.91 sec

 Checking input...
 Passed
1


                                         ***  PROGRAM SYSTEM MOLPRO  ***
                                       Copyright, TTI GmbH Stuttgart, 2015
                                    Version 2099.9 linked May 26 2017 16:03:21


 **********************************************************************************************************************************
 LABEL *                                                                                 
  64 bit serial version                                                                  DATE: 12-Jun-17          TIME: 13:14:30  
 **********************************************************************************************************************************

 SHA1:             b4a5b34a9e711420743f49e6833241d17c61fb3c
 **********************************************************************************************************************************
 SETTING GEOMTYP        =    XYZ

 Variable memory set to  500000000 words,  buffer space 

 ZSYMEL=NOSYM

 SETTING BASIS          =    SV(P)


 Recomputing integrals since basis changed


 Using spherical harmonics

 Library entry C      S def2-SV(P)           selected for orbital group  1
 Library entry C      P def2-SV(P)           selected for orbital group  1
 Library entry C      D def2-SV(P)           selected for orbital group  1
 Library entry O      S def2-SV(P)           selected for orbital group  2
 Library entry O      P def2-SV(P)           selected for orbital group  2
 Library entry O      D def2-SV(P)           selected for orbital group  2
 Library entry H      S def2-SV(P)           selected for orbital group  3


 PROGRAM * SEWARD (Integral evaluation for generally contracted gaussian basis sets)     Author: Roland Lindh, 1990

 Geometry written to block  1 of record 700


 Point group  C1  



 ATOMIC COORDINATES

 NR  ATOM    CHARGE       X              Y              Z

   1  C       6.00   -2.895684032    0.042462146    0.000000000
   2  C       6.00   -0.003628274    0.026853008    0.000000000
   3  O       8.00    0.703715112    2.652343999    0.000000000
   4  H       1.00    2.536919528    2.721885921    0.000000000
   5  H       1.00   -3.647001345   -1.886305720    0.000000000
   6  H       1.00   -3.605540754    1.027670861   -1.675298901
   7  H       1.00   -3.605540754    1.027670861    1.675298901
   8  C       6.00    1.026177977   -1.256025366   -2.392015328
   9  C       6.00    1.026177977   -1.256025366    2.392015328
  10  H       1.00    0.337051552   -0.278772398   -4.080731285
  11  H       1.00    0.337051552   -0.278772398    4.080731285
  12  H       1.00    0.448847749   -3.242770030   -2.499729718
  13  H       1.00    0.448847749   -3.242770030    2.499729718
  14  H       1.00    3.100738214   -1.205021658   -2.419454152
  15  H       1.00    3.100738214   -1.205021658    2.419454152

 Bond lengths in Bohr (Angstrom)

 1-2  2.892097881  1-5  2.069933136  1-6  2.069096224  1-7  2.069096224  2-3  2.719106031
     ( 1.530432290)     ( 1.095361444)     ( 1.094918569)     ( 1.094918569)     ( 1.438888946)

  2- 8  2.903104402   2- 9  2.903104402   3- 4  1.834522965   8-10  2.069222119   8-12  2.071730422
       ( 1.536256691)       ( 1.536256691)       ( 0.970787746)       ( 1.094985190)       ( 1.096312526)

  8-14  2.075368508   9-11  2.069222119   9-13  2.071730422   9-15  2.075368508
       ( 1.098237719)       ( 1.094985190)       ( 1.096312526)       ( 1.098237719)

 Bond angles

  1-2-3  104.76902697   1-2-8  110.92255387   1-2-9  110.92255387   2-1-5  110.97328220

  2- 1- 6  110.22090701   2- 1- 7  110.22090701   2- 3- 4  107.25071562   2- 8-10  110.21836376

  2- 8-12  111.57747468   2- 8-14  110.77023896   2- 9-11  110.21836376   2- 9-13  111.57747468

  2- 9-15  110.77023896   3- 2- 8  109.53648747   3- 2- 9  109.53648747   5- 1- 6  108.61190457

  5- 1- 7  108.61190457   6- 1- 7  108.12870271   8- 2- 9  110.96453384  10- 8-12  108.52192632

 10- 8-14  108.08997829  11- 9-13  108.52192632  11- 9-15  108.08997829  12- 8-14  107.54424578

 13- 9-15  107.54424578

 NUCLEAR CHARGE:                   42
 NUMBER OF PRIMITIVE AOS:         165
 NUMBER OF SYMMETRY AOS:          160
 NUMBER OF CONTRACTIONS:           90   (  90A   )
 NUMBER OF CORE ORBITALS:           5   (   5A   )
 NUMBER OF VALENCE ORBITALS:       30   (  30A   )


 NUCLEAR REPULSION ENERGY  198.77359127


 Eigenvalues of metric

         1 0.179E-02 0.600E-02 0.603E-02 0.144E-01 0.286E-01 0.297E-01 0.300E-01 0.361E-01


 Contracted 2-electron integrals neglected if value below      1.0D-11
 AO integral compression algorithm  1   Integral accuracy      1.0D-11

     37.487 MB (compressed) written to integral file ( 49.6%)


 NUMBER OF SORTED TWO-ELECTRON INTEGRALS:    8386560.     BUFFER LENGTH:  32768
 NUMBER OF SEGMENTS:   1  SEGMENT LENGTH:    8386560      RECORD LENGTH: 524288

 Memory used in sort:       8.94 MW

 SORT1 READ     9478508. AND WROTE     7931434. INTEGRALS IN     23 RECORDS. CPU TIME:     0.11 SEC, REAL TIME:     0.23 SEC
 SORT2 READ     7931434. AND WROTE     8386560. INTEGRALS IN    143 RECORDS. CPU TIME:     0.25 SEC, REAL TIME:     1.61 SEC

 FILE SIZES:   FILE 1:    68.0 MBYTE,  FILE 4:    96.5 MBYTE,   TOTAL:    164.5 MBYTE

 OPERATOR DM      FOR CENTER  0  COORDINATES:    0.000000    0.000000    0.000000


 **********************************************************************************************************************************
 DATASETS  * FILE   NREC   LENGTH (MB)   RECORD NAMES
              1      19       63.39       500      610      700      900      950      970     1000      129      960     1100   
                                          VAR    BASINP    GEOM    SYMINP    ZMAT    AOBASIS   BASIS     P2S    ABASIS      S 
                                         1400     1410     1200     1210     1080     1600     1650     1300     1700   
                                           T        V       H0       H01     AOSYM     SMH    MOLCAS    ERIS     OPER   

 PROGRAMS   *        TOTAL       INT
 CPU TIMES  *         2.04      1.89
 REAL TIME  *         6.49 SEC
 DISK USED  *       165.03 MB      
 **********************************************************************************************************************************

 Density functional group BH-LYP=B88+LYP
 Functional: B88(Automatically generated (new) B88)                            Gradient terms: 1
 Functional: LYP(Automatically generated (new) LYP)                            Gradient terms: 1
 Use grid at  1800.2


 Exact exchange will be calculated, factor:  0.5000

 Functional: B88                       Factor:  0.5000
 Functional: LYP                       Factor:  1.0000

 Generated new metagrid on record  1800.2 with target accuracy 1.0D-06 and 53396 points in CPU time    1.7
 Computed new grid on record 1800.1 in CPU time    1.9
   75909 words reserved for DFT integration

 PROGRAM * RKS-SCF (Restricted closed shell Kohn-Sham)     Authors: W. Meyer, H.-J. Werner, P.J. Knowles, 1993

 NUMBER OF ELECTRONS:      21+   21-    SPACE SYMMETRY=1    SPIN SYMMETRY: Singlet 
 CONVERGENCE THRESHOLDS:    1.00E-05 (Density)    1.00E-06 (Energy)
 MAX. NUMBER OF ITERATIONS:       60
 INTERPOLATION TYPE:            DIIS
 INTERPOLATION STEPS:              2 (START)      1 (STEP)
 LEVEL SHIFTS:                  0.00 (CLOSED)  0.00 (OPEN) 



 Use fine grid record 1800.2 for energy threshold  1.0D-06
 Orbital guess generated from atomic densities. Full valence occupancy:   21

 Molecular orbital dump at record        2100.2

 Initial occupancy:  21

 ITERATION    DDIFF          GRAD             ENERGY        2-EL.EN.            DIPOLE MOMENTS         DIIS   ORB.
    1      0.000D+00      0.000D+00      -233.19302019    598.931574    0.74403   -0.88847    0.00000    0    start
    2      0.000D+00      0.925D-02      -233.23798074    580.364419    0.16660   -0.21434    0.00000    1    diag
    3      0.176D-01      0.807D-02      -233.32262639    589.177527    0.39868   -0.55461    0.00000    2    diag
    4      0.870D-02      0.737D-03      -233.32308601    589.064003    0.39475   -0.49532    0.00000    3    diag
    5      0.897D-03      0.400D-03      -233.32328353    589.011889    0.39684   -0.52319    0.00000    4    diag
    6      0.413D-03      0.533D-04      -233.32328696    589.054372    0.39604   -0.52048    0.00000    5    diag
    7      0.727D-04      0.169D-04      -233.32328734    589.044941    0.39591   -0.52006    0.00000    6    diag
    8      0.172D-04      0.216D-05      -233.32328735    589.046254    0.39604   -0.52019    0.00000    7    diag
    9      0.456D-05      0.255D-06      -233.32328735    589.046246    0.39600   -0.52017    0.00000    0    orth

 Final occupancy:  21

 !RKS STATE 1.1 Energy               -233.323287351034
 Nuclear energy                       198.77359127
 One-electron energy                 -708.98975545
 Two-electron energy                  294.52312286
 SCF exchange energy                  -32.49974854     Factor= 0.5000
 Density functional                   -17.63024603     B88=-32.51756606 LYP= -1.37146300
 Virial quotient                       -1.00893038
 !RKS STATE 1.1 Dipole moment           0.39599569    -0.52016980     0.00000000
 Dipole moment /Debye                   1.00645473    -1.32205317     0.00000000

 Orbital energies:

         1.1          2.1          3.1          4.1          5.1          6.1          7.1          8.1          9.1         10.1
    -19.666339   -10.646631   -10.577117   -10.577100   -10.570545    -1.133521    -0.889299    -0.785512    -0.783690    -0.646932

        11.1         12.1         13.1         14.1         15.1         16.1         17.1         18.1         19.1         20.1
     -0.562794    -0.523613    -0.521551    -0.481148    -0.466221    -0.444818    -0.432815    -0.420164    -0.414265    -0.381322

        21.1         22.1         23.1
     -0.338086     0.075954     0.128907

 HOMO     21.1    -0.338086 =      -9.1998eV
 LUMO     22.1     0.075954 =       2.0668eV
 LUMO-HOMO         0.414040 =      11.2666eV


 **********************************************************************************************************************************
 DATASETS  * FILE   NREC   LENGTH (MB)   RECORD NAMES
              1      20       65.10       500      610      700      900      950      970     1000      129      960     1100   
                                          VAR    BASINP    GEOM    SYMINP    ZMAT    AOBASIS   BASIS     P2S    ABASIS      S 
                                         1400     1410     1200     1210     1080     1600     1650     1300     1700     1800   
                                           T        V       H0       H01     AOSYM     SMH    MOLCAS    ERIS     OPER     GRID   

              2       5        3.17       700     1000      520     1800     2100   
                                         GEOM     BASIS   MCVARS    GRID      RKS  

 PROGRAMS   *        TOTAL        KS       INT
 CPU TIMES  *        11.86      9.82      1.89
 REAL TIME  *        17.33 SEC
 DISK USED  *       165.03 MB      
 **********************************************************************************************************************************


 PROGRAM * Intrinsic Basis Bonding Analysis (IBBA)          Author: G. Knizia

 Molecular orbitals read from record     2100.2  Type=RKS/CANONICAL (state 1.1)
 Fock matrix read from record            2100.2  Type=RKS/TOTAL (state 1.1)
 Orbital energies read from record       2100.2  Type=RKS/CANONICAL (state 1.1)
 Density matrix read from record         2100.2  Type=RKS/CHARGE (state 1.1)

 Number of core orbitals:           5 (   5 )
 Number of closed-shell orbitals:  16 (  16 )

 Basis set MINAO-AUTO-PP generated.      Number of basis functions:   35 

 Polarized AO type:                A = (O Ot + (1-O)(1-Ot)) P12
 Orthogonalization method:         Symmetric (Loewdin)
 Localization functional:          L = sum[A,i] <i|n_A|i>^4 -> max

 Localization group 1:  21 orbitals, occupancy  2.000
 Iterative localization: IB/PM,    7 iter; Final gradient 0.38E-08

 Bond order analysis:       [THRPRINT= 0.020]

   CEN ATOM   CEN ATOM     WIBERG.BO      RENORM.BO
     1   C  -   2   C       0.994865       0.993950
     1   C  -   5   H       0.969945       0.988476
     1   C  -   6   H       0.965227       0.984162
     1   C  -   7   H       0.965227       0.984162

     2   C  -   1   C       0.994865       0.993950
     2   C  -   9   C       0.994359       0.978347
     2   C  -   8   C       0.994359       0.978347
     2   C  -   3   O       0.934490       0.958603

     3   O  -   2   C       0.934490       0.958603
     3   O  -   4   H       0.880063       0.979997
     3   O  -   9   C       0.023928       0.012289
     3   O  -   8   C       0.023928       0.012289

     4   H  -   3   O       0.880063       0.979997

     5   H  -   1   C       0.969945       0.988476

     6   H  -   1   C       0.965227       0.984162

     7   H  -   1   C       0.965227       0.984162

     8   C  -   2   C       0.994359       0.978347
     8   C  -  14   H       0.969178       0.984508
     8   C  -  12   H       0.966482       0.984985
     8   C  -  10   H       0.965571       0.983953
     8   C  -   3   O       0.023928       0.012289

     9   C  -   2   C       0.994359       0.978347
     9   C  -  15   H       0.969178       0.984508
     9   C  -  13   H       0.966482       0.984985
     9   C  -  11   H       0.965571       0.983953
     9   C  -   3   O       0.023928       0.012289

    10   H  -   8   C       0.965571       0.983953

    11   H  -   9   C       0.965571       0.983953

    12   H  -   8   C       0.966482       0.984985

    13   H  -   9   C       0.966482       0.984985

    14   H  -   8   C       0.969178       0.984508

    15   H  -   9   C       0.969178       0.984508


 Valency analysis:

   CEN ATOM   TOT.VALENCE
     1   C       3.948452
     2   C       3.928297
     3   O       1.919177
     4   H       0.896857
     5   H       0.986804
     6   H       0.984023
     7   H       0.984023
     8   C       3.950690
     9   C       3.950690
    10   H       0.983988
    11   H       0.983988
    12   H       0.985649
    13   H       0.985649
    14   H       0.987937
    15   H       0.987937

 Total charge composition:

   CEN ATOM         s          p       ELECTRONS ->P.CHARGE
     1   C       3.01601    3.34391      6.35992   -0.35992
     2   C       2.92124    2.81670      5.73793    0.26207
     3   O       3.62925    4.92546      8.55471   -0.55471
     4   H       0.67884                 0.67884    0.32116
     5   H       0.88513                 0.88513    0.11487
     6   H       0.87360                 0.87360    0.12640
     7   H       0.87360                 0.87360    0.12640
     8   C       3.02166    3.35264      6.37430   -0.37430
     9   C       3.02166    3.35264      6.37430   -0.37430
    10   H       0.87346                 0.87346    0.12654
    11   H       0.87346                 0.87346    0.12654
    12   H       0.88020                 0.88020    0.11980
    13   H       0.88020                 0.88020    0.11980
    14   H       0.89017                 0.89017    0.10983
    15   H       0.89017                 0.89017    0.10983

 Total charge composition, AO contributions:

   CEN ATOM SHL      SPHERICAL COMPONENTS
     1   C  1s       1.99069
     1   C  2s       1.02532
     1   C  2p       1.03900    1.14587    1.15904

     2   C  1s       1.99232
     2   C  2s       0.92891
     2   C  2p       1.01431    0.78949    1.01289

     3   O  1s       1.99701
     3   O  2s       1.63224
     3   O  2p       1.46278    1.49999    1.96269

     4   H  1s       0.67884

     5   H  1s       0.88513

     6   H  1s       0.87360

     7   H  1s       0.87360

     8   C  1s       1.99079
     8   C  2s       1.03087
     8   C  2p       1.12957    1.13212    1.09095

     9   C  1s       1.99079
     9   C  2s       1.03087
     9   C  2p       1.12957    1.13212    1.09095

    10   H  1s       0.87346

    11   H  1s       0.87346

    12   H  1s       0.88020

    13   H  1s       0.88020

    14   H  1s       0.89017

    15   H  1s       0.89017

 Summary of localized orbital composition:   [THRPRINT= 0.020]

   ORB  GRP  ORB.ENERGY      CENTERS/CHARGES
     1   1   -19.503772      O  3   2.000
     2   1   -10.551351      C  2   2.000
     3   1   -10.458974      C  8   2.000
     4   1   -10.458974      C  9   2.000
     5   1   -10.451573      C  1   2.000
     6   1    -0.852893      O  3   1.323   H  4   0.669
     7   1    -0.815286      O  3   1.282   C  2   0.702
     8   1    -0.655222      C  8   1.008   C  2   0.978
     9   1    -0.655222      C  9   1.008   C  2   0.978
    10   1    -0.653367      C  2   0.990   C  1   0.989   (other: 0.022)
    11   1    -0.647753      O  3   1.984
    12   1    -0.580641      C  9   1.116   H 13   0.872
    13   1    -0.580641      C  8   1.116   H 12   0.872
    14   1    -0.579448      C  9   1.106   H 15   0.884
    15   1    -0.579448      C  8   1.106   H 14   0.884
    16   1    -0.575309      C  1   1.110   H  5   0.879
    17   1    -0.574378      C  8   1.124   H 10   0.866
    18   1    -0.574378      C  9   1.124   H 11   0.866
    19   1    -0.568292      C  1   1.124   H  7   0.867
    20   1    -0.568292      C  1   1.124   H  6   0.867
    21   1    -0.378270      O  3   1.963   (other: 0.037)

 Localized orbitals saved to record      2100.2  (orbital set 2)


 **********************************************************************************************************************************
 DATASETS  * FILE   NREC   LENGTH (MB)   RECORD NAMES
              1      20       65.10       500      610      700      900      950      970     1000      129      960     1100   
                                          VAR    BASINP    GEOM    SYMINP    ZMAT    AOBASIS   BASIS     P2S    ABASIS      S 
                                         1400     1410     1200     1210     1080     1600     1650     1300     1700     1800   
                                           T        V       H0       H01     AOSYM     SMH    MOLCAS    ERIS     OPER     GRID   

              2       5        3.24       700     1000      520     1800     2100   
                                         GEOM     BASIS   MCVARS    GRID      RKS  

 PROGRAMS   *        TOTAL      IBBA        KS       INT
 CPU TIMES  *        11.90      0.04      9.82      1.89
 REAL TIME  *        17.50 SEC
 DISK USED  *       165.03 MB      
 **********************************************************************************************************************************
 Molecular orbitals read from record     2100.2  Type=RKS/LOCAL(IBO)  
 Occupation numbers read from record     2100.2  Type=RKS/LOCAL(IBO)  
 Orbital energies read from record       2100.2  Type=RKS/LOCAL(IBO)  
 Redundancy group numbers read from rec  2100.2  Type=RKS/LOCAL(IBO)  

 IBBA/SV(P) energy=      0.000000000000

        KS-SCF  
   -233.32328735
 **********************************************************************************************************************************
 Molpro calculation terminated
