
 Primary working directories    : /tmp/sb13343
 Secondary working directories  : /tmp/sb13343
 Wavefunction directory         : /panfs/panasas01/chem/sb13343/wfu/
 Main file repository           : /tmp/sb13343/

 SHA1      : b4a5b34a9e711420743f49e6833241d17c61fb3c
 NAME      : 2099.9.b4a5b34
 ARCHNAME  : linux/x86_64_openmp
 FC        : /cm/shared/languages/GCC-6.1/bin/gfortran
 BLASLIB   : -lblas
 id        : simonbennie

 Nodes     nprocs
 node32-018    1

 Using customized tuning parameters: mindgm=1; mindgv=20; mindgc=4; mindgr=1; noblas=0; minvec=7
 default implementation of scratch files=df  

 memory,500,m
 geomtyp=xyz
 nosym
 noorient
 geometry={
 H         -1.13405        1.76167        0.00000
 C         -1.32915        0.67205        0.00000
 C         -0.06360       -0.12883        0.00000
 C          0.67426       -0.31636        1.28970
 C          0.67426       -0.31636       -1.28970
 H         -1.94006        0.46750        0.88859
 H         -1.94006        0.46750       -0.88859
 H          1.28359        0.56876        1.55544
 H         -0.01165       -0.48291        2.13019
 H          1.36783       -1.16569        1.24157
 H          1.28359        0.56876       -1.55544
 H         -0.01165       -0.48291       -2.13019
 H          1.36783       -1.16569       -1.24157
 }
 basis={ default,svp }
 {uks,CS,direct;wf,33,1,1}
 {ibba,bonds=1}

 Variables initialized (895), CPU time= 0.01 sec
 Commands  initialized (725), CPU time= 0.01 sec, 591 directives.
 Default parameters read. Elapsed time= 0.08 sec

 Checking input...
 Passed
1


                                         ***  PROGRAM SYSTEM MOLPRO  ***
                                       Copyright, TTI GmbH Stuttgart, 2015
                                    Version 2099.9 linked May 26 2017 16:03:21


 **********************************************************************************************************************************
 LABEL *                                                                                 
  64 bit serial version                                                                  DATE: 08-Jun-17          TIME: 20:37:13  
 **********************************************************************************************************************************

 SHA1:             b4a5b34a9e711420743f49e6833241d17c61fb3c
 **********************************************************************************************************************************
 SETTING GEOMTYP        =    XYZ

 Variable memory set to  500000000 words,  buffer space 

 ZSYMEL=NOSYM

 SETTING BASIS          =    SVP


 Recomputing integrals since basis changed


 Using spherical harmonics

 Library entry H      S def2-SVP             selected for orbital group  1
 Library entry H      P def2-SVP             selected for orbital group  1
 Library entry C      S def2-SVP             selected for orbital group  2
 Library entry C      P def2-SVP             selected for orbital group  2
 Library entry C      D def2-SVP             selected for orbital group  2


 PROGRAM * SEWARD (Integral evaluation for generally contracted gaussian basis sets)     Author: Roland Lindh, 1990

 Geometry written to block  1 of record 700


 Point group  C1  



 ATOMIC COORDINATES

 NR  ATOM    CHARGE       X              Y              Z

   1  H       1.00   -2.143043912    3.329073822    0.000000000
   2  C       6.00   -2.511729478    1.269990442    0.000000000
   3  C       6.00   -0.120186582   -0.243453417    0.000000000
   4  C       6.00    1.274166737   -0.597833757    2.437179783
   5  C       6.00    1.274166737   -0.597833757   -2.437179783
   6  H       1.00   -3.666182065    0.883446963    1.679191737
   7  H       1.00   -3.666182065    0.883446963   -1.679191737
   8  H       1.00    2.425633556    1.074800631    2.939355603
   9  H       1.00   -0.022015309   -0.912567643    4.025475693
  10  H       1.00    2.584824085   -2.202834846    2.346227264
  11  H       1.00    2.425633556    1.074800631   -2.939355603
  12  H       1.00   -0.022015309   -0.912567643   -4.025475693
  13  H       1.00    2.584824085   -2.202834846   -2.346227264

 Bond lengths in Bohr (Angstrom)

 1-2  2.091830159  2-3  2.830192527  2-6  2.074092940  2-7  2.074092940  3-4  2.830132841
     ( 1.106948849)     ( 1.497673388)     ( 1.097562717)     ( 1.097562717)     ( 1.497641803)

  3- 5  2.830132841   4- 8  2.091832255   4- 9  2.074085151   4-10  2.074156104   5-11  2.091832255
       ( 1.497641803)       ( 1.106949959)       ( 1.097558596)       ( 1.097596142)       ( 1.106949959)

  5-12  2.074085151   5-13  2.074156104
       ( 1.097558596)       ( 1.097596142)

 Bond angles

  1-2-3  112.17549786   1-2-6  106.35284965   1-2-7  106.35284965   2-3-4  118.89987932

  2-3-5  118.89987932   3-2-6  111.75744418   3-2-7  111.75744418   3-4-8  112.19808176

  3- 4- 9  111.75014522   3- 4-10  111.74379558   3- 5-11  112.19808176   3- 5-12  111.75014522

  3- 5-13  111.74379558   4- 3- 5  118.89276928   6- 2- 7  108.11431090   8- 4- 9  106.34995457

  8- 4-10  106.34572146   9- 4-10  108.12296896  11- 5-12  106.34995457  11- 5-13  106.34572146

 12- 5-13  108.12296896

 NUCLEAR CHARGE:                   33
 NUMBER OF PRIMITIVE AOS:         163
 NUMBER OF SYMMETRY AOS:          159
 NUMBER OF CONTRACTIONS:          101   ( 101A   )
 NUMBER OF CORE ORBITALS:           4   (   4A   )
 NUMBER OF VALENCE ORBITALS:       25   (  25A   )


 NUCLEAR REPULSION ENERGY  124.92676597


 Eigenvalues of metric

         1 0.371E-02 0.424E-02 0.424E-02 0.242E-01 0.242E-01 0.268E-01 0.277E-01 0.371E-01


 Contracted 2-electron integrals neglected if value below      1.0D-11
 AO integral compression algorithm  1   Integral accuracy      1.0D-11

     53.477 MB (compressed) written to integral file ( 46.4%)


 NUMBER OF SORTED TWO-ELECTRON INTEGRALS:   13268976.     BUFFER LENGTH:  32768
 NUMBER OF SEGMENTS:   1  SEGMENT LENGTH:   13268976      RECORD LENGTH: 524288

 Memory used in sort:      13.83 MW

 SORT1 READ    14422061. AND WROTE    12225547. INTEGRALS IN     35 RECORDS. CPU TIME:     0.16 SEC, REAL TIME:     0.32 SEC
 SORT2 READ    12225547. AND WROTE    13268976. INTEGRALS IN    204 RECORDS. CPU TIME:     0.32 SEC, REAL TIME:     0.40 SEC

 FILE SIZES:   FILE 1:    84.0 MBYTE,  FILE 4:   146.8 MBYTE,   TOTAL:    230.9 MBYTE

 OPERATOR DM      FOR CENTER  0  COORDINATES:    0.000000    0.000000    0.000000


 **********************************************************************************************************************************
 DATASETS  * FILE   NREC   LENGTH (MB)   RECORD NAMES
              1      19       77.16       500      610      700      900      950      970     1000      129      960     1100   
                                          VAR    BASINP    GEOM    SYMINP    ZMAT    AOBASIS   BASIS     P2S    ABASIS      S 
                                         1400     1410     1200     1210     1080     1600     1650     1300     1700   
                                           T        V       H0       H01     AOSYM     SMH    MOLCAS    ERIS     OPER   

 PROGRAMS   *        TOTAL       INT
 CPU TIMES  *         2.18      2.04
 REAL TIME  *         2.84 SEC
 DISK USED  *       231.35 MB      
 **********************************************************************************************************************************

 Density functional group CS=CS1
 Functional: CS1(Colle-Salvetti (Gradient form))                               Gradient terms: 1
 Use grid at  1800.2

 Functional: CS1                       Factor:  1.0000

 Generated new metagrid on record  1800.2 with target accuracy 1.0D-06 and 45406 points in CPU time    1.3
 Computed new grid on record 1800.1 in CPU time    1.4
   84355 words reserved for DFT integration

 PROGRAM * UKS-SCF (Unrestricted Kohn-Sham)     Authors: W. Meyer, H.-J. Werner, P.J. Knowles, 1993

 NUMBER OF ELECTRONS:      17+   16-    SPACE SYMMETRY=1    SPIN SYMMETRY: Doublet 
 CONVERGENCE THRESHOLDS:    1.00E-05 (Density)    1.00E-06 (Energy)
 MAX. NUMBER OF ITERATIONS:       60
 INTERPOLATION TYPE:            DIIS
 INTERPOLATION STEPS:              2 (START)      1 (STEP)
 LEVEL SHIFTS:                 -0.20 (ALPHA)  -0.20 (BETA) 



 Use fine grid record 1800.2 for energy threshold  1.0D-06
 Orbital guess generated from atomic densities. Full valence occupancy:   17

 Molecular orbital dump at record        2200.2

 Initial alpha occupation  17
 Initial beta  occupation  16

 ITERATION    DDIFF          GRAD             ENERGY        2-EL.EN.            DIPOLE MOMENTS         DIIS
    1      0.000D+00      0.000D+00      -134.21497031    371.040811   -0.41076   -0.83169    0.00000    0
    2      0.275D-01      0.495D-02      -134.28057931    387.007433   -0.16935   -0.34285   -0.00000    1
    3      0.580D-02      0.358D-02      -134.33892077    380.719525   -0.21414   -0.43349   -0.00000    2
    4      0.507D-02      0.271D-03      -134.34002608    380.865077   -0.17972   -0.36382   -0.00000    3
    5      0.329D-02      0.191D-03      -134.34056418    380.928258   -0.16512   -0.33424   -0.00000    4
    6      0.684D-02      0.141D-03      -134.34141898    381.004923   -0.13099   -0.26507   -0.00000    5
    7      0.537D-02      0.947D-04      -134.34192956    381.036190   -0.11261   -0.22782   -0.00000    6
    8      0.423D-02      0.563D-04      -134.34219035    381.072456   -0.09365   -0.18933    0.00000    7
    9      0.224D-02      0.285D-04      -134.34225335    381.076467   -0.08628   -0.17439    0.00000    8
   10      0.664D-03      0.104D-04      -134.34225923    381.082852   -0.08255   -0.16683   -0.00000    9
   11      0.113D-03      0.282D-05      -134.34225955    381.084537   -0.08250   -0.16672   -0.00000    9
   12      0.162D-04      0.833D-06      -134.34225957    381.083426   -0.08245   -0.16662    0.00000    9
   13      0.416D-05      0.424D-06      -134.34225957    381.084371   -0.08247   -0.16666    0.00000    9
   14      0.131D-05      0.163D-06      -134.34225957    381.084087   -0.08247   -0.16666   -0.00000    9

 Final alpha occupancy:  17
 Final beta  occupancy:  16

 !UKS STATE 1.1 Energy               -134.342259573793
 Nuclear energy                       124.92676597
 One-electron energy                 -448.81071480
 Two-electron energy                  190.54204326
 Density functional                    -1.00035401     CS1=-1.00035401
 Virial quotient                       -0.91837676
 !UKS STATE 1.1 Dipole moment          -0.08246895    -0.16666233    -0.00000000
 Dipole moment /Debye                  -0.20960144    -0.42358565    -0.00000000

 Orbital energies for positive spin:

         1.1          2.1          3.1          4.1          5.1          6.1          7.1          8.1          9.1         10.1
     -8.202443    -8.202439    -8.202233    -8.186245    -0.397790    -0.296802    -0.296789    -0.162163    -0.124026    -0.115699

        11.1         12.1         13.1         14.1         15.1         16.1         17.1         18.1         19.1
     -0.115699    -0.055354    -0.055313    -0.027805    -0.019580    -0.019574     0.141810     0.179139     0.233230

 Orbital energies for negative spin:

         1.1          2.1          3.1          4.1          5.1          6.1          7.1          8.1          9.1         10.1
     -8.202514    -8.202509    -8.202357    -8.188076    -0.402371    -0.298487    -0.298474    -0.165721    -0.129920    -0.117376

        11.1         12.1         13.1         14.1         15.1         16.1         17.1         18.1         19.1
     -0.117374    -0.057586    -0.057545    -0.028470    -0.021494    -0.021491     0.126877     0.175857     0.230423

 HOMO     17.1     0.141810 =       3.8588eV
 LUMO    -17.1     0.126877 =       3.4525eV
 LUMO-HOMO        -0.014933 =      -0.4063eV

 EXPECTATION VALUE OF S**2:             0.75038897

 Occupation number threshold for canonical orbitals:  1.999000 (occupied),  0.001000 (virtual)

 Number of pseudo-canonical orbitals per symmetry:   16
 Number of active natural orbitals per symmetry:      1

 Natural orbitals saved to record    2200.2 (Orbital set 3)

 Orbital spaces for UNO-CAS (Min. occupation: 0.020  Max. occupation: 1.980):

 Closed:       16
 Active:        1


 **********************************************************************************************************************************
 DATASETS  * FILE   NREC   LENGTH (MB)   RECORD NAMES
              1      20       78.61       500      610      700      900      950      970     1000      129      960     1100   
                                          VAR    BASINP    GEOM    SYMINP    ZMAT    AOBASIS   BASIS     P2S    ABASIS      S 
                                         1400     1410     1200     1210     1080     1600     1650     1300     1700     1800   
                                           T        V       H0       H01     AOSYM     SMH    MOLCAS    ERIS     OPER     GRID   

              2       5        3.39       700     1000      520     1800     2200   
                                         GEOM     BASIS   MCVARS    GRID      UKS  

 PROGRAMS   *        TOTAL       UKS       INT
 CPU TIMES  *        37.53     35.35      2.04
 REAL TIME  *        39.21 SEC
 DISK USED  *       231.35 MB      
 **********************************************************************************************************************************


 PROGRAM * Intrinsic Basis Bonding Analysis (IBBA)          Author: G. Knizia

 Molecular orbitals read from record     2200.2  Type=UKS/ALPHA (state 1.1)
 Fock matrix read from record            2200.2  Type=UKS/TOTAL (state 1.1)
 Orbital energies read from record       2200.2  Type=UKS/ALPHA (state 1.1)
 Density matrix read from record         2200.2  Type=UKS/CHARGE (state 1.1)

 Number of core orbitals:           4 (   4 )
 Number of closed-shell orbitals:  12 (  12 )
 Number of active  orbitals:        1 (   1 )

 Basis set MINAO-AUTO-PP generated.      Number of basis functions:   29 

 Polarized AO type:                A = (O Ot + (1-O)(1-Ot)) P12
 Orthogonalization method:         Symmetric (Loewdin)
 Localization functional:          L = sum[A,i] <i|n_A|i>^4 -> max

 Localization group 1:  16 orbitals, occupancy  2.000
 Iterative localization: IB/PM,    8 iter; Final gradient 0.25E-08

 Bond order analysis:       [THRPRINT= 0.020]

   CEN ATOM   CEN ATOM     WIBERG.BO      RENORM.BO
     1   H  -   2   C       0.880386       0.995754
     1   H  -   3   C       0.057997       0.162298

     2   C  -   3   C       1.123580       1.306330
     2   C  -   7   H       0.939972       0.971518
     2   C  -   6   H       0.939972       0.971518
     2   C  -   1   H       0.880386       0.995754

     3   C  -   2   C       1.123580       1.306330
     3   C  -   5   C       1.123544       1.306267
     3   C  -   4   C       1.123544       1.306267
     3   C  -   1   H       0.057997       0.162298
     3   C  -  11   H       0.057947       0.162150
     3   C  -   8   H       0.057947       0.162150

     4   C  -   3   C       1.123544       1.306267
     4   C  -   9   H       0.940033       0.971499
     4   C  -  10   H       0.939889       0.971545
     4   C  -   8   H       0.880448       0.995744

     5   C  -   3   C       1.123544       1.306267
     5   C  -  12   H       0.940033       0.971499
     5   C  -  13   H       0.939889       0.971545
     5   C  -  11   H       0.880448       0.995744

     6   H  -   2   C       0.939972       0.971518

     7   H  -   2   C       0.939972       0.971518

     8   H  -   4   C       0.880448       0.995744
     8   H  -   3   C       0.057947       0.162150

     9   H  -   4   C       0.940033       0.971499

    10   H  -   4   C       0.939889       0.971545

    11   H  -   5   C       0.880448       0.995744
    11   H  -   3   C       0.057947       0.162150

    12   H  -   5   C       0.940033       0.971499

    13   H  -   5   C       0.939889       0.971545


 Valency analysis:

   CEN ATOM   TOT.VALENCE
     1   H       0.979947
     2   C       3.958288
     3   C       3.630769
     4   C       3.958279
     5   C       3.958279
     6   H       0.995730
     7   H       0.995730
     8   H       0.979957
     9   H       0.995738
    10   H       0.995719
    11   H       0.979957
    12   H       0.995738
    13   H       0.995719
 Localization group 2:   1 orbitals, occupancy  1.000
 Iterative localization: IB/PM,    1 iter; Final gradient 0.00E+00

 Bond order analysis:       [THRPRINT= 0.020]

   CEN ATOM   CEN ATOM     WIBERG.BO      RENORM.BO
     1   H  -   3   C       0.125084       0.500000
     1   H  -  11   H       0.021941       0.500000
     1   H  -   8   H       0.021941       0.500000


     3   C  -   1   H       0.125084       0.500000
     3   C  -  11   H       0.125051       0.500000
     3   C  -   8   H       0.125051       0.500000





     8   H  -   3   C       0.125051       0.500000
     8   H  -   1   H       0.021941       0.500000
     8   H  -  11   H       0.021935       0.500000



    11   H  -   3   C       0.125051       0.500000
    11   H  -   1   H       0.021941       0.500000
    11   H  -   8   H       0.021935       0.500000




 Valency analysis:

   CEN ATOM   TOT.VALENCE
     1   H       0.187561
     2   C       0.004138
     3   C       0.481167
     4   C       0.004131
     5   C       0.004131
     6   H       0.027127
     7   H       0.027127
     8   H       0.187517
     9   H       0.027024
    10   H       0.027256
    11   H       0.187517
    12   H       0.027024
    13   H       0.027256

 Total charge composition:

   CEN ATOM         s          p       ELECTRONS ->P.CHARGE
     1   H       0.96314                 0.96314    0.03686
     2   C       2.88822    3.28942      6.17764   -0.17764
     3   C       2.87224    3.01492      5.88716    0.11284
     4   C       2.88821    3.28945      6.17766   -0.17766
     5   C       2.88821    3.28945      6.17766   -0.17766
     6   H       0.94840                 0.94840    0.05160
     7   H       0.94840                 0.94840    0.05160
     8   H       0.96315                 0.96315    0.03685
     9   H       0.94842                 0.94842    0.05158
    10   H       0.94839                 0.94839    0.05161
    11   H       0.96315                 0.96315    0.03685
    12   H       0.94842                 0.94842    0.05158
    13   H       0.94839                 0.94839    0.05161

 Total charge composition, AO contributions:

   CEN ATOM SHL      SPHERICAL COMPONENTS
     1   H  1s       0.96314

     2   C  1s       1.99772
     2   C  2s       0.89050
     2   C  2p       1.08484    1.09562    1.10897

     3   C  1s       1.99827
     3   C  2s       0.87397
     3   C  2p       1.00660    0.99947    1.00886

     4   C  1s       1.99772
     4   C  2s       0.89049
     4   C  2p       1.10124    1.10056    1.08765

     5   C  1s       1.99772
     5   C  2s       0.89049
     5   C  2p       1.10124    1.10056    1.08765

     6   H  1s       0.94840

     7   H  1s       0.94840

     8   H  1s       0.96315

     9   H  1s       0.94842

    10   H  1s       0.94839

    11   H  1s       0.96315

    12   H  1s       0.94842

    13   H  1s       0.94839

 Active orbital charges:

   CEN ATOM         s          p       ELECTRONS ->SPIN.DEN
     1   H       0.10475                 0.10475    0.10475
     2   C       0.00198    0.00010      0.00207    0.00207
     3   C       0.00955    0.58749      0.59704    0.59704
     4   C       0.00197    0.00010      0.00207    0.00207
     5   C       0.00197    0.00010      0.00207    0.00207
     6   H       0.01375                 0.01375    0.01375
     7   H       0.01375                 0.01375    0.01375
     8   H       0.10473                 0.10473    0.10473
     9   H       0.01370                 0.01370    0.01370
    10   H       0.01382                 0.01382    0.01382
    11   H       0.10473                 0.10473    0.10473
    12   H       0.01370                 0.01370    0.01370
    13   H       0.01382                 0.01382    0.01382

 Active orbital charges, AO contributions:

   CEN ATOM SHL      SPHERICAL COMPONENTS
     1   H  1s       0.10475

     2   C  1s       0.00000
     2   C  2s       0.00198
     2   C  2p       0.00001    0.00009    0.00000

     3   C  1s       0.00000
     3   C  2s       0.00955
     3   C  2p       0.11498    0.47251    0.00000

     4   C  1s       0.00000
     4   C  2s       0.00197
     4   C  2p       0.00002    0.00007    0.00000

     5   C  1s       0.00000
     5   C  2s       0.00197
     5   C  2p       0.00002    0.00007    0.00000

     6   H  1s       0.01375

     7   H  1s       0.01375

     8   H  1s       0.10473

     9   H  1s       0.01370

    10   H  1s       0.01382

    11   H  1s       0.10473

    12   H  1s       0.01370

    13   H  1s       0.01382

 Summary of localized orbital composition:   [THRPRINT= 0.020]

   ORB  GRP  ORB.ENERGY      CENTERS/CHARGES
     1   1    -8.122059      C  2   2.000
     2   1    -8.122054      C  5   2.000
     3   1    -8.122054      C  4   2.000
     4   1    -8.116812      C  3   2.000
     5   1    -0.230172      C  4   1.027   C  3   0.948   (other: 0.025)
     6   1    -0.230172      C  5   1.027   C  3   0.948   (other: 0.025)
     7   1    -0.230155      C  2   1.027   C  3   0.948   (other: 0.025)
     8   1    -0.151247      C  2   1.047   H  1   0.845   C  3   0.098
     9   1    -0.151234      C  4   1.047   H  8   0.845   C  3   0.098
    10   1    -0.151234      C  5   1.047   H 11   0.845   C  3   0.098
    11   1    -0.144755      C  2   1.041   H  7   0.922   C  3   0.025
    12   1    -0.144755      C  2   1.041   H  6   0.922   C  3   0.025
    13   1    -0.144752      C  5   1.041   H 13   0.921   C  3   0.025
    14   1    -0.144752      C  4   1.041   H 10   0.921   C  3   0.025
    15   1    -0.144745      C  5   1.041   H 12   0.922   C  3   0.025
    16   1    -0.144745      C  4   1.041   H  9   0.922   C  3   0.025
    17   2     0.134350      C  3   0.597   H  1   0.105   H 11   0.105   H  8   0.105   (other: 0.089)

 Localized orbitals saved to record      2200.2  (orbital set 4)


 **********************************************************************************************************************************
 DATASETS  * FILE   NREC   LENGTH (MB)   RECORD NAMES
              1      20       78.61       500      610      700      900      950      970     1000      129      960     1100   
                                          VAR    BASINP    GEOM    SYMINP    ZMAT    AOBASIS   BASIS     P2S    ABASIS      S 
                                         1400     1410     1200     1210     1080     1600     1650     1300     1700     1800   
                                           T        V       H0       H01     AOSYM     SMH    MOLCAS    ERIS     OPER     GRID   

              2       5        3.47       700     1000      520     1800     2200   
                                         GEOM     BASIS   MCVARS    GRID      UKS  

 PROGRAMS   *        TOTAL      IBBA       UKS       INT
 CPU TIMES  *        37.56      0.03     35.35      2.04
 REAL TIME  *        39.31 SEC
 DISK USED  *       231.35 MB      
 **********************************************************************************************************************************
 Molecular orbitals read from record     2200.2  Type=UKS/LOCAL(IBO)  
 Occupation numbers read from record     2200.2  Type=UKS/LOCAL(IBO)  
 Orbital energies read from record       2200.2  Type=UKS/LOCAL(IBO)  
 Redundancy group numbers read from rec  2200.2  Type=UKS/BETA (state 1.1)

 IBBA/SVP energy=      0.000000000000

        UKS-SCF 
   -134.34225957
 **********************************************************************************************************************************
 Molpro calculation terminated
