
 Primary working directories    : /tmp/sb13343
 Secondary working directories  : /tmp/sb13343
 Wavefunction directory         : /panfs/panasas01/chem/sb13343/wfu/
 Main file repository           : /tmp/sb13343/

 SHA1      : b4a5b34a9e711420743f49e6833241d17c61fb3c
 NAME      : 2099.9.b4a5b34
 ARCHNAME  : linux/x86_64_openmp
 FC        : /cm/shared/languages/GCC-6.1/bin/gfortran
 BLASLIB   : -lblas
 id        : simonbennie

 Nodes     nprocs
 node35-048    1

 Using customized tuning parameters: mindgm=1; mindgv=20; mindgc=4; mindgr=1; noblas=0; minvec=7
 default implementation of scratch files=df  

 memory,500,m
 geomtyp=xyz
 nosym
 noorient
 geometry={
 C         -1.53233        0.02247        0.00000
 C         -0.00192        0.01421        0.00000
 O          0.37239        1.40356        0.00000
 H          1.34248        1.44036        0.00000
 H         -1.92991       -0.99819        0.00000
 H         -1.90797        0.54382       -0.88653
 H         -1.90797        0.54382        0.88653
 C          0.54303       -0.66466       -1.26580
 C          0.54303       -0.66466        1.26580
 H          0.17836       -0.14752       -2.15943
 H          0.17836       -0.14752        2.15943
 H          0.23752       -1.71600       -1.32280
 H          0.23752       -1.71600        1.32280
 H          1.64084       -0.63767       -1.28032
 H          1.64084       -0.63767        1.28032
 }
 basis={ default,sto-3g }
 {uks,M08-HX,direct;wf,42,1,0}
 {ibba,bonds=1}

 Variables initialized (895), CPU time= 0.01 sec
 Commands  initialized (725), CPU time= 0.01 sec, 591 directives.
 Default parameters read. Elapsed time= 0.09 sec

 Checking input...
 Passed
1


                                         ***  PROGRAM SYSTEM MOLPRO  ***
                                       Copyright, TTI GmbH Stuttgart, 2015
                                    Version 2099.9 linked May 26 2017 16:03:21


 **********************************************************************************************************************************
 LABEL *                                                                                 
  64 bit serial version                                                                  DATE: 09-Jun-17          TIME: 03:32:56  
 **********************************************************************************************************************************

 SHA1:             b4a5b34a9e711420743f49e6833241d17c61fb3c
 **********************************************************************************************************************************
 SETTING GEOMTYP        =    XYZ

 Variable memory set to  500000000 words,  buffer space 

 ZSYMEL=NOSYM

 SETTING BASIS          =    STO-3G


 Recomputing integrals since basis changed


 Using spherical harmonics

 Library entry C      S STO-3G               selected for orbital group  1
 Library entry C      P STO-3G               selected for orbital group  1
 Library entry O      S STO-3G               selected for orbital group  2
 Library entry O      P STO-3G               selected for orbital group  2
 Library entry H      S STO-3G               selected for orbital group  3


 PROGRAM * SEWARD (Integral evaluation for generally contracted gaussian basis sets)     Author: Roland Lindh, 1990

 Geometry written to block  1 of record 700


 Point group  C1  



 ATOMIC COORDINATES

 NR  ATOM    CHARGE       X              Y              Z

   1  C       6.00   -2.895684032    0.042462146    0.000000000
   2  C       6.00   -0.003628274    0.026853008    0.000000000
   3  O       8.00    0.703715112    2.652343999    0.000000000
   4  H       1.00    2.536919528    2.721885921    0.000000000
   5  H       1.00   -3.647001345   -1.886305720    0.000000000
   6  H       1.00   -3.605540754    1.027670861   -1.675298901
   7  H       1.00   -3.605540754    1.027670861    1.675298901
   8  C       6.00    1.026177977   -1.256025366   -2.392015328
   9  C       6.00    1.026177977   -1.256025366    2.392015328
  10  H       1.00    0.337051552   -0.278772398   -4.080731285
  11  H       1.00    0.337051552   -0.278772398    4.080731285
  12  H       1.00    0.448847749   -3.242770030   -2.499729718
  13  H       1.00    0.448847749   -3.242770030    2.499729718
  14  H       1.00    3.100738214   -1.205021658   -2.419454152
  15  H       1.00    3.100738214   -1.205021658    2.419454152

 Bond lengths in Bohr (Angstrom)

 1-2  2.892097881  1-5  2.069933136  1-6  2.069096224  1-7  2.069096224  2-3  2.719106031
     ( 1.530432290)     ( 1.095361444)     ( 1.094918569)     ( 1.094918569)     ( 1.438888946)

  2- 8  2.903104402   2- 9  2.903104402   3- 4  1.834522965   8-10  2.069222119   8-12  2.071730422
       ( 1.536256691)       ( 1.536256691)       ( 0.970787746)       ( 1.094985190)       ( 1.096312526)

  8-14  2.075368508   9-11  2.069222119   9-13  2.071730422   9-15  2.075368508
       ( 1.098237719)       ( 1.094985190)       ( 1.096312526)       ( 1.098237719)

 Bond angles

  1-2-3  104.76902697   1-2-8  110.92255387   1-2-9  110.92255387   2-1-5  110.97328220

  2- 1- 6  110.22090701   2- 1- 7  110.22090701   2- 3- 4  107.25071562   2- 8-10  110.21836376

  2- 8-12  111.57747468   2- 8-14  110.77023896   2- 9-11  110.21836376   2- 9-13  111.57747468

  2- 9-15  110.77023896   3- 2- 8  109.53648747   3- 2- 9  109.53648747   5- 1- 6  108.61190457

  5- 1- 7  108.61190457   6- 1- 7  108.12870271   8- 2- 9  110.96453384  10- 8-12  108.52192632

 10- 8-14  108.08997829  11- 9-13  108.52192632  11- 9-15  108.08997829  12- 8-14  107.54424578

 13- 9-15  107.54424578

 NUCLEAR CHARGE:                   42
 NUMBER OF PRIMITIVE AOS:         105
 NUMBER OF SYMMETRY AOS:          105
 NUMBER OF CONTRACTIONS:           35   (  35A   )
 NUMBER OF CORE ORBITALS:           5   (   5A   )
 NUMBER OF VALENCE ORBITALS:       30   (  30A   )


 NUCLEAR REPULSION ENERGY  198.77359127


 Eigenvalues of metric

         1 0.207E+00 0.227E+00 0.228E+00 0.304E+00 0.354E+00 0.360E+00 0.361E+00 0.363E+00


 Contracted 2-electron integrals neglected if value below      1.0D-11
 AO integral compression algorithm  1   Integral accuracy      1.0D-11

     1.573 MB (compressed) written to integral file ( 87.8%)


 NUMBER OF SORTED TWO-ELECTRON INTEGRALS:     198765.     BUFFER LENGTH:  32768
 NUMBER OF SEGMENTS:   1  SEGMENT LENGTH:     198765      RECORD LENGTH: 524288

 Memory used in sort:       0.76 MW

 SORT1 READ      224962. AND WROTE      188577. INTEGRALS IN      1 RECORDS. CPU TIME:     0.01 SEC, REAL TIME:     0.01 SEC
 SORT2 READ      188577. AND WROTE      198765. INTEGRALS IN      6 RECORDS. CPU TIME:     0.01 SEC, REAL TIME:     0.03 SEC

 FILE SIZES:   FILE 1:    31.8 MBYTE,  FILE 4:     4.2 MBYTE,   TOTAL:     36.0 MBYTE

 OPERATOR DM      FOR CENTER  0  COORDINATES:    0.000000    0.000000    0.000000


 **********************************************************************************************************************************
 DATASETS  * FILE   NREC   LENGTH (MB)   RECORD NAMES
              1      19       31.10       500      610      700      900      950      970     1000      129      960     1100   
                                          VAR    BASINP    GEOM    SYMINP    ZMAT    AOBASIS   BASIS     P2S    ABASIS      S 
                                         1400     1410     1200     1210     1080     1600     1650     1300     1700   
                                           T        V       H0       H01     AOSYM     SMH    MOLCAS    ERIS     OPER   

 PROGRAMS   *        TOTAL       INT
 CPU TIMES  *         0.64      0.49
 REAL TIME  *         1.92 SEC
 DISK USED  *        36.55 MB      
 **********************************************************************************************************************************

 Density functional group M08-HX=XC-M08-HX
 Functional: XC-M08-HX(via MFM 1.6)                                            Gradient terms: 1
 Use grid at  1800.2


 Exact exchange will be calculated, factor:  0.5223

 Functional: XC-M08-HX                 Factor:  1.0000

 Generated new metagrid on record  1800.2 with target accuracy 1.0D-06 and 53396 points in CPU time    1.7
 Computed new grid on record 1800.1 in CPU time    1.9
   32369 words reserved for DFT integration

 PROGRAM * UKS-SCF (Unrestricted Kohn-Sham)     Authors: W. Meyer, H.-J. Werner, P.J. Knowles, 1993

 NUMBER OF ELECTRONS:      21+   21-    SPACE SYMMETRY=1    SPIN SYMMETRY: Singlet 
 CONVERGENCE THRESHOLDS:    1.00E-05 (Density)    1.00E-06 (Energy)
 MAX. NUMBER OF ITERATIONS:       60
 INTERPOLATION TYPE:            DIIS
 INTERPOLATION STEPS:              2 (START)      1 (STEP)
 LEVEL SHIFTS:                 -0.20 (ALPHA)  -0.20 (BETA) 



 Use fine grid record 1800.2 for energy threshold  1.0D-06
 Orbital guess generated from atomic densities. Full valence occupancy:   21

 Molecular orbital dump at record        2200.2

 Initial alpha occupation  21
 Initial beta  occupation  21

 ITERATION    DDIFF          GRAD             ENERGY        2-EL.EN.            DIPOLE MOMENTS         DIIS
    1      0.000D+00      0.000D+00      -230.39306396    602.643871    0.75782   -1.09808    0.00000    0
    2      0.427D-01      0.166D-01      -230.64046403    589.707365    0.35351   -0.45339    0.00000    1
    3      0.415D-02      0.177D-02      -230.64331704    589.488433    0.32095   -0.40536    0.00000    2
    4      0.156D-02      0.538D-03      -230.64367859    589.411356    0.31540   -0.40714    0.00000    3
    5      0.723D-03      0.174D-03      -230.64372518    589.409519    0.31435   -0.40723    0.00000    4
    6      0.172D-03      0.352D-04      -230.64372776    589.408984    0.31463   -0.40651    0.00000    5
    7      0.400D-04      0.872D-05      -230.64372789    589.408142    0.31473   -0.40660    0.00000    5
    8      0.813D-05      0.237D-05      -230.64372789    589.408707    0.31472   -0.40652    0.00000    6
    9      0.275D-05      0.613D-06      -230.64372789    589.408550    0.31473   -0.40652    0.00000    6

 Final alpha occupancy:  21
 Final beta  occupancy:  21

 !UKS STATE 1.1 Energy               -230.643727893519
 Nuclear energy                       198.77359127
 One-electron energy                 -707.14723065
 Two-electron energy                  294.70427506
 Density functional                   -16.97436358     XC-M08-HX=-16.97436358
 Virial quotient                       -1.01520265
 !UKS STATE 1.1 Dipole moment           0.31472729    -0.40651607     0.00000000
 Dipole moment /Debye                   0.79990459    -1.03319311     0.00000000

 Orbital energies for positive spin:

         1.1          2.1          3.1          4.1          5.1          6.1          7.1          8.1          9.1         10.1
    -19.260899   -10.359222   -10.299774   -10.299694   -10.298268    -1.065933    -0.840363    -0.744441    -0.742896    -0.592292

        11.1         12.1         13.1         14.1         15.1         16.1         17.1         18.1         19.1         20.1
     -0.504848    -0.476610    -0.476131    -0.430986    -0.424045    -0.396594    -0.396264    -0.363682    -0.354856    -0.285597

        21.1         22.1         23.1
     -0.224224     0.367691     0.428898

 Orbital energies for negative spin:

         1.1          2.1          3.1          4.1          5.1          6.1          7.1          8.1          9.1         10.1
    -19.260899   -10.359222   -10.299774   -10.299694   -10.298268    -1.065933    -0.840363    -0.744441    -0.742896    -0.592292

        11.1         12.1         13.1         14.1         15.1         16.1         17.1         18.1         19.1         20.1
     -0.504848    -0.476610    -0.476131    -0.430986    -0.424045    -0.396594    -0.396264    -0.363682    -0.354856    -0.285597

        21.1         22.1         23.1
     -0.224224     0.367691     0.428898

 HOMO     21.1    -0.224224 =      -6.1015eV
 LUMO     22.1     0.367691 =      10.0054eV
 LUMO-HOMO         0.591915 =      16.1068eV

 EXPECTATION VALUE OF S**2:            -0.00000000

 Natural orbitals saved to record    2200.2 (Orbital set 3)

 Orbital spaces for UNO-CAS (Min. occupation: 0.020  Max. occupation: 1.980):

 Closed:       21
 Active:        0


 **********************************************************************************************************************************
 DATASETS  * FILE   NREC   LENGTH (MB)   RECORD NAMES
              1      20       32.81       500      610      700      900      950      970     1000      129      960     1100   
                                          VAR    BASINP    GEOM    SYMINP    ZMAT    AOBASIS   BASIS     P2S    ABASIS      S 
                                         1400     1410     1200     1210     1080     1600     1650     1300     1700     1800   
                                           T        V       H0       H01     AOSYM     SMH    MOLCAS    ERIS     OPER     GRID   

              2       5        3.05       700     1000      520     1800     2200   
                                         GEOM     BASIS   MCVARS    GRID      UKS  

 PROGRAMS   *        TOTAL       UKS       INT
 CPU TIMES  *        12.47     11.83      0.49
 REAL TIME  *        55.54 SEC
 DISK USED  *        36.55 MB      
 **********************************************************************************************************************************


 PROGRAM * Intrinsic Basis Bonding Analysis (IBBA)          Author: G. Knizia

 Molecular orbitals read from record     2200.2  Type=UKS/ALPHA (state 1.1)
 Fock matrix read from record            2200.2  Type=UKS/TOTAL (state 1.1)
 Orbital energies read from record       2200.2  Type=UKS/ALPHA (state 1.1)
 Density matrix read from record         2200.2  Type=UKS/CHARGE (state 1.1)

 Number of core orbitals:           5 (   5 )
 Number of closed-shell orbitals:  16 (  16 )

 Basis set MINAO-AUTO-PP generated.      Number of basis functions:   35 

 Polarized AO type:                A = (O Ot + (1-O)(1-Ot)) P12
 Orthogonalization method:         Symmetric (Loewdin)
 Localization functional:          L = sum[A,i] <i|n_A|i>^4 -> max

 Localization group 1:  21 orbitals, occupancy  2.000
 Iterative localization: IB/PM,    7 iter; Final gradient 0.25E-08

 Bond order analysis:       [THRPRINT= 0.020]

   CEN ATOM   CEN ATOM     WIBERG.BO      RENORM.BO
     1   C  -   2   C       0.990882       0.988058
     1   C  -   5   H       0.968813       0.990809
     1   C  -   6   H       0.964767       0.988329
     1   C  -   7   H       0.964767       0.988329

     2   C  -   3   O       0.994478       0.981093
     2   C  -   1   C       0.990882       0.988058
     2   C  -   8   C       0.990282       0.971271
     2   C  -   9   C       0.990282       0.971271

     3   O  -   2   C       0.994478       0.981093
     3   O  -   4   H       0.935315       0.983395
     3   O  -   9   C       0.021141       0.010992
     3   O  -   8   C       0.021141       0.010992

     4   H  -   3   O       0.935315       0.983395

     5   H  -   1   C       0.968813       0.990809

     6   H  -   1   C       0.964767       0.988329

     7   H  -   1   C       0.964767       0.988329

     8   C  -   2   C       0.990282       0.971271
     8   C  -  14   H       0.967751       0.987677
     8   C  -  12   H       0.967001       0.989919
     8   C  -  10   H       0.965496       0.988168
     8   C  -   3   O       0.021141       0.010992

     9   C  -   2   C       0.990282       0.971271
     9   C  -  15   H       0.967751       0.987677
     9   C  -  13   H       0.967001       0.989919
     9   C  -  11   H       0.965496       0.988168
     9   C  -   3   O       0.021141       0.010992

    10   H  -   8   C       0.965496       0.988168

    11   H  -   9   C       0.965496       0.988168

    12   H  -   8   C       0.967001       0.989919

    13   H  -   9   C       0.967001       0.989919

    14   H  -   8   C       0.967751       0.987677

    15   H  -   9   C       0.967751       0.987677


 Valency analysis:

   CEN ATOM   TOT.VALENCE
     1   C       3.934198
     2   C       3.975599
     3   O       2.014511
     4   H       0.951354
     5   H       0.983831
     6   H       0.981755
     7   H       0.981755
     8   C       3.936751
     9   C       3.936751
    10   H       0.982223
    11   H       0.982223
    12   H       0.983000
    13   H       0.983000
    14   H       0.984772
    15   H       0.984772

 Total charge composition:

   CEN ATOM         s          p       ELECTRONS ->P.CHARGE
     1   C       2.99312    3.39124      6.38436   -0.38436
     2   C       2.94096    2.94014      5.88110    0.11890
     3   O       3.67279    4.65910      8.33188   -0.33188
     4   H       0.77944                 0.77944    0.22056
     5   H       0.87284                 0.87284    0.12716
     6   H       0.86493                 0.86493    0.13507
     7   H       0.86493                 0.86493    0.13507
     8   C       2.99746    3.39991      6.39737   -0.39737
     9   C       2.99746    3.39991      6.39737   -0.39737
    10   H       0.86667                 0.86667    0.13333
    11   H       0.86667                 0.86667    0.13333
    12   H       0.86962                 0.86962    0.13038
    13   H       0.86962                 0.86962    0.13038
    14   H       0.87660                 0.87660    0.12340
    15   H       0.87660                 0.87660    0.12340

 Total charge composition, AO contributions:

   CEN ATOM SHL      SPHERICAL COMPONENTS
     1   C  1s       1.99165
     1   C  2s       1.00147
     1   C  2p       1.05013    1.16601    1.17510

     2   C  1s       1.99309
     2   C  2s       0.94787
     2   C  2p       1.03147    0.88396    1.02471

     3   O  1s       1.99730
     3   O  2s       1.67549
     3   O  2p       1.34550    1.34668    1.96691

     4   H  1s       0.77944

     5   H  1s       0.87284

     6   H  1s       0.86493

     7   H  1s       0.86493

     8   C  1s       1.99175
     8   C  2s       1.00571
     8   C  2p       1.14911    1.15007    1.10073

     9   C  1s       1.99175
     9   C  2s       1.00571
     9   C  2p       1.14911    1.15007    1.10073

    10   H  1s       0.86667

    11   H  1s       0.86667

    12   H  1s       0.86962

    13   H  1s       0.86962

    14   H  1s       0.87660

    15   H  1s       0.87660

 Summary of localized orbital composition:   [THRPRINT= 0.020]

   ORB  GRP  ORB.ENERGY      CENTERS/CHARGES
     1   1   -19.069020      O  3   2.000
     2   1   -10.263531      C  2   2.000
     3   1   -10.185056      C  9   2.000
     4   1   -10.185056      C  8   2.000
     5   1   -10.182707      C  1   2.000
     6   1    -0.739458      O  3   1.219   H  4   0.772
     7   1    -0.695284      O  3   1.152   C  2   0.833
     8   1    -0.630941      O  3   1.988
     9   1    -0.598596      C  9   0.999   C  2   0.988
    10   1    -0.598596      C  8   0.999   C  2   0.988
    11   1    -0.598548      C  2   0.997   C  1   0.982   (other: 0.021)
    12   1    -0.541400      C  8   1.121   H 14   0.871
    13   1    -0.541400      C  9   1.121   H 15   0.871
    14   1    -0.540011      C  9   1.128   H 13   0.863
    15   1    -0.540011      C  8   1.128   H 12   0.863
    16   1    -0.537102      C  1   1.125   H  5   0.867
    17   1    -0.537074      C  8   1.132   H 10   0.860
    18   1    -0.537074      C  9   1.132   H 11   0.860
    19   1    -0.532118      C  1   1.133   H  6   0.858
    20   1    -0.532118      C  1   1.133   H  7   0.858
    21   1    -0.252535      O  3   1.967   (other: 0.033)

 Localized orbitals saved to record      2200.2  (orbital set 4)


 **********************************************************************************************************************************
 DATASETS  * FILE   NREC   LENGTH (MB)   RECORD NAMES
              1      20       32.81       500      610      700      900      950      970     1000      129      960     1100   
                                          VAR    BASINP    GEOM    SYMINP    ZMAT    AOBASIS   BASIS     P2S    ABASIS      S 
                                         1400     1410     1200     1210     1080     1600     1650     1300     1700     1800   
                                           T        V       H0       H01     AOSYM     SMH    MOLCAS    ERIS     OPER     GRID   

              2       5        3.06       700     1000      520     1800     2200   
                                         GEOM     BASIS   MCVARS    GRID      UKS  

 PROGRAMS   *        TOTAL      IBBA       UKS       INT
 CPU TIMES  *        12.51      0.04     11.83      0.49
 REAL TIME  *        56.13 SEC
 DISK USED  *        36.55 MB      
 **********************************************************************************************************************************
 Molecular orbitals read from record     2200.2  Type=UKS/LOCAL(IBO)  
 Occupation numbers read from record     2200.2  Type=UKS/LOCAL(IBO)  
 Orbital energies read from record       2200.2  Type=UKS/LOCAL(IBO)  
 Redundancy group numbers read from rec  2200.2  Type=UKS/BETA (state 1.1)

 IBBA/STO-3G energy=      0.000000000000

        UKS-SCF 
   -230.64372789
 **********************************************************************************************************************************
 Molpro calculation terminated
