
 Primary working directories    : /tmp/sb13343
 Secondary working directories  : /tmp/sb13343
 Wavefunction directory         : /panfs/panasas01/chem/sb13343/wfu/
 Main file repository           : /tmp/sb13343/

 SHA1      : b4a5b34a9e711420743f49e6833241d17c61fb3c
 NAME      : 2099.9.b4a5b34
 ARCHNAME  : linux/x86_64_openmp
 FC        : /cm/shared/languages/GCC-6.1/bin/gfortran
 BLASLIB   : -lblas
 id        : simonbennie

 Nodes     nprocs
 node35-048    1

 Using customized tuning parameters: mindgm=1; mindgv=20; mindgc=4; mindgr=1; noblas=0; minvec=7
 default implementation of scratch files=df  

 memory,500,m
 geomtyp=xyz
 nosym
 noorient
 geometry={
 C          0.00000        0.00000        0.00000
 C          0.00000        0.00000        1.53307
 O          1.40344        0.00000        1.86307
 C          1.76314        0.00000        3.22887
 H         -1.02289        0.00000       -0.39176
 H          0.51995       -0.88625       -0.37815
 H          0.51995        0.88625       -0.37815
 H          2.85677        0.00000        3.25413
 H          1.40708       -0.89217        3.76475
 H          1.40708        0.89217        3.76475
 C         -0.69252       -1.26694        2.06222
 C         -0.69252        1.26694        2.06222
 H         -0.15366       -2.16088        1.72982
 H         -0.15366        2.16088        1.72982
 H         -1.72011       -1.32515        1.68649
 H         -1.72011        1.32515        1.68649
 H         -0.74365       -1.28188        3.15638
 H         -0.74365        1.28188        3.15638
 }
 basis={ default,sto-3g }
 {ks,D,direct;wf,50,1,0}
 {ibba,bonds=1}

 Variables initialized (895), CPU time= 0.01 sec
 Commands  initialized (725), CPU time= 0.01 sec, 591 directives.
 Default parameters read. Elapsed time= 0.10 sec

 Checking input...
 Passed
1


                                         ***  PROGRAM SYSTEM MOLPRO  ***
                                       Copyright, TTI GmbH Stuttgart, 2015
                                    Version 2099.9 linked May 26 2017 16:03:21


 **********************************************************************************************************************************
 LABEL *                                                                                 
  64 bit serial version                                                                  DATE: 09-Jun-17          TIME: 01:34:21  
 **********************************************************************************************************************************

 SHA1:             b4a5b34a9e711420743f49e6833241d17c61fb3c
 **********************************************************************************************************************************
 SETTING GEOMTYP        =    XYZ

 Variable memory set to  500000000 words,  buffer space 

 ZSYMEL=NOSYM

 SETTING BASIS          =    STO-3G


 Recomputing integrals since basis changed


 Using spherical harmonics

 Library entry C      S STO-3G               selected for orbital group  1
 Library entry C      P STO-3G               selected for orbital group  1
 Library entry O      S STO-3G               selected for orbital group  2
 Library entry O      P STO-3G               selected for orbital group  2
 Library entry H      S STO-3G               selected for orbital group  4


 PROGRAM * SEWARD (Integral evaluation for generally contracted gaussian basis sets)     Author: Roland Lindh, 1990

 Geometry written to block  1 of record 700


 Point group  C1  



 ATOMIC COORDINATES

 NR  ATOM    CHARGE       X              Y              Z

   1  C       6.00    0.000000000    0.000000000    0.000000000
   2  C       6.00    0.000000000    0.000000000    2.897082430
   3  O       8.00    2.652117232    0.000000000    3.520692051
   4  C       6.00    3.331851719    0.000000000    6.101679992
   5  H       1.00   -1.932981956    0.000000000   -0.740319107
   6  H       1.00    0.982563098   -1.674769778   -0.714599934
   7  H       1.00    0.982563098    1.674769778   -0.714599934
   8  H       1.00    5.398512901    0.000000000    6.149414474
   9  H       1.00    2.658995835   -1.685956957    7.114346427
  10  H       1.00    2.658995835    1.685956957    7.114346427
  11  C       6.00   -1.308673136   -2.394169616    3.897031009
  12  C       6.00   -1.308673136    2.394169616    3.897031009
  13  H       1.00   -0.290375316   -4.083471388    3.268886045
  14  H       1.00   -0.290375316    4.083471388    3.268886045
  15  H       1.00   -3.250536804   -2.504170574    3.187004212
  16  H       1.00   -3.250536804    2.504170574    3.187004212
  17  H       1.00   -1.405294833   -2.422402125    5.964693745
  18  H       1.00   -1.405294833    2.422402125    5.964693745

 Bond lengths in Bohr (Angstrom)

 1-2  2.897082430  1-5  2.069901355  1-6  2.069042560  1-7  2.069042560  2-3  2.724447609
     ( 1.533070000)     ( 1.095344626)     ( 1.094890171)     ( 1.094890171)     ( 1.441715587)

  2-11  2.905954351   2-12  2.905954351   3- 4  2.668995640   4- 8  2.067212379   4- 9  2.078624355
       ( 1.537764818)       ( 1.537764818)       ( 1.412371669)       ( 1.093921681)       ( 1.099960639)

  4-10  2.078624355  11-13  2.070081404  11-15  2.070524757  11-17  2.070111596  12-14  2.070081404
       ( 1.099960639)       ( 1.095439904)       ( 1.095674516)       ( 1.095455880)       ( 1.095439904)

 12-16  2.070524757  12-18  2.070111596
       ( 1.095674516)       ( 1.095455880)

 Bond angles

  1- 2- 3  103.23196371   1- 2-11  110.12706952   1- 2-12  110.12706952   2- 1- 5  110.95650426

  2- 1- 6  110.20481748   2- 1- 7  110.20481748   2- 3- 4  117.98647004   2-11-13  110.26679927

  2-11-15  110.37287188   2-11-17  112.08316935   2-12-14  110.26679927   2-12-16  110.37287188

  2-12-18  112.08316935   3- 2-11  111.07703285   3- 2-12  111.07703285   3- 4- 8  106.07765410

  3- 4- 9  112.87219182   3- 4-10  112.87219182   5- 1- 6  108.65976572   5- 1- 7  108.65976572

  6- 1- 7  108.08288210   8- 4- 9  108.20190897   8- 4-10  108.20190897   9- 4-10  108.40564999

 11- 2-12  110.95103964  13-11-15  108.29648994  13-11-17  108.35544687  14-12-16  108.29648994

 14-12-18  108.35544687  15-11-17  107.33851825  16-12-18  107.33851825

 NUCLEAR CHARGE:                   50
 NUMBER OF PRIMITIVE AOS:         126
 NUMBER OF SYMMETRY AOS:          126
 NUMBER OF CONTRACTIONS:           42   (  42A   )
 NUMBER OF CORE ORBITALS:           6   (   6A   )
 NUMBER OF VALENCE ORBITALS:       36   (  36A   )


 NUCLEAR REPULSION ENERGY  270.15500869


 Eigenvalues of metric

         1 0.207E+00 0.226E+00 0.228E+00 0.234E+00 0.307E+00 0.355E+00 0.359E+00 0.362E+00


 Contracted 2-electron integrals neglected if value below      1.0D-11
 AO integral compression algorithm  1   Integral accuracy      1.0D-11

     2.884 MB (compressed) written to integral file ( 84.3%)


 NUMBER OF SORTED TWO-ELECTRON INTEGRALS:     408156.     BUFFER LENGTH:  32768
 NUMBER OF SEGMENTS:   1  SEGMENT LENGTH:     408156      RECORD LENGTH: 524288

 Memory used in sort:       0.97 MW

 SORT1 READ      453477. AND WROTE      382834. INTEGRALS IN      2 RECORDS. CPU TIME:     0.00 SEC, REAL TIME:     0.08 SEC
 SORT2 READ      382834. AND WROTE      408156. INTEGRALS IN     11 RECORDS. CPU TIME:     0.03 SEC, REAL TIME:     0.11 SEC

 FILE SIZES:   FILE 1:    33.2 MBYTE,  FILE 4:     8.4 MBYTE,   TOTAL:     41.6 MBYTE

 OPERATOR DM      FOR CENTER  0  COORDINATES:    0.000000    0.000000    0.000000


 **********************************************************************************************************************************
 DATASETS  * FILE   NREC   LENGTH (MB)   RECORD NAMES
              1      19       31.98       500      610      700      900      950      970     1000      129      960     1100   
                                          VAR    BASINP    GEOM    SYMINP    ZMAT    AOBASIS   BASIS     P2S    ABASIS      S 
                                         1400     1410     1200     1210     1080     1600     1650     1300     1700   
                                           T        V       H0       H01     AOSYM     SMH    MOLCAS    ERIS     OPER   

 PROGRAMS   *        TOTAL       INT
 CPU TIMES  *         0.84      0.69
 REAL TIME  *         3.46 SEC
 DISK USED  *        42.19 MB      
 **********************************************************************************************************************************

 Density functional group D=DIRAC
 Functional: DIRAC(Automatically generated (new) DIRAC)                        Gradient terms: 0
 Use grid at  1800.2

 Functional: DIRAC                     Factor:  1.0000

 Generated new metagrid on record  1800.2 with target accuracy 1.0D-06 and 66012 points in CPU time    2.0
 Computed new grid on record 1800.1 in CPU time    2.3
   22104 words reserved for DFT integration

 PROGRAM * RKS-SCF (Restricted closed shell Kohn-Sham)     Authors: W. Meyer, H.-J. Werner, P.J. Knowles, 1993

 NUMBER OF ELECTRONS:      25+   25-    SPACE SYMMETRY=1    SPIN SYMMETRY: Singlet 
 CONVERGENCE THRESHOLDS:    1.00E-05 (Density)    1.00E-06 (Energy)
 MAX. NUMBER OF ITERATIONS:       60
 INTERPOLATION TYPE:            DIIS
 INTERPOLATION STEPS:              2 (START)      1 (STEP)
 LEVEL SHIFTS:                  0.00 (CLOSED)  0.00 (OPEN) 



 Use fine grid record 1800.2 for energy threshold  1.0D-06
 Orbital guess generated from atomic densities. Full valence occupancy:   25

 Molecular orbital dump at record        2100.2

 Initial occupancy:  25

 ITERATION    DDIFF          GRAD             ENERGY        2-EL.EN.            DIPOLE MOMENTS         DIIS   ORB.
    1      0.000D+00      0.000D+00      -263.50923409    825.418845   -0.86723    0.00000    0.82163    0    start
    2      0.000D+00      0.282D-01      -263.43340492    782.612106    0.18244   -0.00000   -1.03965    1    diag
    3      0.103D+00      0.307D-01      -263.96536899    803.902240   -0.41197    0.00000    0.39084    2    diag
    4      0.561D-01      0.347D-02      -263.97022668    803.979415   -0.26614    0.00000    0.16823    3    diag
    5      0.764D-02      0.159D-02      -263.97140663    803.949404   -0.33966    0.00000    0.19748    4    diag
    6      0.252D-02      0.267D-03      -263.97144502    803.930980   -0.32443    0.00000    0.20303    5    diag
    7      0.529D-03      0.532D-04      -263.97144656    803.932938   -0.32660    0.00000    0.20653    6    diag
    8      0.960D-04      0.730D-05      -263.97144658    803.933748   -0.32665    0.00000    0.20630    7    diag
    9      0.158D-04      0.264D-05      -263.97144659    803.933608   -0.32658    0.00000    0.20617    8    diag
   10      0.462D-05      0.250D-06      -263.97144659    803.933756   -0.32661    0.00000    0.20622    0    orth

 Final occupancy:  25

 !RKS STATE 1.1 Energy               -263.971446586141
 Nuclear energy                       270.15500869
 One-electron energy                 -901.44308169
 Two-electron energy                  401.96687784
 Density functional                   -34.65025142     DIRAC=-34.65025142
 Virial quotient                       -0.99686492
 !RKS STATE 1.1 Dipole moment          -0.32661102     0.00000000     0.20621707
 Dipole moment /Debye                  -0.83010803     0.00000000     0.52411719

 Orbital energies:

         1.1          2.1          3.1          4.1          5.1          6.1          7.1          8.1          9.1         10.1
    -18.226535    -9.555213    -9.527943    -9.488404    -9.486935    -9.486825    -0.796389    -0.609298    -0.518873    -0.515374

        11.1         12.1         13.1         14.1         15.1         16.1         17.1         18.1         19.1         20.1
     -0.491764    -0.375268    -0.323043    -0.299702    -0.295027    -0.275891    -0.255948    -0.240495    -0.229802    -0.215356

        21.1         22.1         23.1         24.1         25.1         26.1         27.1
     -0.214449    -0.185484    -0.181908    -0.063711     0.004804     0.297347     0.377992

 HOMO     25.1     0.004804 =       0.1307eV
 LUMO     26.1     0.297347 =       8.0912eV
 LUMO-HOMO         0.292543 =       7.9605eV


 **********************************************************************************************************************************
 DATASETS  * FILE   NREC   LENGTH (MB)   RECORD NAMES
              1      20       34.09       500      610      700      900      950      970     1000      129      960     1100   
                                          VAR    BASINP    GEOM    SYMINP    ZMAT    AOBASIS   BASIS     P2S    ABASIS      S 
                                         1400     1410     1200     1210     1080     1600     1650     1300     1700     1800   
                                           T        V       H0       H01     AOSYM     SMH    MOLCAS    ERIS     OPER     GRID   

              2       5        3.09       700     1000      520     1800     2100   
                                         GEOM     BASIS   MCVARS    GRID      RKS  

 PROGRAMS   *        TOTAL        KS       INT
 CPU TIMES  *         5.80      4.95      0.69
 REAL TIME  *         9.93 SEC
 DISK USED  *        42.19 MB      
 **********************************************************************************************************************************


 PROGRAM * Intrinsic Basis Bonding Analysis (IBBA)          Author: G. Knizia

 Molecular orbitals read from record     2100.2  Type=RKS/CANONICAL (state 1.1)
 Fock matrix read from record            2100.2  Type=RKS/TOTAL (state 1.1)
 Orbital energies read from record       2100.2  Type=RKS/CANONICAL (state 1.1)
 Density matrix read from record         2100.2  Type=RKS/CHARGE (state 1.1)

 Number of core orbitals:           6 (   6 )
 Number of closed-shell orbitals:  19 (  19 )

 Basis set MINAO-AUTO-PP generated.      Number of basis functions:   42 

 Polarized AO type:                A = (O Ot + (1-O)(1-Ot)) P12
 Orthogonalization method:         Symmetric (Loewdin)
 Localization functional:          L = sum[A,i] <i|n_A|i>^4 -> max

 Localization group 1:  25 orbitals, occupancy  2.000
 Iterative localization: IB/PM,    7 iter; Final gradient 0.32E-08

 Bond order analysis:       [THRPRINT= 0.020]

   CEN ATOM   CEN ATOM     WIBERG.BO      RENORM.BO
     1   C  -   2   C       0.988451       0.985602
     1   C  -   5   H       0.961896       0.989332
     1   C  -   6   H       0.959044       0.986483
     1   C  -   7   H       0.959044       0.986483

     2   C  -   1   C       0.988451       0.985602
     2   C  -   3   O       0.983651       0.956949
     2   C  -  12   C       0.983527       0.956687
     2   C  -  11   C       0.983527       0.956687

     3   O  -   4   C       1.028697       1.015574
     3   O  -   2   C       0.983651       0.956949
     3   O  -   9   H       0.034187       0.020520
     3   O  -  10   H       0.034187       0.020520
     3   O  -  12   C       0.029553       0.015697
     3   O  -  11   C       0.029553       0.015697

     4   C  -   3   O       1.028697       1.015574
     4   C  -   8   H       0.949160       0.972152
     4   C  -   9   H       0.946339       0.938095
     4   C  -  10   H       0.946339       0.938095

     5   H  -   1   C       0.961896       0.989332

     6   H  -   1   C       0.959044       0.986483

     7   H  -   1   C       0.959044       0.986483

     8   H  -   4   C       0.949160       0.972152

     9   H  -   4   C       0.946339       0.938095
     9   H  -   3   O       0.034187       0.020520

    10   H  -   4   C       0.946339       0.938095
    10   H  -   3   O       0.034187       0.020520

    11   C  -   2   C       0.983527       0.956687
    11   C  -  17   H       0.960867       0.984929
    11   C  -  13   H       0.959709       0.986252
    11   C  -  15   H       0.959354       0.988844
    11   C  -   3   O       0.029553       0.015697

    12   C  -   2   C       0.983527       0.956687
    12   C  -  18   H       0.960867       0.984929
    12   C  -  14   H       0.959709       0.986252
    12   C  -  16   H       0.959354       0.988844
    12   C  -   3   O       0.029553       0.015697

    13   H  -  11   C       0.959709       0.986252

    14   H  -  12   C       0.959709       0.986252

    15   H  -  11   C       0.959354       0.988844

    16   H  -  12   C       0.959354       0.988844

    17   H  -  11   C       0.960867       0.984929

    18   H  -  12   C       0.960867       0.984929


 Valency analysis:

   CEN ATOM   TOT.VALENCE
     1   C       3.923243
     2   C       3.972427
     3   O       2.202711
     4   C       3.894853
     5   H       0.980533
     6   H       0.978879
     7   H       0.978879
     8   H       0.977944
     9   H       0.986134
    10   H       0.986134
    11   C       3.924794
    12   C       3.924794
    13   H       0.979683
    14   H       0.979683
    15   H       0.979626
    16   H       0.979626
    17   H       0.981579
    18   H       0.981579

 Total charge composition:

   CEN ATOM         s          p       ELECTRONS ->P.CHARGE
     1   C       2.99211    3.42365      6.41577   -0.41577
     2   C       2.94004    2.95300      5.89304    0.10696
     3   O       3.65168    4.54033      8.19201   -0.19201
     4   C       2.99987    3.29765      6.29752   -0.29752
     5   H       0.86047                 0.86047    0.13953
     6   H       0.85467                 0.85467    0.14533
     7   H       0.85467                 0.85467    0.14533
     8   H       0.85149                 0.85149    0.14851
     9   H       0.88224                 0.88224    0.11776
    10   H       0.88224                 0.88224    0.11776
    11   C       2.99246    3.43648      6.42894   -0.42894
    12   C       2.99246    3.43648      6.42894   -0.42894
    13   H       0.85746                 0.85746    0.14254
    14   H       0.85746                 0.85746    0.14254
    15   H       0.85726                 0.85726    0.14274
    16   H       0.85726                 0.85726    0.14274
    17   H       0.86427                 0.86427    0.13573
    18   H       0.86427                 0.86427    0.13573

 Total charge composition, AO contributions:

   CEN ATOM SHL      SPHERICAL COMPONENTS
     1   C  1s       1.99293
     1   C  2s       0.99918
     1   C  2p       1.18050    1.18847    1.05469

     2   C  1s       1.99425
     2   C  2s       0.94579
     2   C  2p       0.87799    1.03898    1.03603

     3   O  1s       1.99767
     3   O  2s       1.65401
     3   O  2p       1.31068    1.89953    1.33012

     4   C  1s       1.99340
     4   C  2s       1.00646
     4   C  2p       1.17949    1.19124    0.92692

     5   H  1s       0.86047

     6   H  1s       0.85467

     7   H  1s       0.85467

     8   H  1s       0.85149

     9   H  1s       0.88224

    10   H  1s       0.88224

    11   C  1s       1.99299
    11   C  2s       0.99948
    11   C  2p       1.16161    1.10769    1.16718

    12   C  1s       1.99299
    12   C  2s       0.99948
    12   C  2p       1.16161    1.10769    1.16718

    13   H  1s       0.85746

    14   H  1s       0.85746

    15   H  1s       0.85726

    16   H  1s       0.85726

    17   H  1s       0.86427

    18   H  1s       0.86427

 Summary of localized orbital composition:   [THRPRINT= 0.020]

   ORB  GRP  ORB.ENERGY      CENTERS/CHARGES
     1   1   -18.077763      O  3   2.000
     2   1    -9.466788      C  2   2.000
     3   1    -9.425411      C  4   2.000
     4   1    -9.381531      C  1   2.000
     5   1    -9.380706      C 11   2.000
     6   1    -9.380706      C 12   2.000
     7   1    -0.530924      O  3   1.154   C  4   0.836
     8   1    -0.496256      O  3   1.162   C  2   0.813   (other: 0.026)
     9   1    -0.400942      C  2   0.995   C  1   0.980   (other: 0.025)
    10   1    -0.399828      C 11   0.993   C  2   0.991
    11   1    -0.399828      C 12   0.993   C  2   0.991
    12   1    -0.359252      C  4   1.149   H  8   0.841
    13   1    -0.357966      C  4   1.137   H 10   0.861
    14   1    -0.357966      C  4   1.137   H  9   0.861
    15   1    -0.344634      C  1   1.135   H  5   0.853
    16   1    -0.344306      C 11   1.134   H 17   0.856
    17   1    -0.344306      C 12   1.134   H 18   0.856
    18   1    -0.343964      C 12   1.138   H 16   0.849
    19   1    -0.343964      C 11   1.138   H 15   0.849
    20   1    -0.340447      C 12   1.140   H 14   0.850
    21   1    -0.340447      C 11   1.140   H 13   0.850
    22   1    -0.337964      C  1   1.143   H  6   0.847
    23   1    -0.337964      C  1   1.143   H  7   0.847
    24   1    -0.333374      O  3   1.965   (other: 0.035)
    25   1    -0.027595      O  3   1.899   C  2   0.024   (other: 0.077)

 Localized orbitals saved to record      2100.2  (orbital set 2)


 **********************************************************************************************************************************
 DATASETS  * FILE   NREC   LENGTH (MB)   RECORD NAMES
              1      20       34.09       500      610      700      900      950      970     1000      129      960     1100   
                                          VAR    BASINP    GEOM    SYMINP    ZMAT    AOBASIS   BASIS     P2S    ABASIS      S 
                                         1400     1410     1200     1210     1080     1600     1650     1300     1700     1800   
                                           T        V       H0       H01     AOSYM     SMH    MOLCAS    ERIS     OPER     GRID   

              2       5        3.11       700     1000      520     1800     2100   
                                         GEOM     BASIS   MCVARS    GRID      RKS  

 PROGRAMS   *        TOTAL      IBBA        KS       INT
 CPU TIMES  *         5.84      0.04      4.95      0.69
 REAL TIME  *        10.13 SEC
 DISK USED  *        42.19 MB      
 **********************************************************************************************************************************
 Molecular orbitals read from record     2100.2  Type=RKS/LOCAL(IBO)  
 Occupation numbers read from record     2100.2  Type=RKS/LOCAL(IBO)  
 Orbital energies read from record       2100.2  Type=RKS/LOCAL(IBO)  
 Redundancy group numbers read from rec  2100.2  Type=RKS/LOCAL(IBO)  

 IBBA/STO-3G energy=      0.000000000000

        KS-SCF  
   -263.97144659
 **********************************************************************************************************************************
 Molpro calculation terminated
