
 Primary working directories    : /tmp/sb13343
 Secondary working directories  : /tmp/sb13343
 Wavefunction directory         : /panfs/panasas01/chem/sb13343/wfu/
 Main file repository           : /tmp/sb13343/

 SHA1      : b4a5b34a9e711420743f49e6833241d17c61fb3c
 NAME      : 2099.9.b4a5b34
 ARCHNAME  : linux/x86_64_openmp
 FC        : /cm/shared/languages/GCC-6.1/bin/gfortran
 BLASLIB   : -lblas
 id        : simonbennie

 Nodes     nprocs
 node32-002    1

 Using customized tuning parameters: mindgm=1; mindgv=20; mindgc=4; mindgr=1; noblas=0; minvec=7
 default implementation of scratch files=df  

 memory,500,m
 geomtyp=xyz
 nosym
 noorient
 geometry={
 C         -1.53233        0.02247        0.00000
 C         -0.00192        0.01421        0.00000
 O          0.37239        1.40356        0.00000
 H          1.34248        1.44036        0.00000
 H         -1.92991       -0.99819        0.00000
 H         -1.90797        0.54382       -0.88653
 H         -1.90797        0.54382        0.88653
 C          0.54303       -0.66466       -1.26580
 C          0.54303       -0.66466        1.26580
 H          0.17836       -0.14752       -2.15943
 H          0.17836       -0.14752        2.15943
 H          0.23752       -1.71600       -1.32280
 H          0.23752       -1.71600        1.32280
 H          1.64084       -0.63767       -1.28032
 H          1.64084       -0.63767        1.28032
 }
 basis={ default,sto-3g }
 {ks,B88X,direct;wf,42,1,0}
 {ibba,bonds=1}

 Variables initialized (895), CPU time= 0.00 sec
 Commands  initialized (725), CPU time= 0.02 sec, 591 directives.
 Default parameters read. Elapsed time= 0.14 sec

 Checking input...
 Passed
1


                                         ***  PROGRAM SYSTEM MOLPRO  ***
                                       Copyright, TTI GmbH Stuttgart, 2015
                                    Version 2099.9 linked May 26 2017 16:03:21


 **********************************************************************************************************************************
 LABEL *                                                                                 
  64 bit serial version                                                                  DATE: 09-Jun-17          TIME: 03:17:35  
 **********************************************************************************************************************************

 SHA1:             b4a5b34a9e711420743f49e6833241d17c61fb3c
 **********************************************************************************************************************************
 SETTING GEOMTYP        =    XYZ

 Variable memory set to  500000000 words,  buffer space 

 ZSYMEL=NOSYM

 SETTING BASIS          =    STO-3G


 Recomputing integrals since basis changed


 Using spherical harmonics

 Library entry C      S STO-3G               selected for orbital group  1
 Library entry C      P STO-3G               selected for orbital group  1
 Library entry O      S STO-3G               selected for orbital group  2
 Library entry O      P STO-3G               selected for orbital group  2
 Library entry H      S STO-3G               selected for orbital group  3


 PROGRAM * SEWARD (Integral evaluation for generally contracted gaussian basis sets)     Author: Roland Lindh, 1990

 Geometry written to block  1 of record 700


 Point group  C1  



 ATOMIC COORDINATES

 NR  ATOM    CHARGE       X              Y              Z

   1  C       6.00   -2.895684032    0.042462146    0.000000000
   2  C       6.00   -0.003628274    0.026853008    0.000000000
   3  O       8.00    0.703715112    2.652343999    0.000000000
   4  H       1.00    2.536919528    2.721885921    0.000000000
   5  H       1.00   -3.647001345   -1.886305720    0.000000000
   6  H       1.00   -3.605540754    1.027670861   -1.675298901
   7  H       1.00   -3.605540754    1.027670861    1.675298901
   8  C       6.00    1.026177977   -1.256025366   -2.392015328
   9  C       6.00    1.026177977   -1.256025366    2.392015328
  10  H       1.00    0.337051552   -0.278772398   -4.080731285
  11  H       1.00    0.337051552   -0.278772398    4.080731285
  12  H       1.00    0.448847749   -3.242770030   -2.499729718
  13  H       1.00    0.448847749   -3.242770030    2.499729718
  14  H       1.00    3.100738214   -1.205021658   -2.419454152
  15  H       1.00    3.100738214   -1.205021658    2.419454152

 Bond lengths in Bohr (Angstrom)

 1-2  2.892097881  1-5  2.069933136  1-6  2.069096224  1-7  2.069096224  2-3  2.719106031
     ( 1.530432290)     ( 1.095361444)     ( 1.094918569)     ( 1.094918569)     ( 1.438888946)

  2- 8  2.903104402   2- 9  2.903104402   3- 4  1.834522965   8-10  2.069222119   8-12  2.071730422
       ( 1.536256691)       ( 1.536256691)       ( 0.970787746)       ( 1.094985190)       ( 1.096312526)

  8-14  2.075368508   9-11  2.069222119   9-13  2.071730422   9-15  2.075368508
       ( 1.098237719)       ( 1.094985190)       ( 1.096312526)       ( 1.098237719)

 Bond angles

  1-2-3  104.76902697   1-2-8  110.92255387   1-2-9  110.92255387   2-1-5  110.97328220

  2- 1- 6  110.22090701   2- 1- 7  110.22090701   2- 3- 4  107.25071562   2- 8-10  110.21836376

  2- 8-12  111.57747468   2- 8-14  110.77023896   2- 9-11  110.21836376   2- 9-13  111.57747468

  2- 9-15  110.77023896   3- 2- 8  109.53648747   3- 2- 9  109.53648747   5- 1- 6  108.61190457

  5- 1- 7  108.61190457   6- 1- 7  108.12870271   8- 2- 9  110.96453384  10- 8-12  108.52192632

 10- 8-14  108.08997829  11- 9-13  108.52192632  11- 9-15  108.08997829  12- 8-14  107.54424578

 13- 9-15  107.54424578

 NUCLEAR CHARGE:                   42
 NUMBER OF PRIMITIVE AOS:         105
 NUMBER OF SYMMETRY AOS:          105
 NUMBER OF CONTRACTIONS:           35   (  35A   )
 NUMBER OF CORE ORBITALS:           5   (   5A   )
 NUMBER OF VALENCE ORBITALS:       30   (  30A   )


 NUCLEAR REPULSION ENERGY  198.77359127


 Eigenvalues of metric

         1 0.207E+00 0.227E+00 0.228E+00 0.304E+00 0.354E+00 0.360E+00 0.361E+00 0.363E+00


 Contracted 2-electron integrals neglected if value below      1.0D-11
 AO integral compression algorithm  1   Integral accuracy      1.0D-11

     1.573 MB (compressed) written to integral file ( 87.8%)


 NUMBER OF SORTED TWO-ELECTRON INTEGRALS:     198765.     BUFFER LENGTH:  32768
 NUMBER OF SEGMENTS:   1  SEGMENT LENGTH:     198765      RECORD LENGTH: 524288

 Memory used in sort:       0.76 MW

 SORT1 READ      224962. AND WROTE      188577. INTEGRALS IN      1 RECORDS. CPU TIME:     0.00 SEC, REAL TIME:     0.01 SEC
 SORT2 READ      188577. AND WROTE      198765. INTEGRALS IN      6 RECORDS. CPU TIME:     0.02 SEC, REAL TIME:     0.04 SEC

 FILE SIZES:   FILE 1:    31.8 MBYTE,  FILE 4:     4.2 MBYTE,   TOTAL:     36.0 MBYTE

 OPERATOR DM      FOR CENTER  0  COORDINATES:    0.000000    0.000000    0.000000


 **********************************************************************************************************************************
 DATASETS  * FILE   NREC   LENGTH (MB)   RECORD NAMES
              1      19       31.10       500      610      700      900      950      970     1000      129      960     1100   
                                          VAR    BASINP    GEOM    SYMINP    ZMAT    AOBASIS   BASIS     P2S    ABASIS      S 
                                         1400     1410     1200     1210     1080     1600     1650     1300     1700   
                                           T        V       H0       H01     AOSYM     SMH    MOLCAS    ERIS     OPER   

 PROGRAMS   *        TOTAL       INT
 CPU TIMES  *         0.63      0.49
 REAL TIME  *         2.76 SEC
 DISK USED  *        36.55 MB      
 **********************************************************************************************************************************

 Density functional group B88X=B88
 Functional: B88(Automatically generated (new) B88)                            Gradient terms: 1
 Use grid at  1800.2

 Functional: B88                       Factor:  1.0000

 Generated new metagrid on record  1800.2 with target accuracy 1.0D-06 and 53396 points in CPU time    1.6
 Computed new grid on record 1800.1 in CPU time    1.8
   32369 words reserved for DFT integration

 PROGRAM * RKS-SCF (Restricted closed shell Kohn-Sham)     Authors: W. Meyer, H.-J. Werner, P.J. Knowles, 1993

 NUMBER OF ELECTRONS:      21+   21-    SPACE SYMMETRY=1    SPIN SYMMETRY: Singlet 
 CONVERGENCE THRESHOLDS:    1.00E-05 (Density)    1.00E-06 (Energy)
 MAX. NUMBER OF ITERATIONS:       60
 INTERPOLATION TYPE:            DIIS
 INTERPOLATION STEPS:              2 (START)      1 (STEP)
 LEVEL SHIFTS:                  0.00 (CLOSED)  0.00 (OPEN) 



 Use fine grid record 1800.2 for energy threshold  1.0D-06
 Orbital guess generated from atomic densities. Full valence occupancy:   21

 Molecular orbital dump at record        2100.2

 Initial occupancy:  21

 ITERATION    DDIFF          GRAD             ENERGY        2-EL.EN.            DIPOLE MOMENTS         DIIS   ORB.
    1      0.000D+00      0.000D+00      -228.86974379    638.847601    0.75672   -1.01293    0.00000    0    start
    2      0.000D+00      0.283D-01      -228.88185461    608.488666   -0.32965    0.25581    0.00000    1    diag
    3      0.101D+00      0.278D-01      -229.19575812    623.025870    0.35783   -0.30140    0.00000    2    diag
    4      0.524D-01      0.115D-02      -229.19617863    623.015182    0.30270   -0.34218    0.00000    3    diag
    5      0.292D-02      0.578D-03      -229.19629693    622.956576    0.30128   -0.33347    0.00000    4    diag
    6      0.103D-02      0.702D-04      -229.19629879    622.954357    0.30526   -0.32930    0.00000    5    diag
    7      0.180D-03      0.323D-04      -229.19629916    622.953771    0.30546   -0.33097    0.00000    6    diag
    8      0.550D-04      0.350D-05      -229.19629917    622.953645    0.30514   -0.33085    0.00000    7    diag
    9      0.775D-05      0.831D-06      -229.19629917    622.953686    0.30521   -0.33090    0.00000    0    orth

 Final occupancy:  21

 !RKS STATE 1.1 Energy               -229.196299167892
 Nuclear energy                       198.77359127
 One-electron energy                 -706.86121821
 Two-electron energy                  311.47684291
 Density functional                   -32.58551513     B88=-32.58551513
 Virial quotient                       -1.00955563
 !RKS STATE 1.1 Dipole moment           0.30520628    -0.33089919     0.00000000
 Dipole moment /Debye                   0.77570618    -0.84100677     0.00000000

 Orbital energies:

         1.1          2.1          3.1          4.1          5.1          6.1          7.1          8.1          9.1         10.1
    -18.457357    -9.757827    -9.701978    -9.701279    -9.701194    -0.811983    -0.625315    -0.545048    -0.544351    -0.416222

        11.1         12.1         13.1         14.1         15.1         16.1         17.1         18.1         19.1         20.1
     -0.342685    -0.316276    -0.315647    -0.276194    -0.271754    -0.248446    -0.248239    -0.216454    -0.212824    -0.110178

        21.1         22.1         23.1
     -0.025195     0.291581     0.349897

 HOMO     21.1    -0.025195 =      -0.6856eV
 LUMO     22.1     0.291581 =       7.9343eV
 LUMO-HOMO         0.316776 =       8.6199eV


 **********************************************************************************************************************************
 DATASETS  * FILE   NREC   LENGTH (MB)   RECORD NAMES
              1      20       32.81       500      610      700      900      950      970     1000      129      960     1100   
                                          VAR    BASINP    GEOM    SYMINP    ZMAT    AOBASIS   BASIS     P2S    ABASIS      S 
                                         1400     1410     1200     1210     1080     1600     1650     1300     1700     1800   
                                           T        V       H0       H01     AOSYM     SMH    MOLCAS    ERIS     OPER     GRID   

              2       5        3.02       700     1000      520     1800     2100   
                                         GEOM     BASIS   MCVARS    GRID      RKS  

 PROGRAMS   *        TOTAL        KS       INT
 CPU TIMES  *         4.90      4.27      0.49
 REAL TIME  *         9.50 SEC
 DISK USED  *        36.55 MB      
 **********************************************************************************************************************************


 PROGRAM * Intrinsic Basis Bonding Analysis (IBBA)          Author: G. Knizia

 Molecular orbitals read from record     2100.2  Type=RKS/CANONICAL (state 1.1)
 Fock matrix read from record            2100.2  Type=RKS/TOTAL (state 1.1)
 Orbital energies read from record       2100.2  Type=RKS/CANONICAL (state 1.1)
 Density matrix read from record         2100.2  Type=RKS/CHARGE (state 1.1)

 Number of core orbitals:           5 (   5 )
 Number of closed-shell orbitals:  16 (  16 )

 Basis set MINAO-AUTO-PP generated.      Number of basis functions:   35 

 Polarized AO type:                A = (O Ot + (1-O)(1-Ot)) P12
 Orthogonalization method:         Symmetric (Loewdin)
 Localization functional:          L = sum[A,i] <i|n_A|i>^4 -> max

 Localization group 1:  21 orbitals, occupancy  2.000
 Iterative localization: IB/PM,    7 iter; Final gradient 0.12E-08

 Bond order analysis:       [THRPRINT= 0.020]

   CEN ATOM   CEN ATOM     WIBERG.BO      RENORM.BO
     1   C  -   2   C       0.989885       0.985471
     1   C  -   5   H       0.969023       0.989561
     1   C  -   6   H       0.965794       0.986575
     1   C  -   7   H       0.965794       0.986575

     2   C  -   3   O       1.005534       0.983670
     2   C  -   1   C       0.989885       0.985471
     2   C  -   8   C       0.984900       0.958671
     2   C  -   9   C       0.984900       0.958671

     3   O  -   2   C       1.005534       0.983670
     3   O  -   4   H       0.934656       0.980932
     3   O  -   9   C       0.029972       0.015496
     3   O  -   8   C       0.029972       0.015496

     4   H  -   3   O       0.934656       0.980932

     5   H  -   1   C       0.969023       0.989561

     6   H  -   1   C       0.965794       0.986575

     7   H  -   1   C       0.965794       0.986575

     8   C  -   2   C       0.984900       0.958671
     8   C  -  14   H       0.968308       0.985805
     8   C  -  12   H       0.966801       0.986528
     8   C  -  10   H       0.966658       0.986270
     8   C  -   3   O       0.029972       0.015496

     9   C  -   2   C       0.984900       0.958671
     9   C  -  15   H       0.968308       0.985805
     9   C  -  13   H       0.966801       0.986528
     9   C  -  11   H       0.966658       0.986270
     9   C  -   3   O       0.029972       0.015496

    10   H  -   8   C       0.966658       0.986270

    11   H  -   9   C       0.966658       0.986270

    12   H  -   8   C       0.966801       0.986528

    13   H  -   9   C       0.966801       0.986528

    14   H  -   8   C       0.968308       0.985805

    15   H  -   9   C       0.968308       0.985805


 Valency analysis:

   CEN ATOM   TOT.VALENCE
     1   C       3.941892
     2   C       3.974360
     3   O       2.052767
     4   H       0.952999
     5   H       0.985332
     6   H       0.983974
     7   H       0.983974
     8   C       3.944536
     9   C       3.944536
    10   H       0.984589
    11   H       0.984589
    12   H       0.985073
    13   H       0.985073
    14   H       0.986697
    15   H       0.986697

 Total charge composition:

   CEN ATOM         s          p       ELECTRONS ->P.CHARGE
     1   C       2.99464    3.37040      6.36505   -0.36505
     2   C       2.94580    2.93245      5.87825    0.12175
     3   O       3.68679    4.62814      8.31493   -0.31493
     4   H       0.78320                 0.78320    0.21680
     5   H       0.87889                 0.87889    0.12111
     6   H       0.87341                 0.87341    0.12659
     7   H       0.87341                 0.87341    0.12659
     8   C       2.99994    3.37814      6.37809   -0.37809
     9   C       2.99994    3.37814      6.37809   -0.37809
    10   H       0.87586                 0.87586    0.12414
    11   H       0.87586                 0.87586    0.12414
    12   H       0.87782                 0.87782    0.12218
    13   H       0.87782                 0.87782    0.12218
    14   H       0.88466                 0.88466    0.11534
    15   H       0.88466                 0.88466    0.11534

 Total charge composition, AO contributions:

   CEN ATOM SHL      SPHERICAL COMPONENTS
     1   C  1s       1.99206
     1   C  2s       1.00258
     1   C  2p       1.04901    1.15698    1.16441

     2   C  1s       1.99344
     2   C  2s       0.95236
     2   C  2p       1.02842    0.87752    1.02650

     3   O  1s       1.99738
     3   O  2s       1.68941
     3   O  2p       1.33602    1.34147    1.95065

     4   H  1s       0.78320

     5   H  1s       0.87889

     6   H  1s       0.87341

     7   H  1s       0.87341

     8   C  1s       1.99216
     8   C  2s       1.00778
     8   C  2p       1.14023    1.14126    1.09666

     9   C  1s       1.99216
     9   C  2s       1.00778
     9   C  2p       1.14023    1.14126    1.09666

    10   H  1s       0.87586

    11   H  1s       0.87586

    12   H  1s       0.87782

    13   H  1s       0.87782

    14   H  1s       0.88466

    15   H  1s       0.88466

 Summary of localized orbital composition:   [THRPRINT= 0.020]

   ORB  GRP  ORB.ENERGY      CENTERS/CHARGES
     1   1   -18.288395      O  3   2.000
     2   1    -9.666811      C  2   2.000
     3   1    -9.592800      C  8   2.000
     4   1    -9.592800      C  9   2.000
     5   1    -9.592674      C  1   2.000
     6   1    -0.547352      O  3   1.215   H  4   0.775
     7   1    -0.503551      O  3   1.158   C  2   0.825
     8   1    -0.425396      C  2   0.992   C  1   0.985   (other: 0.023)
     9   1    -0.424312      C  8   1.000   C  2   0.986
    10   1    -0.424312      C  9   1.000   C  2   0.986
    11   1    -0.385980      O  3   1.985
    12   1    -0.376532      C  9   1.113   H 15   0.878
    13   1    -0.376532      C  8   1.113   H 14   0.878
    14   1    -0.375121      C  9   1.120   H 13   0.870
    15   1    -0.375121      C  8   1.120   H 12   0.870
    16   1    -0.374182      C  1   1.118   H  5   0.872
    17   1    -0.372570      C  9   1.122   H 11   0.869
    18   1    -0.372570      C  8   1.122   H 10   0.869
    19   1    -0.368768      C  1   1.124   H  6   0.867
    20   1    -0.368768      C  1   1.124   H  7   0.867
    21   1    -0.041900      O  3   1.951   C  2   0.023   (other: 0.026)

 Localized orbitals saved to record      2100.2  (orbital set 2)


 **********************************************************************************************************************************
 DATASETS  * FILE   NREC   LENGTH (MB)   RECORD NAMES
              1      20       32.81       500      610      700      900      950      970     1000      129      960     1100   
                                          VAR    BASINP    GEOM    SYMINP    ZMAT    AOBASIS   BASIS     P2S    ABASIS      S 
                                         1400     1410     1200     1210     1080     1600     1650     1300     1700     1800   
                                           T        V       H0       H01     AOSYM     SMH    MOLCAS    ERIS     OPER     GRID   

              2       5        3.03       700     1000      520     1800     2100   
                                         GEOM     BASIS   MCVARS    GRID      RKS  

 PROGRAMS   *        TOTAL      IBBA        KS       INT
 CPU TIMES  *         4.93      0.03      4.27      0.49
 REAL TIME  *         9.65 SEC
 DISK USED  *        36.55 MB      
 **********************************************************************************************************************************
 Molecular orbitals read from record     2100.2  Type=RKS/LOCAL(IBO)  
 Occupation numbers read from record     2100.2  Type=RKS/LOCAL(IBO)  
 Orbital energies read from record       2100.2  Type=RKS/LOCAL(IBO)  
 Redundancy group numbers read from rec  2100.2  Type=RKS/LOCAL(IBO)  

 IBBA/STO-3G energy=      0.000000000000

        KS-SCF  
   -229.19629917
 **********************************************************************************************************************************
 Molpro calculation terminated
