
 Primary working directories    : /tmp/sb13343
 Secondary working directories  : /tmp/sb13343
 Wavefunction directory         : /panfs/panasas01/chem/sb13343/wfu/
 Main file repository           : /tmp/sb13343/

 SHA1      : b4a5b34a9e711420743f49e6833241d17c61fb3c
 NAME      : 2099.9.b4a5b34
 ARCHNAME  : linux/x86_64_openmp
 FC        : /cm/shared/languages/GCC-6.1/bin/gfortran
 BLASLIB   : -lblas
 id        : simonbennie

 Nodes     nprocs
 node35-048    1

 Using customized tuning parameters: mindgm=1; mindgv=20; mindgc=4; mindgr=1; noblas=0; minvec=7
 default implementation of scratch files=df  

 memory,500,m
 geomtyp=xyz
 nosym
 noorient
 geometry={
 C         -1.53233        0.02247        0.00000
 C         -0.00192        0.01421        0.00000
 O          0.37239        1.40356        0.00000
 H          1.34248        1.44036        0.00000
 H         -1.92991       -0.99819        0.00000
 H         -1.90797        0.54382       -0.88653
 H         -1.90797        0.54382        0.88653
 C          0.54303       -0.66466       -1.26580
 C          0.54303       -0.66466        1.26580
 H          0.17836       -0.14752       -2.15943
 H          0.17836       -0.14752        2.15943
 H          0.23752       -1.71600       -1.32280
 H          0.23752       -1.71600        1.32280
 H          1.64084       -0.63767       -1.28032
 H          1.64084       -0.63767        1.28032
 }
 basis={ default,svp }
 {uks,M06-2X,direct;wf,42,1,0}
 {ibba,bonds=1}

 Variables initialized (895), CPU time= 0.00 sec
 Commands  initialized (725), CPU time= 0.01 sec, 591 directives.
 Default parameters read. Elapsed time= 0.11 sec

 Checking input...
 Passed
1


                                         ***  PROGRAM SYSTEM MOLPRO  ***
                                       Copyright, TTI GmbH Stuttgart, 2015
                                    Version 2099.9 linked May 26 2017 16:03:21


 **********************************************************************************************************************************
 LABEL *                                                                                 
  64 bit serial version                                                                  DATE: 09-Jun-17          TIME: 03:45:36  
 **********************************************************************************************************************************

 SHA1:             b4a5b34a9e711420743f49e6833241d17c61fb3c
 **********************************************************************************************************************************
 SETTING GEOMTYP        =    XYZ

 Variable memory set to  500000000 words,  buffer space 

 ZSYMEL=NOSYM

 SETTING BASIS          =    SVP


 Recomputing integrals since basis changed


 Using spherical harmonics

 Library entry C      S def2-SVP             selected for orbital group  1
 Library entry C      P def2-SVP             selected for orbital group  1
 Library entry C      D def2-SVP             selected for orbital group  1
 Library entry O      S def2-SVP             selected for orbital group  2
 Library entry O      P def2-SVP             selected for orbital group  2
 Library entry O      D def2-SVP             selected for orbital group  2
 Library entry H      S def2-SVP             selected for orbital group  3
 Library entry H      P def2-SVP             selected for orbital group  3


 PROGRAM * SEWARD (Integral evaluation for generally contracted gaussian basis sets)     Author: Roland Lindh, 1990

 Geometry written to block  1 of record 700


 Point group  C1  



 ATOMIC COORDINATES

 NR  ATOM    CHARGE       X              Y              Z

   1  C       6.00   -2.895684032    0.042462146    0.000000000
   2  C       6.00   -0.003628274    0.026853008    0.000000000
   3  O       8.00    0.703715112    2.652343999    0.000000000
   4  H       1.00    2.536919528    2.721885921    0.000000000
   5  H       1.00   -3.647001345   -1.886305720    0.000000000
   6  H       1.00   -3.605540754    1.027670861   -1.675298901
   7  H       1.00   -3.605540754    1.027670861    1.675298901
   8  C       6.00    1.026177977   -1.256025366   -2.392015328
   9  C       6.00    1.026177977   -1.256025366    2.392015328
  10  H       1.00    0.337051552   -0.278772398   -4.080731285
  11  H       1.00    0.337051552   -0.278772398    4.080731285
  12  H       1.00    0.448847749   -3.242770030   -2.499729718
  13  H       1.00    0.448847749   -3.242770030    2.499729718
  14  H       1.00    3.100738214   -1.205021658   -2.419454152
  15  H       1.00    3.100738214   -1.205021658    2.419454152

 Bond lengths in Bohr (Angstrom)

 1-2  2.892097881  1-5  2.069933136  1-6  2.069096224  1-7  2.069096224  2-3  2.719106031
     ( 1.530432290)     ( 1.095361444)     ( 1.094918569)     ( 1.094918569)     ( 1.438888946)

  2- 8  2.903104402   2- 9  2.903104402   3- 4  1.834522965   8-10  2.069222119   8-12  2.071730422
       ( 1.536256691)       ( 1.536256691)       ( 0.970787746)       ( 1.094985190)       ( 1.096312526)

  8-14  2.075368508   9-11  2.069222119   9-13  2.071730422   9-15  2.075368508
       ( 1.098237719)       ( 1.094985190)       ( 1.096312526)       ( 1.098237719)

 Bond angles

  1-2-3  104.76902697   1-2-8  110.92255387   1-2-9  110.92255387   2-1-5  110.97328220

  2- 1- 6  110.22090701   2- 1- 7  110.22090701   2- 3- 4  107.25071562   2- 8-10  110.21836376

  2- 8-12  111.57747468   2- 8-14  110.77023896   2- 9-11  110.21836376   2- 9-13  111.57747468

  2- 9-15  110.77023896   3- 2- 8  109.53648747   3- 2- 9  109.53648747   5- 1- 6  108.61190457

  5- 1- 7  108.61190457   6- 1- 7  108.12870271   8- 2- 9  110.96453384  10- 8-12  108.52192632

 10- 8-14  108.08997829  11- 9-13  108.52192632  11- 9-15  108.08997829  12- 8-14  107.54424578

 13- 9-15  107.54424578

 NUCLEAR CHARGE:                   42
 NUMBER OF PRIMITIVE AOS:         195
 NUMBER OF SYMMETRY AOS:          190
 NUMBER OF CONTRACTIONS:          120   ( 120A   )
 NUMBER OF CORE ORBITALS:           5   (   5A   )
 NUMBER OF VALENCE ORBITALS:       30   (  30A   )


 NUCLEAR REPULSION ENERGY  198.77359127


 Eigenvalues of metric

         1 0.176E-02 0.546E-02 0.548E-02 0.123E-01 0.248E-01 0.256E-01 0.256E-01 0.275E-01


 Contracted 2-electron integrals neglected if value below      1.0D-11
 AO integral compression algorithm  1   Integral accuracy      1.0D-11

     101.974 MB (compressed) written to integral file ( 44.9%)


 NUMBER OF SORTED TWO-ELECTRON INTEGRALS:   26357430.     BUFFER LENGTH:  32768
 NUMBER OF SEGMENTS:   2  SEGMENT LENGTH:   15997996      RECORD LENGTH: 524288

 Memory used in sort:      16.56 MW

 SORT1 READ    28411733. AND WROTE    24096425. INTEGRALS IN     70 RECORDS. CPU TIME:     0.38 SEC, REAL TIME:     0.82 SEC
 SORT2 READ    24096425. AND WROTE    26357430. INTEGRALS IN    389 RECORDS. CPU TIME:     0.59 SEC, REAL TIME:     0.85 SEC

 FILE SIZES:   FILE 1:   132.7 MBYTE,  FILE 4:   293.6 MBYTE,   TOTAL:    426.4 MBYTE

 OPERATOR DM      FOR CENTER  0  COORDINATES:    0.000000    0.000000    0.000000


 **********************************************************************************************************************************
 DATASETS  * FILE   NREC   LENGTH (MB)   RECORD NAMES
              1      19      120.44       500      610      700      900      950      970     1000      129      960     1100   
                                          VAR    BASINP    GEOM    SYMINP    ZMAT    AOBASIS   BASIS     P2S    ABASIS      S 
                                         1400     1410     1200     1210     1080     1600     1650     1300     1700   
                                           T        V       H0       H01     AOSYM     SMH    MOLCAS    ERIS     OPER   

 PROGRAMS   *        TOTAL       INT
 CPU TIMES  *         4.00      3.87
 REAL TIME  *         5.73 SEC
 DISK USED  *       426.89 MB      
 **********************************************************************************************************************************

 Density functional group M06-2X=XC-M06-2X
 Functional: XC-M06-2X(via MFM 1.6)                                            Gradient terms: 1
 Use grid at  1800.2


 Exact exchange will be calculated, factor:  0.5400

 Functional: XC-M06-2X                 Factor:  1.0000

 Generated new metagrid on record  1800.2 with target accuracy 1.0D-06 and 53396 points in CPU time    1.6
 Computed new grid on record 1800.1 in CPU time    1.8
   99539 words reserved for DFT integration

 PROGRAM * UKS-SCF (Unrestricted Kohn-Sham)     Authors: W. Meyer, H.-J. Werner, P.J. Knowles, 1993

 NUMBER OF ELECTRONS:      21+   21-    SPACE SYMMETRY=1    SPIN SYMMETRY: Singlet 
 CONVERGENCE THRESHOLDS:    1.00E-05 (Density)    1.00E-06 (Energy)
 MAX. NUMBER OF ITERATIONS:       60
 INTERPOLATION TYPE:            DIIS
 INTERPOLATION STEPS:              2 (START)      1 (STEP)
 LEVEL SHIFTS:                 -0.20 (ALPHA)  -0.20 (BETA) 



 Use fine grid record 1800.2 for energy threshold  1.0D-06
 Orbital guess generated from atomic densities. Full valence occupancy:   21

 Molecular orbital dump at record        2200.2

 Initial alpha occupation  21
 Initial beta  occupation  21

 ITERATION    DDIFF          GRAD             ENERGY        2-EL.EN.            DIPOLE MOMENTS         DIIS
    1      0.000D+00      0.000D+00      -233.25566928    595.775499    0.70956   -0.85050    0.00000    0
    2      0.757D-02      0.399D-02      -233.36505000    584.561741    0.36204   -0.50365    0.00000    1
    3      0.208D-02      0.142D-02      -233.37587783    586.657607    0.39976   -0.54821    0.00000    2
    4      0.805D-03      0.319D-03      -233.37707827    586.509925    0.38293   -0.50410    0.00000    3
    5      0.599D-03      0.149D-03      -233.37742413    586.442409    0.37466   -0.49951    0.00000    4
    6      0.237D-03      0.318D-04      -233.37744596    586.430082    0.37295   -0.49740    0.00000    5
    7      0.451D-04      0.593D-05      -233.37744674    586.423241    0.37242   -0.49753    0.00000    6
    8      0.746D-05      0.194D-05      -233.37744680    586.425881    0.37243   -0.49755    0.00000    6
    9      0.394D-05      0.788D-06      -233.37744681    586.425620    0.37237   -0.49748    0.00000    6

 Final alpha occupancy:  21
 Final beta  occupancy:  21

 !UKS STATE 1.1 Energy               -233.377446812254
 Nuclear energy                       198.77359127
 One-electron energy                 -709.02071251
 Two-electron energy                  293.21281007
 Density functional                   -16.34313564     XC-M06-2X=-16.34313564
 Virial quotient                       -1.01092709
 !UKS STATE 1.1 Dipole moment           0.37236739    -0.49748150     0.00000000
 Dipole moment /Debye                   0.94640150    -1.26438903     0.00000000

 Orbital energies for positive spin:

         1.1          2.1          3.1          4.1          5.1          6.1          7.1          8.1          9.1         10.1
    -19.614931   -10.602778   -10.542360   -10.542340   -10.536605    -1.112696    -0.873785    -0.772387    -0.771152    -0.639033

        11.1         12.1         13.1         14.1         15.1         16.1         17.1         18.1         19.1         20.1
     -0.556962    -0.519636    -0.517227    -0.476083    -0.461081    -0.439724    -0.426848    -0.416208    -0.409467    -0.376895

        21.1         22.1         23.1
     -0.335764     0.078189     0.130173

 Orbital energies for negative spin:

         1.1          2.1          3.1          4.1          5.1          6.1          7.1          8.1          9.1         10.1
    -19.614931   -10.602778   -10.542360   -10.542340   -10.536605    -1.112696    -0.873785    -0.772387    -0.771152    -0.639033

        11.1         12.1         13.1         14.1         15.1         16.1         17.1         18.1         19.1         20.1
     -0.556962    -0.519636    -0.517227    -0.476083    -0.461081    -0.439724    -0.426848    -0.416208    -0.409467    -0.376895

        21.1         22.1         23.1
     -0.335764     0.078189     0.130173

 HOMO     21.1    -0.335764 =      -9.1366eV
 LUMO     22.1     0.078189 =       2.1276eV
 LUMO-HOMO         0.413953 =      11.2642eV

 EXPECTATION VALUE OF S**2:             0.00000000

 Natural orbitals saved to record    2200.2 (Orbital set 3)

 Orbital spaces for UNO-CAS (Min. occupation: 0.020  Max. occupation: 1.980):

 Closed:       21
 Active:        0


 **********************************************************************************************************************************
 DATASETS  * FILE   NREC   LENGTH (MB)   RECORD NAMES
              1      20      122.15       500      610      700      900      950      970     1000      129      960     1100   
                                          VAR    BASINP    GEOM    SYMINP    ZMAT    AOBASIS   BASIS     P2S    ABASIS      S 
                                         1400     1410     1200     1210     1080     1600     1650     1300     1700     1800   
                                           T        V       H0       H01     AOSYM     SMH    MOLCAS    ERIS     OPER     GRID   

              2       5        3.59       700     1000      520     1800     2200   
                                         GEOM     BASIS   MCVARS    GRID      UKS  

 PROGRAMS   *        TOTAL       UKS       INT
 CPU TIMES  *        59.99     55.99      3.87
 REAL TIME  *        74.02 SEC
 DISK USED  *       426.89 MB      
 **********************************************************************************************************************************


 PROGRAM * Intrinsic Basis Bonding Analysis (IBBA)          Author: G. Knizia

 Molecular orbitals read from record     2200.2  Type=UKS/ALPHA (state 1.1)
 Fock matrix read from record            2200.2  Type=UKS/TOTAL (state 1.1)
 Orbital energies read from record       2200.2  Type=UKS/ALPHA (state 1.1)
 Density matrix read from record         2200.2  Type=UKS/CHARGE (state 1.1)

 Number of core orbitals:           5 (   5 )
 Number of closed-shell orbitals:  16 (  16 )

 Basis set MINAO-AUTO-PP generated.      Number of basis functions:   35 

 Polarized AO type:                A = (O Ot + (1-O)(1-Ot)) P12
 Orthogonalization method:         Symmetric (Loewdin)
 Localization functional:          L = sum[A,i] <i|n_A|i>^4 -> max

 Localization group 1:  21 orbitals, occupancy  2.000
 Iterative localization: IB/PM,    7 iter; Final gradient 0.47E-08

 Bond order analysis:       [THRPRINT= 0.020]

   CEN ATOM   CEN ATOM     WIBERG.BO      RENORM.BO
     1   C  -   2   C       0.994334       0.992155
     1   C  -   5   H       0.966226       0.988225
     1   C  -   6   H       0.961613       0.983659
     1   C  -   7   H       0.961613       0.983659

     2   C  -   1   C       0.994334       0.992155
     2   C  -   9   C       0.993502       0.975932
     2   C  -   8   C       0.993502       0.975932
     2   C  -   3   O       0.940600       0.956380

     3   O  -   2   C       0.940600       0.956380
     3   O  -   4   H       0.873185       0.979208
     3   O  -   9   C       0.025222       0.012981
     3   O  -   8   C       0.025222       0.012981

     4   H  -   3   O       0.873185       0.979208

     5   H  -   1   C       0.966226       0.988225

     6   H  -   1   C       0.961613       0.983659

     7   H  -   1   C       0.961613       0.983659

     8   C  -   2   C       0.993502       0.975932
     8   C  -  14   H       0.965684       0.984121
     8   C  -  12   H       0.962840       0.984764
     8   C  -  10   H       0.961923       0.983491
     8   C  -   3   O       0.025222       0.012981

     9   C  -   2   C       0.993502       0.975932
     9   C  -  15   H       0.965684       0.984121
     9   C  -  13   H       0.962840       0.984764
     9   C  -  11   H       0.961923       0.983491
     9   C  -   3   O       0.025222       0.012981

    10   H  -   8   C       0.961923       0.983491

    11   H  -   9   C       0.961923       0.983491

    12   H  -   8   C       0.962840       0.984764

    13   H  -   9   C       0.962840       0.984764

    14   H  -   8   C       0.965684       0.984121

    15   H  -   9   C       0.965684       0.984121


 Valency analysis:

   CEN ATOM   TOT.VALENCE
     1   C       3.939365
     2   C       3.933526
     3   O       1.923457
     4   H       0.890566
     5   H       0.984136
     6   H       0.981584
     7   H       0.981584
     8   C       3.941744
     9   C       3.941744
    10   H       0.981506
    11   H       0.981506
    12   H       0.983123
    13   H       0.983123
    14   H       0.985603
    15   H       0.985603

 Total charge composition:

   CEN ATOM         s          p       ELECTRONS ->P.CHARGE
     1   C       3.01427    3.37571      6.38998   -0.38998
     2   C       2.91806    2.82974      5.74781    0.25219
     3   O       3.62593    4.92668      8.55261   -0.55261
     4   H       0.66919                 0.66919    0.33081
     5   H       0.87405                 0.87405    0.12595
     6   H       0.86429                 0.86429    0.13571
     7   H       0.86429                 0.86429    0.13571
     8   C       3.01982    3.38496      6.40478   -0.40478
     9   C       3.01982    3.38496      6.40478   -0.40478
    10   H       0.86401                 0.86401    0.13599
    11   H       0.86401                 0.86401    0.13599
    12   H       0.87009                 0.87009    0.12991
    13   H       0.87009                 0.87009    0.12991
    14   H       0.88001                 0.88001    0.11999
    15   H       0.88001                 0.88001    0.11999

 Total charge composition, AO contributions:

   CEN ATOM SHL      SPHERICAL COMPONENTS
     1   C  1s       1.99056
     1   C  2s       1.02371
     1   C  2p       1.04560    1.15930    1.17081

     2   C  1s       1.99226
     2   C  2s       0.92581
     2   C  2p       1.01592    0.79941    1.01441

     3   O  1s       1.99695
     3   O  2s       1.62898
     3   O  2p       1.47276    1.49318    1.96074

     4   H  1s       0.66919

     5   H  1s       0.87405

     6   H  1s       0.86429

     7   H  1s       0.86429

     8   C  1s       1.99066
     8   C  2s       1.02916
     8   C  2p       1.14187    1.14365    1.09943

     9   C  1s       1.99066
     9   C  2s       1.02916
     9   C  2p       1.14187    1.14365    1.09943

    10   H  1s       0.86401

    11   H  1s       0.86401

    12   H  1s       0.87009

    13   H  1s       0.87009

    14   H  1s       0.88001

    15   H  1s       0.88001

 Summary of localized orbital composition:   [THRPRINT= 0.020]

   ORB  GRP  ORB.ENERGY      CENTERS/CHARGES
     1   1   -19.454490      O  3   2.000
     2   1   -10.508457      C  2   2.000
     3   1   -10.425155      C  8   2.000
     4   1   -10.425155      C  9   2.000
     5   1   -10.418557      C  1   2.000
     6   1    -0.841081      O  3   1.332   H  4   0.659
     7   1    -0.804558      O  3   1.273   C  2   0.711
     8   1    -0.645289      C  8   1.009   C  2   0.977
     9   1    -0.645289      C  9   1.009   C  2   0.977
    10   1    -0.644722      C  1   0.989   C  2   0.989   (other: 0.022)
    11   1    -0.639797      O  3   1.983
    12   1    -0.572792      C  9   1.126   H 13   0.862
    13   1    -0.572792      C  8   1.126   H 12   0.862
    14   1    -0.571666      C  9   1.116   H 15   0.873
    15   1    -0.571666      C  8   1.116   H 14   0.873
    16   1    -0.568653      C  1   1.121   H  5   0.867
    17   1    -0.566790      C  8   1.134   H 10   0.856
    18   1    -0.566790      C  9   1.134   H 11   0.856
    19   1    -0.561173      C  1   1.133   H  7   0.857
    20   1    -0.561173      C  1   1.133   H  6   0.857
    21   1    -0.377806      O  3   1.961   (other: 0.039)

 Localized orbitals saved to record      2200.2  (orbital set 4)


 **********************************************************************************************************************************
 DATASETS  * FILE   NREC   LENGTH (MB)   RECORD NAMES
              1      20      122.15       500      610      700      900      950      970     1000      129      960     1100   
                                          VAR    BASINP    GEOM    SYMINP    ZMAT    AOBASIS   BASIS     P2S    ABASIS      S 
                                         1400     1410     1200     1210     1080     1600     1650     1300     1700     1800   
                                           T        V       H0       H01     AOSYM     SMH    MOLCAS    ERIS     OPER     GRID   

              2       5        3.71       700     1000      520     1800     2200   
                                         GEOM     BASIS   MCVARS    GRID      UKS  

 PROGRAMS   *        TOTAL      IBBA       UKS       INT
 CPU TIMES  *        60.03      0.04     55.99      3.87
 REAL TIME  *        74.16 SEC
 DISK USED  *       426.89 MB      
 **********************************************************************************************************************************
 Molecular orbitals read from record     2200.2  Type=UKS/LOCAL(IBO)  
 Occupation numbers read from record     2200.2  Type=UKS/LOCAL(IBO)  
 Orbital energies read from record       2200.2  Type=UKS/LOCAL(IBO)  
 Redundancy group numbers read from rec  2200.2  Type=UKS/BETA (state 1.1)

 IBBA/SVP energy=      0.000000000000

        UKS-SCF 
   -233.37744681
 **********************************************************************************************************************************
 Molpro calculation terminated
