
 Primary working directories    : /local
 Secondary working directories  : /local
 Wavefunction directory         : /local/
 Main file repository           : /local/

 SHA1      : b4a5b34a9e711420743f49e6833241d17c61fb3c
 NAME      : 2099.9.b4a5b34
 ARCHNAME  : linux/x86_64_openmp
 FC        : /cm/shared/languages/GCC-6.1/bin/gfortran
 BLASLIB   : -lblas
 id        : simonbennie

 Nodes     nprocs
 node34-016    1

 Using customized tuning parameters: mindgm=1; mindgv=20; mindgc=4; mindgr=1; noblas=0; minvec=7
 default implementation of scratch files=df  

 memory,500,m
 geomtyp=xyz
 nosym
 noorient
 geometry={
 C         -1.53233        0.02247        0.00000
 C         -0.00192        0.01421        0.00000
 O          0.37239        1.40356        0.00000
 H          1.34248        1.44036        0.00000
 H         -1.92991       -0.99819        0.00000
 H         -1.90797        0.54382       -0.88653
 H         -1.90797        0.54382        0.88653
 C          0.54303       -0.66466       -1.26580
 C          0.54303       -0.66466        1.26580
 H          0.17836       -0.14752       -2.15943
 H          0.17836       -0.14752        2.15943
 H          0.23752       -1.71600       -1.32280
 H          0.23752       -1.71600        1.32280
 H          1.64084       -0.63767       -1.28032
 H          1.64084       -0.63767        1.28032
 }
 basis={ default,tzvp }
 {ks,MM05-2X,direct;wf,42,1,0}
 {ibba,bonds=1}

 Variables initialized (895), CPU time= 0.00 sec
 Commands  initialized (725), CPU time= 0.01 sec, 591 directives.
 Default parameters read. Elapsed time= 0.12 sec

 Checking input...
 Passed
1


                                         ***  PROGRAM SYSTEM MOLPRO  ***
                                       Copyright, TTI GmbH Stuttgart, 2015
                                    Version 2099.9 linked May 26 2017 16:03:21


 **********************************************************************************************************************************
 LABEL *                                                                                 
  64 bit serial version                                                                  DATE: 12-Jun-17          TIME: 19:33:47  
 **********************************************************************************************************************************

 SHA1:             b4a5b34a9e711420743f49e6833241d17c61fb3c
 **********************************************************************************************************************************
 SETTING GEOMTYP        =    XYZ

 Variable memory set to  500000000 words,  buffer space 

 ZSYMEL=NOSYM

 SETTING BASIS          =    TZVP


 Recomputing integrals since basis changed


 Using spherical harmonics

 Library entry C      S def2-TZVP            selected for orbital group  1
 Library entry C      P def2-TZVP            selected for orbital group  1
 Library entry C      D def2-TZVP            selected for orbital group  1
 Library entry C      F def2-TZVP            selected for orbital group  1
 Library entry O      S def2-TZVP            selected for orbital group  2
 Library entry O      P def2-TZVP            selected for orbital group  2
 Library entry O      D def2-TZVP            selected for orbital group  2
 Library entry O      F def2-TZVP            selected for orbital group  2
 Library entry H      S def2-TZVP            selected for orbital group  3
 Library entry H      P def2-TZVP            selected for orbital group  3


 PROGRAM * SEWARD (Integral evaluation for generally contracted gaussian basis sets)     Author: Roland Lindh, 1990

 Geometry written to block  1 of record 700


 Point group  C1  



 ATOMIC COORDINATES

 NR  ATOM    CHARGE       X              Y              Z

   1  C       6.00   -2.895684032    0.042462146    0.000000000
   2  C       6.00   -0.003628274    0.026853008    0.000000000
   3  O       8.00    0.703715112    2.652343999    0.000000000
   4  H       1.00    2.536919528    2.721885921    0.000000000
   5  H       1.00   -3.647001345   -1.886305720    0.000000000
   6  H       1.00   -3.605540754    1.027670861   -1.675298901
   7  H       1.00   -3.605540754    1.027670861    1.675298901
   8  C       6.00    1.026177977   -1.256025366   -2.392015328
   9  C       6.00    1.026177977   -1.256025366    2.392015328
  10  H       1.00    0.337051552   -0.278772398   -4.080731285
  11  H       1.00    0.337051552   -0.278772398    4.080731285
  12  H       1.00    0.448847749   -3.242770030   -2.499729718
  13  H       1.00    0.448847749   -3.242770030    2.499729718
  14  H       1.00    3.100738214   -1.205021658   -2.419454152
  15  H       1.00    3.100738214   -1.205021658    2.419454152

 Bond lengths in Bohr (Angstrom)

 1-2  2.892097881  1-5  2.069933136  1-6  2.069096224  1-7  2.069096224  2-3  2.719106031
     ( 1.530432290)     ( 1.095361444)     ( 1.094918569)     ( 1.094918569)     ( 1.438888946)

  2- 8  2.903104402   2- 9  2.903104402   3- 4  1.834522965   8-10  2.069222119   8-12  2.071730422
       ( 1.536256691)       ( 1.536256691)       ( 0.970787746)       ( 1.094985190)       ( 1.096312526)

  8-14  2.075368508   9-11  2.069222119   9-13  2.071730422   9-15  2.075368508
       ( 1.098237719)       ( 1.094985190)       ( 1.096312526)       ( 1.098237719)

 Bond angles

  1-2-3  104.76902697   1-2-8  110.92255387   1-2-9  110.92255387   2-1-5  110.97328220

  2- 1- 6  110.22090701   2- 1- 7  110.22090701   2- 3- 4  107.25071562   2- 8-10  110.21836376

  2- 8-12  111.57747468   2- 8-14  110.77023896   2- 9-11  110.21836376   2- 9-13  111.57747468

  2- 9-15  110.77023896   3- 2- 8  109.53648747   3- 2- 9  109.53648747   5- 1- 6  108.61190457

  5- 1- 7  108.61190457   6- 1- 7  108.12870271   8- 2- 9  110.96453384  10- 8-12  108.52192632

 10- 8-14  108.08997829  11- 9-13  108.52192632  11- 9-15  108.08997829  12- 8-14  107.54424578

 13- 9-15  107.54424578

 NUCLEAR CHARGE:                   42
 NUMBER OF PRIMITIVE AOS:         335
 NUMBER OF SYMMETRY AOS:          310
 NUMBER OF CONTRACTIONS:          215   ( 215A   )
 NUMBER OF CORE ORBITALS:           5   (   5A   )
 NUMBER OF VALENCE ORBITALS:       30   (  30A   )


 NUCLEAR REPULSION ENERGY  198.77359127


 Eigenvalues of metric

         1 0.262E-03 0.510E-03 0.539E-03 0.594E-03 0.697E-03 0.755E-03 0.210E-02 0.239E-02


 Contracted 2-electron integrals neglected if value below      1.0D-11
 AO integral compression algorithm  1   Integral accuracy      1.0D-11

     977.797 MB (compressed) written to integral file ( 41.7%)


 NUMBER OF SORTED TWO-ELECTRON INTEGRALS:  269595810.     BUFFER LENGTH:  32768
 NUMBER OF SEGMENTS:  17  SEGMENT LENGTH:   15999762      RECORD LENGTH: 524288

 Memory used in sort:      16.56 MW

 SORT1 READ   292827432. AND WROTE   238500613. INTEGRALS IN    690 RECORDS. CPU TIME:     3.46 SEC, REAL TIME:     7.23 SEC
 SORT2 READ   238500613. AND WROTE   269595810. INTEGRALS IN   3730 RECORDS. CPU TIME:     5.71 SEC, REAL TIME:     7.40 SEC

 FILE SIZES:   FILE 1:  1009.7 MBYTE,  FILE 4:  2894.1 MBYTE,   TOTAL:   3903.8 MBYTE

 OPERATOR DM      FOR CENTER  0  COORDINATES:    0.000000    0.000000    0.000000


 **********************************************************************************************************************************
 DATASETS  * FILE   NREC   LENGTH (MB)   RECORD NAMES
              1      19      926.27       500      610      700      900      950      970     1000      129      960     1100   
                                          VAR    BASINP    GEOM    SYMINP    ZMAT    AOBASIS   BASIS     P2S    ABASIS      S 
                                         1400     1410     1200     1210     1080     1600     1650     1300     1700   
                                           T        V       H0       H01     AOSYM     SMH    MOLCAS    ERIS     OPER   

 PROGRAMS   *        TOTAL       INT
 CPU TIMES  *        26.18     26.03
 REAL TIME  *        64.37 SEC
 DISK USED  *         3.90 GB      
 **********************************************************************************************************************************

 Density functional group MM05-2X=M052XX+M052XC
 Functional: M052XX(Automatically generated (new) M052XX)                      Gradient terms: 2
 Functional: M052XC(Automatically generated (new) M052XC)                      Gradient terms: 2
 Use grid at  1800.2


 Exact exchange will be calculated, factor:  0.5600

 Functional: M052XX                    Factor:  0.4400
 Functional: M052XC                    Factor:  1.0000

 Generated new metagrid on record  1800.2 with target accuracy 1.0D-06 and 54596 points in CPU time    1.6
 Computed new grid on record 1800.1 in CPU time    1.8
  339049 words reserved for DFT integration

 PROGRAM * RKS-SCF (Restricted closed shell Kohn-Sham)     Authors: W. Meyer, H.-J. Werner, P.J. Knowles, 1993

 NUMBER OF ELECTRONS:      21+   21-    SPACE SYMMETRY=1    SPIN SYMMETRY: Singlet 
 CONVERGENCE THRESHOLDS:    1.00E-05 (Density)    1.00E-06 (Energy)
 MAX. NUMBER OF ITERATIONS:       60
 INTERPOLATION TYPE:            DIIS
 INTERPOLATION STEPS:              2 (START)      1 (STEP)
 LEVEL SHIFTS:                  0.00 (CLOSED)  0.00 (OPEN) 



 Use fine grid record 1800.2 for energy threshold  1.0D-06
 Orbital guess generated from atomic densities. Full valence occupancy:   21

 Molecular orbital dump at record        2100.2

 Initial occupancy:  21

 ITERATION    DDIFF          GRAD             ENERGY        2-EL.EN.            DIPOLE MOMENTS         DIIS   ORB.
    1      0.000D+00      0.000D+00      -233.59204679    595.504835    0.71086   -0.84552    0.00000    0    start
    2      0.000D+00      0.587D-02      -233.62714960    575.949326    0.07241   -0.26513    0.00000    1    diag
    3      0.556D-02      0.548D-02      -233.72824446    585.816960    0.37034   -0.58415    0.00000    2    diag
    4      0.284D-02      0.635D-03      -233.72910665    585.525623    0.35736   -0.51079    0.00000    3    diag
    5      0.384D-03      0.332D-03      -233.72945257    585.494291    0.35844   -0.55382    0.00000    4    diag
    6      0.163D-03      0.517D-04      -233.72946113    585.551475    0.35821   -0.54649    0.00000    5    diag
    7      0.337D-04      0.180D-04      -233.72946229    585.531770    0.35786   -0.54611    0.00000    6    diag
    8      0.936D-05      0.294D-05      -233.72946233    585.534753    0.35795   -0.54662    0.00000    7    diag
    9      0.279D-05      0.442D-06      -233.72946233    585.534695    0.35793   -0.54647    0.00000    0    orth

 Final occupancy:  21

 !RKS STATE 1.1 Energy               -233.729462331122
 Nuclear energy                       198.77359127
 One-electron energy                 -709.45777010
 Two-electron energy                  292.76734772
 SCF exchange energy                  -32.51279920     Factor= 0.5600
 Density functional                   -15.81263123     M052XX=-32.50422888 M052XC= -1.51077052
 Virial quotient                       -1.00566749
 !RKS STATE 1.1 Dipole moment           0.35792653    -0.54647403     0.00000000
 Dipole moment /Debye                   0.90969892    -1.38890746     0.00000000

 Orbital energies:

         1.1          2.1          3.1          4.1          5.1          6.1          7.1          8.1          9.1         10.1
    -19.659151   -10.623573   -10.553106   -10.553094   -10.547313    -1.138651    -0.895040    -0.792514    -0.791212    -0.656796

        11.1         12.1         13.1         14.1         15.1         16.1         17.1         18.1         19.1         20.1
     -0.570473    -0.531398    -0.528198    -0.488136    -0.471464    -0.448745    -0.435786    -0.427629    -0.419001    -0.386359

        21.1         22.1         23.1
     -0.348285     0.061126     0.111233

 HOMO     21.1    -0.348285 =      -9.4773eV
 LUMO     22.1     0.061126 =       1.6633eV
 LUMO-HOMO         0.409411 =      11.1406eV


 **********************************************************************************************************************************
 DATASETS  * FILE   NREC   LENGTH (MB)   RECORD NAMES
              1      20      928.02       500      610      700      900      950      970     1000      129      960     1100   
                                          VAR    BASINP    GEOM    SYMINP    ZMAT    AOBASIS   BASIS     P2S    ABASIS      S 
                                         1400     1410     1200     1210     1080     1600     1650     1300     1700     1800   
                                           T        V       H0       H01     AOSYM     SMH    MOLCAS    ERIS     OPER     GRID   

              2       5        3.96       700     1000      520     1800     2100   
                                         GEOM     BASIS   MCVARS    GRID      RKS  

 PROGRAMS   *        TOTAL        KS       INT
 CPU TIMES  *       182.54    156.36     26.03
 REAL TIME  *       236.26 SEC
 DISK USED  *         3.90 GB      
 **********************************************************************************************************************************


 PROGRAM * Intrinsic Basis Bonding Analysis (IBBA)          Author: G. Knizia

 Molecular orbitals read from record     2100.2  Type=RKS/CANONICAL (state 1.1)
 Fock matrix read from record            2100.2  Type=RKS/TOTAL (state 1.1)
 Orbital energies read from record       2100.2  Type=RKS/CANONICAL (state 1.1)
 Density matrix read from record         2100.2  Type=RKS/CHARGE (state 1.1)

 Number of core orbitals:           5 (   5 )
 Number of closed-shell orbitals:  16 (  16 )

 Basis set MINAO-AUTO-PP generated.      Number of basis functions:   35 

 Polarized AO type:                A = (O Ot + (1-O)(1-Ot)) P12
 Orthogonalization method:         Symmetric (Loewdin)
 Localization functional:          L = sum[A,i] <i|n_A|i>^4 -> max

 Localization group 1:  21 orbitals, occupancy  2.000
 Iterative localization: IB/PM,    7 iter; Final gradient 0.21E-08

 Bond order analysis:       [THRPRINT= 0.020]

   CEN ATOM   CEN ATOM     WIBERG.BO      RENORM.BO
     1   C  -   2   C       0.995972       0.993046
     1   C  -   5   H       0.963630       0.987813
     1   C  -   6   H       0.958684       0.983200
     1   C  -   7   H       0.958684       0.983200

     2   C  -   1   C       0.995972       0.993046
     2   C  -   9   C       0.995014       0.976896
     2   C  -   8   C       0.995014       0.976896
     2   C  -   3   O       0.932528       0.952879

     3   O  -   2   C       0.932528       0.952879
     3   O  -   4   H       0.863537       0.978407
     3   O  -   9   C       0.025474       0.013091
     3   O  -   8   C       0.025474       0.013091

     4   H  -   3   O       0.863537       0.978407

     5   H  -   1   C       0.963630       0.987813

     6   H  -   1   C       0.958684       0.983200

     7   H  -   1   C       0.958684       0.983200

     8   C  -   2   C       0.995014       0.976896
     8   C  -  14   H       0.963219       0.983702
     8   C  -  12   H       0.959954       0.983995
     8   C  -  10   H       0.959161       0.983135
     8   C  -   3   O       0.025474       0.013091

     9   C  -   2   C       0.995014       0.976896
     9   C  -  15   H       0.963219       0.983702
     9   C  -  13   H       0.959954       0.983995
     9   C  -  11   H       0.959161       0.983135
     9   C  -   3   O       0.025474       0.013091

    10   H  -   8   C       0.959161       0.983135

    11   H  -   9   C       0.959161       0.983135

    12   H  -   8   C       0.959954       0.983995

    13   H  -   9   C       0.959954       0.983995

    14   H  -   8   C       0.963219       0.983702

    15   H  -   9   C       0.963219       0.983702


 Valency analysis:

   CEN ATOM   TOT.VALENCE
     1   C       3.932901
     2   C       3.928817
     3   O       1.907817
     4   H       0.881440
     5   H       0.981577
     6   H       0.978387
     7   H       0.978387
     8   C       3.935755
     9   C       3.935755
    10   H       0.978350
    11   H       0.978350
    12   H       0.980369
    13   H       0.980369
    14   H       0.982918
    15   H       0.982918

 Total charge composition:

   CEN ATOM         s          p       ELECTRONS ->P.CHARGE
     1   C       3.03465    3.38516      6.41981   -0.41981
     2   C       2.93597    2.81006      5.74603    0.25397
     3   O       3.63329    4.94494      8.57823   -0.57823
     4   H       0.65568                 0.65568    0.34432
     5   H       0.86427                 0.86427    0.13573
     6   H       0.85299                 0.85299    0.14701
     7   H       0.85299                 0.85299    0.14701
     8   C       3.04011    3.39285      6.43296   -0.43296
     9   C       3.04011    3.39285      6.43296   -0.43296
    10   H       0.85286                 0.85286    0.14714
    11   H       0.85286                 0.85286    0.14714
    12   H       0.85989                 0.85989    0.14011
    13   H       0.85989                 0.85989    0.14011
    14   H       0.86930                 0.86930    0.13070
    15   H       0.86930                 0.86930    0.13070

 Total charge composition, AO contributions:

   CEN ATOM SHL      SPHERICAL COMPONENTS
     1   C  1s       1.99086
     1   C  2s       1.04379
     1   C  2p       1.03954    1.16594    1.17968

     2   C  1s       1.99251
     2   C  2s       0.94346
     2   C  2p       1.01141    0.78583    1.01283

     3   O  1s       1.99703
     3   O  2s       1.63626
     3   O  2p       1.48209    1.50222    1.96062

     4   H  1s       0.65568

     5   H  1s       0.86427

     6   H  1s       0.85299

     7   H  1s       0.85299

     8   C  1s       1.99096
     8   C  2s       1.04916
     8   C  2p       1.14780    1.14775    1.09730

     9   C  1s       1.99096
     9   C  2s       1.04916
     9   C  2p       1.14780    1.14775    1.09730

    10   H  1s       0.85286

    11   H  1s       0.85286

    12   H  1s       0.85989

    13   H  1s       0.85989

    14   H  1s       0.86930

    15   H  1s       0.86930

 Summary of localized orbital composition:   [THRPRINT= 0.020]

   ORB  GRP  ORB.ENERGY      CENTERS/CHARGES
     1   1   -19.495938      O  3   2.000
     2   1   -10.528321      C  2   2.000
     3   1   -10.434433      C  9   2.000
     4   1   -10.434433      C  8   2.000
     5   1   -10.427783      C  1   2.000
     6   1    -0.861120      O  3   1.346   H  4   0.645
     7   1    -0.818177      O  3   1.286   C  2   0.698
     8   1    -0.668661      O  3   1.983
     9   1    -0.656716      C  8   1.006   C  2   0.980
    10   1    -0.656716      C  9   1.006   C  2   0.980
    11   1    -0.655420      C  2   0.990   C  1   0.988   (other: 0.022)
    12   1    -0.586257      C  8   1.136   H 12   0.851
    13   1    -0.586257      C  9   1.136   H 13   0.851
    14   1    -0.584261      C  8   1.126   H 14   0.863
    15   1    -0.584261      C  9   1.126   H 15   0.863
    16   1    -0.581220      C  1   1.130   H  5   0.857
    17   1    -0.580471      C  8   1.145   H 10   0.845
    18   1    -0.580471      C  9   1.145   H 11   0.845
    19   1    -0.575490      C  1   1.144   H  7   0.845
    20   1    -0.575490      C  1   1.144   H  6   0.845
    21   1    -0.394027      O  3   1.961   (other: 0.039)

 Localized orbitals saved to record      2100.2  (orbital set 2)


 **********************************************************************************************************************************
 DATASETS  * FILE   NREC   LENGTH (MB)   RECORD NAMES
              1      20      928.02       500      610      700      900      950      970     1000      129      960     1100   
                                          VAR    BASINP    GEOM    SYMINP    ZMAT    AOBASIS   BASIS     P2S    ABASIS      S 
                                         1400     1410     1200     1210     1080     1600     1650     1300     1700     1800   
                                           T        V       H0       H01     AOSYM     SMH    MOLCAS    ERIS     OPER     GRID   

              2       5        4.33       700     1000      520     1800     2100   
                                         GEOM     BASIS   MCVARS    GRID      RKS  

 PROGRAMS   *        TOTAL      IBBA        KS       INT
 CPU TIMES  *       182.61      0.07    156.36     26.03
 REAL TIME  *       236.42 SEC
 DISK USED  *         3.90 GB      
 **********************************************************************************************************************************
 Molecular orbitals read from record     2100.2  Type=RKS/LOCAL(IBO)  
 Occupation numbers read from record     2100.2  Type=RKS/LOCAL(IBO)  
 Orbital energies read from record       2100.2  Type=RKS/LOCAL(IBO)  
 Redundancy group numbers read from rec  2100.2  Type=RKS/LOCAL(IBO)  

 IBBA/TZVP energy=      0.000000000000

        KS-SCF  
   -233.72946233
 **********************************************************************************************************************************
 Molpro calculation terminated
