
 Primary working directories    : /tmp/sb13343
 Secondary working directories  : /tmp/sb13343
 Wavefunction directory         : /panfs/panasas01/chem/sb13343/wfu/
 Main file repository           : /tmp/sb13343/

 SHA1      : b4a5b34a9e711420743f49e6833241d17c61fb3c
 NAME      : 2099.9.b4a5b34
 ARCHNAME  : linux/x86_64_openmp
 FC        : /cm/shared/languages/GCC-6.1/bin/gfortran
 BLASLIB   : -lblas
 id        : simonbennie

 Nodes     nprocs
 node32-036    1

 Using customized tuning parameters: mindgm=1; mindgv=20; mindgc=4; mindgr=1; noblas=0; minvec=7
 default implementation of scratch files=df  

 memory,500,m
 geomtyp=xyz
 nosym
 noorient
 geometry={
 C          0.00000        0.00000        0.00000
 C          0.00000        0.00000        1.53307
 O          1.40344        0.00000        1.86307
 C          1.76314        0.00000        3.22887
 H         -1.02289        0.00000       -0.39176
 H          0.51995       -0.88625       -0.37815
 H          0.51995        0.88625       -0.37815
 H          2.85677        0.00000        3.25413
 H          1.40708       -0.89217        3.76475
 H          1.40708        0.89217        3.76475
 C         -0.69252       -1.26694        2.06222
 C         -0.69252        1.26694        2.06222
 H         -0.15366       -2.16088        1.72982
 H         -0.15366        2.16088        1.72982
 H         -1.72011       -1.32515        1.68649
 H         -1.72011        1.32515        1.68649
 H         -0.74365       -1.28188        3.15638
 H         -0.74365        1.28188        3.15638
 }
 basis={ default,sto-3g }
 {ks,PBE,direct;wf,50,1,0}
 {ibba,bonds=1}

 Variables initialized (895), CPU time= 0.00 sec
 Commands  initialized (725), CPU time= 0.01 sec, 591 directives.
 Default parameters read. Elapsed time= 0.08 sec

 Checking input...
 Passed
1


                                         ***  PROGRAM SYSTEM MOLPRO  ***
                                       Copyright, TTI GmbH Stuttgart, 2015
                                    Version 2099.9 linked May 26 2017 16:03:21


 **********************************************************************************************************************************
 LABEL *                                                                                 
  64 bit serial version                                                                  DATE: 09-Jun-17          TIME: 01:38:37  
 **********************************************************************************************************************************

 SHA1:             b4a5b34a9e711420743f49e6833241d17c61fb3c
 **********************************************************************************************************************************
 SETTING GEOMTYP        =    XYZ

 Variable memory set to  500000000 words,  buffer space 

 ZSYMEL=NOSYM

 SETTING BASIS          =    STO-3G


 Recomputing integrals since basis changed


 Using spherical harmonics

 Library entry C      S STO-3G               selected for orbital group  1
 Library entry C      P STO-3G               selected for orbital group  1
 Library entry O      S STO-3G               selected for orbital group  2
 Library entry O      P STO-3G               selected for orbital group  2
 Library entry H      S STO-3G               selected for orbital group  4


 PROGRAM * SEWARD (Integral evaluation for generally contracted gaussian basis sets)     Author: Roland Lindh, 1990

 Geometry written to block  1 of record 700


 Point group  C1  



 ATOMIC COORDINATES

 NR  ATOM    CHARGE       X              Y              Z

   1  C       6.00    0.000000000    0.000000000    0.000000000
   2  C       6.00    0.000000000    0.000000000    2.897082430
   3  O       8.00    2.652117232    0.000000000    3.520692051
   4  C       6.00    3.331851719    0.000000000    6.101679992
   5  H       1.00   -1.932981956    0.000000000   -0.740319107
   6  H       1.00    0.982563098   -1.674769778   -0.714599934
   7  H       1.00    0.982563098    1.674769778   -0.714599934
   8  H       1.00    5.398512901    0.000000000    6.149414474
   9  H       1.00    2.658995835   -1.685956957    7.114346427
  10  H       1.00    2.658995835    1.685956957    7.114346427
  11  C       6.00   -1.308673136   -2.394169616    3.897031009
  12  C       6.00   -1.308673136    2.394169616    3.897031009
  13  H       1.00   -0.290375316   -4.083471388    3.268886045
  14  H       1.00   -0.290375316    4.083471388    3.268886045
  15  H       1.00   -3.250536804   -2.504170574    3.187004212
  16  H       1.00   -3.250536804    2.504170574    3.187004212
  17  H       1.00   -1.405294833   -2.422402125    5.964693745
  18  H       1.00   -1.405294833    2.422402125    5.964693745

 Bond lengths in Bohr (Angstrom)

 1-2  2.897082430  1-5  2.069901355  1-6  2.069042560  1-7  2.069042560  2-3  2.724447609
     ( 1.533070000)     ( 1.095344626)     ( 1.094890171)     ( 1.094890171)     ( 1.441715587)

  2-11  2.905954351   2-12  2.905954351   3- 4  2.668995640   4- 8  2.067212379   4- 9  2.078624355
       ( 1.537764818)       ( 1.537764818)       ( 1.412371669)       ( 1.093921681)       ( 1.099960639)

  4-10  2.078624355  11-13  2.070081404  11-15  2.070524757  11-17  2.070111596  12-14  2.070081404
       ( 1.099960639)       ( 1.095439904)       ( 1.095674516)       ( 1.095455880)       ( 1.095439904)

 12-16  2.070524757  12-18  2.070111596
       ( 1.095674516)       ( 1.095455880)

 Bond angles

  1- 2- 3  103.23196371   1- 2-11  110.12706952   1- 2-12  110.12706952   2- 1- 5  110.95650426

  2- 1- 6  110.20481748   2- 1- 7  110.20481748   2- 3- 4  117.98647004   2-11-13  110.26679927

  2-11-15  110.37287188   2-11-17  112.08316935   2-12-14  110.26679927   2-12-16  110.37287188

  2-12-18  112.08316935   3- 2-11  111.07703285   3- 2-12  111.07703285   3- 4- 8  106.07765410

  3- 4- 9  112.87219182   3- 4-10  112.87219182   5- 1- 6  108.65976572   5- 1- 7  108.65976572

  6- 1- 7  108.08288210   8- 4- 9  108.20190897   8- 4-10  108.20190897   9- 4-10  108.40564999

 11- 2-12  110.95103964  13-11-15  108.29648994  13-11-17  108.35544687  14-12-16  108.29648994

 14-12-18  108.35544687  15-11-17  107.33851825  16-12-18  107.33851825

 NUCLEAR CHARGE:                   50
 NUMBER OF PRIMITIVE AOS:         126
 NUMBER OF SYMMETRY AOS:          126
 NUMBER OF CONTRACTIONS:           42   (  42A   )
 NUMBER OF CORE ORBITALS:           6   (   6A   )
 NUMBER OF VALENCE ORBITALS:       36   (  36A   )


 NUCLEAR REPULSION ENERGY  270.15500869


 Eigenvalues of metric

         1 0.207E+00 0.226E+00 0.228E+00 0.234E+00 0.307E+00 0.355E+00 0.359E+00 0.362E+00


 Contracted 2-electron integrals neglected if value below      1.0D-11
 AO integral compression algorithm  1   Integral accuracy      1.0D-11

     2.884 MB (compressed) written to integral file ( 84.3%)


 NUMBER OF SORTED TWO-ELECTRON INTEGRALS:     408156.     BUFFER LENGTH:  32768
 NUMBER OF SEGMENTS:   1  SEGMENT LENGTH:     408156      RECORD LENGTH: 524288

 Memory used in sort:       0.97 MW

 SORT1 READ      453477. AND WROTE      382834. INTEGRALS IN      2 RECORDS. CPU TIME:     0.01 SEC, REAL TIME:     0.02 SEC
 SORT2 READ      382834. AND WROTE      408156. INTEGRALS IN     11 RECORDS. CPU TIME:     0.03 SEC, REAL TIME:     0.03 SEC

 FILE SIZES:   FILE 1:    33.2 MBYTE,  FILE 4:     8.4 MBYTE,   TOTAL:     41.6 MBYTE

 OPERATOR DM      FOR CENTER  0  COORDINATES:    0.000000    0.000000    0.000000


 **********************************************************************************************************************************
 DATASETS  * FILE   NREC   LENGTH (MB)   RECORD NAMES
              1      19       31.98       500      610      700      900      950      970     1000      129      960     1100   
                                          VAR    BASINP    GEOM    SYMINP    ZMAT    AOBASIS   BASIS     P2S    ABASIS      S 
                                         1400     1410     1200     1210     1080     1600     1650     1300     1700   
                                           T        V       H0       H01     AOSYM     SMH    MOLCAS    ERIS     OPER   

 PROGRAMS   *        TOTAL       INT
 CPU TIMES  *         0.77      0.64
 REAL TIME  *         1.16 SEC
 DISK USED  *        42.19 MB      
 **********************************************************************************************************************************

 Density functional group PBE=PBEX+PBEC
 Functional: PBEX(Automatically generated (new) PBEX)                          Gradient terms: 1
 Functional: PBEC(Automatically generated (new) PBEC)                          Gradient terms: 1
 Use grid at  1800.2

 Functional: PBEX                      Factor:  1.0000
 Functional: PBEC                      Factor:  1.0000

 Generated new metagrid on record  1800.2 with target accuracy 1.0D-06 and 66012 points in CPU time    1.9
 Computed new grid on record 1800.1 in CPU time    2.1
   38106 words reserved for DFT integration

 PROGRAM * RKS-SCF (Restricted closed shell Kohn-Sham)     Authors: W. Meyer, H.-J. Werner, P.J. Knowles, 1993

 NUMBER OF ELECTRONS:      25+   25-    SPACE SYMMETRY=1    SPIN SYMMETRY: Singlet 
 CONVERGENCE THRESHOLDS:    1.00E-05 (Density)    1.00E-06 (Energy)
 MAX. NUMBER OF ITERATIONS:       60
 INTERPOLATION TYPE:            DIIS
 INTERPOLATION STEPS:              2 (START)      1 (STEP)
 LEVEL SHIFTS:                  0.00 (CLOSED)  0.00 (OPEN) 



 Use fine grid record 1800.2 for energy threshold  1.0D-06
 Orbital guess generated from atomic densities. Full valence occupancy:   25

 Molecular orbital dump at record        2100.2

 Initial occupancy:  25

 ITERATION    DDIFF          GRAD             ENERGY        2-EL.EN.            DIPOLE MOMENTS         DIIS   ORB.
    1      0.000D+00      0.000D+00      -268.76875433    824.893293   -0.89467    0.00000    0.83040    0    start
    2      0.000D+00      0.274D-01      -268.71007203    783.134532    0.23049   -0.00000   -1.07140    1    diag
    3      0.101D+00      0.295D-01      -269.20528984    803.596186   -0.42586    0.00000    0.40157    2    diag
    4      0.547D-01      0.373D-02      -269.21116897    803.780083   -0.26020    0.00000    0.16954    3    diag
    5      0.817D-02      0.159D-02      -269.21237753    803.724744   -0.33743    0.00000    0.19702    4    diag
    6      0.257D-02      0.268D-03      -269.21241679    803.710734   -0.32296    0.00000    0.20304    5    diag
    7      0.532D-03      0.508D-04      -269.21241821    803.712749   -0.32488    0.00000    0.20646    6    diag
    8      0.936D-04      0.753D-05      -269.21241824    803.713645   -0.32496    0.00000    0.20626    7    diag
    9      0.164D-04      0.255D-05      -269.21241824    803.713540   -0.32488    0.00000    0.20614    8    diag
   10      0.454D-05      0.219D-06      -269.21241824    803.713677   -0.32491    0.00000    0.20617    0    orth

 Final occupancy:  25

 !RKS STATE 1.1 Energy               -269.212418238475
 Nuclear energy                       270.15500869
 One-electron energy                 -901.31362558
 Two-electron energy                  401.85683862
 Density functional                   -39.91063997     PBEX=-38.23521501 PBEC= -1.67542496
 Virial quotient                       -1.01528559
 !RKS STATE 1.1 Dipole moment          -0.32491015     0.00000000     0.20617489
 Dipole moment /Debye                  -0.82578513     0.00000000     0.52400997

 Orbital energies:

         1.1          2.1          3.1          4.1          5.1          6.1          7.1          8.1          9.1         10.1
    -18.486225    -9.769377    -9.744515    -9.703914    -9.702479    -9.702396    -0.867416    -0.677774    -0.586972    -0.584062

        11.1         12.1         13.1         14.1         15.1         16.1         17.1         18.1         19.1         20.1
     -0.560830    -0.442826    -0.385309    -0.362680    -0.358260    -0.339825    -0.321122    -0.306239    -0.296357    -0.281835

        21.1         22.1         23.1         24.1         25.1         26.1         27.1
     -0.281508    -0.251284    -0.247259    -0.133842    -0.064742     0.234010     0.315538

 HOMO     25.1    -0.064742 =      -1.7617eV
 LUMO     26.1     0.234010 =       6.3677eV
 LUMO-HOMO         0.298752 =       8.1295eV


 **********************************************************************************************************************************
 DATASETS  * FILE   NREC   LENGTH (MB)   RECORD NAMES
              1      20       34.09       500      610      700      900      950      970     1000      129      960     1100   
                                          VAR    BASINP    GEOM    SYMINP    ZMAT    AOBASIS   BASIS     P2S    ABASIS      S 
                                         1400     1410     1200     1210     1080     1600     1650     1300     1700     1800   
                                           T        V       H0       H01     AOSYM     SMH    MOLCAS    ERIS     OPER     GRID   

              2       5        3.09       700     1000      520     1800     2100   
                                         GEOM     BASIS   MCVARS    GRID      RKS  

 PROGRAMS   *        TOTAL        KS       INT
 CPU TIMES  *         7.24      6.47      0.64
 REAL TIME  *         8.16 SEC
 DISK USED  *        42.19 MB      
 **********************************************************************************************************************************


 PROGRAM * Intrinsic Basis Bonding Analysis (IBBA)          Author: G. Knizia

 Molecular orbitals read from record     2100.2  Type=RKS/CANONICAL (state 1.1)
 Fock matrix read from record            2100.2  Type=RKS/TOTAL (state 1.1)
 Orbital energies read from record       2100.2  Type=RKS/CANONICAL (state 1.1)
 Density matrix read from record         2100.2  Type=RKS/CHARGE (state 1.1)

 Number of core orbitals:           6 (   6 )
 Number of closed-shell orbitals:  19 (  19 )

 Basis set MINAO-AUTO-PP generated.      Number of basis functions:   42 

 Polarized AO type:                A = (O Ot + (1-O)(1-Ot)) P12
 Orthogonalization method:         Symmetric (Loewdin)
 Localization functional:          L = sum[A,i] <i|n_A|i>^4 -> max

 Localization group 1:  25 orbitals, occupancy  2.000
 Iterative localization: IB/PM,    7 iter; Final gradient 0.69E-08

 Bond order analysis:       [THRPRINT= 0.020]

   CEN ATOM   CEN ATOM     WIBERG.BO      RENORM.BO
     1   C  -   2   C       0.990086       0.987161
     1   C  -   5   H       0.964738       0.989437
     1   C  -   6   H       0.961861       0.986530
     1   C  -   7   H       0.961861       0.986530

     2   C  -   1   C       0.990086       0.987161
     2   C  -  12   C       0.985293       0.958961
     2   C  -  11   C       0.985293       0.958961
     2   C  -   3   O       0.980075       0.958044

     3   O  -   4   C       1.026313       1.015860
     3   O  -   2   C       0.980075       0.958044
     3   O  -   9   H       0.033269       0.019816
     3   O  -  10   H       0.033269       0.019816
     3   O  -  12   C       0.028305       0.015014
     3   O  -  11   C       0.028305       0.015014

     4   C  -   3   O       1.026313       1.015860
     4   C  -   8   H       0.952335       0.972857
     4   C  -   9   H       0.949364       0.939398
     4   C  -  10   H       0.949364       0.939398

     5   H  -   1   C       0.964738       0.989437

     6   H  -   1   C       0.961861       0.986530

     7   H  -   1   C       0.961861       0.986530

     8   H  -   4   C       0.952335       0.972857

     9   H  -   4   C       0.949364       0.939398
     9   H  -   3   O       0.033269       0.019816

    10   H  -   4   C       0.949364       0.939398
    10   H  -   3   O       0.033269       0.019816

    11   C  -   2   C       0.985293       0.958961
    11   C  -  17   H       0.963788       0.985201
    11   C  -  13   H       0.962525       0.986321
    11   C  -  15   H       0.962330       0.988821
    11   C  -   3   O       0.028305       0.015014

    12   C  -   2   C       0.985293       0.958961
    12   C  -  18   H       0.963788       0.985201
    12   C  -  14   H       0.962525       0.986321
    12   C  -  16   H       0.962330       0.988821
    12   C  -   3   O       0.028305       0.015014

    13   H  -  11   C       0.962525       0.986321

    14   H  -  12   C       0.962525       0.986321

    15   H  -  11   C       0.962330       0.988821

    16   H  -  12   C       0.962330       0.988821

    17   H  -  11   C       0.963788       0.985201

    18   H  -  12   C       0.963788       0.985201


 Valency analysis:

   CEN ATOM   TOT.VALENCE
     1   C       3.931490
     2   C       3.971619
     3   O       2.189592
     4   C       3.901179
     5   H       0.982054
     6   H       0.980424
     7   H       0.980424
     8   H       0.979524
     9   H       0.987291
    10   H       0.987291
    11   C       3.933090
    12   C       3.933090
    13   H       0.981185
    14   H       0.981185
    15   H       0.981215
    16   H       0.981215
    17   H       0.982983
    18   H       0.982983

 Total charge composition:

   CEN ATOM         s          p       ELECTRONS ->P.CHARGE
     1   C       3.00190    3.39786      6.39976   -0.39976
     2   C       2.94999    2.93390      5.88389    0.11611
     3   O       3.66266    4.54532      8.20798   -0.20798
     4   C       3.00801    3.26654      6.27456   -0.27456
     5   H       0.86604                 0.86604    0.13396
     6   H       0.86009                 0.86009    0.13991
     7   H       0.86009                 0.86009    0.13991
     8   H       0.85691                 0.85691    0.14309
     9   H       0.88727                 0.88727    0.11273
    10   H       0.88727                 0.88727    0.11273
    11   C       3.00249    3.41027      6.41276   -0.41276
    12   C       3.00249    3.41027      6.41276   -0.41276
    13   H       0.86283                 0.86283    0.13717
    14   H       0.86283                 0.86283    0.13717
    15   H       0.86294                 0.86294    0.13706
    16   H       0.86294                 0.86294    0.13706
    17   H       0.86955                 0.86955    0.13045
    18   H       0.86955                 0.86955    0.13045

 Total charge composition, AO contributions:

   CEN ATOM SHL      SPHERICAL COMPONENTS
     1   C  1s       1.99210
     1   C  2s       1.00980
     1   C  2p       1.17036    1.17852    1.04898

     2   C  1s       1.99352
     2   C  2s       0.95647
     2   C  2p       0.86992    1.03329    1.03069

     3   O  1s       1.99749
     3   O  2s       1.66516
     3   O  2p       1.31154    1.90326    1.33052

     4   C  1s       1.99263
     4   C  2s       1.01538
     4   C  2p       1.16870    1.17996    0.91788

     5   H  1s       0.86604

     6   H  1s       0.86009

     7   H  1s       0.86009

     8   H  1s       0.85691

     9   H  1s       0.88727

    10   H  1s       0.88727

    11   C  1s       1.99216
    11   C  2s       1.01033
    11   C  2p       1.15224    1.10038    1.15765

    12   C  1s       1.99216
    12   C  2s       1.01033
    12   C  2p       1.15224    1.10038    1.15765

    13   H  1s       0.86283

    14   H  1s       0.86283

    15   H  1s       0.86294

    16   H  1s       0.86294

    17   H  1s       0.86955

    18   H  1s       0.86955

 Summary of localized orbital composition:   [THRPRINT= 0.020]

   ORB  GRP  ORB.ENERGY      CENTERS/CHARGES
     1   1   -18.329584      O  3   2.000
     2   1    -9.679010      C  2   2.000
     3   1    -9.639528      C  4   2.000
     4   1    -9.594350      C  1   2.000
     5   1    -9.593556      C 12   2.000
     6   1    -9.593556      C 11   2.000
     7   1    -0.593071      O  3   1.160   C  4   0.831
     8   1    -0.558890      O  3   1.168   C  2   0.806   (other: 0.026)
     9   1    -0.466798      C  2   0.995   C  1   0.981   (other: 0.024)
    10   1    -0.465918      C 11   0.994   C  2   0.991
    11   1    -0.465918      C 12   0.994   C  2   0.991
    12   1    -0.426500      C  4   1.143   H  8   0.847
    13   1    -0.425025      C  4   1.131   H 10   0.867
    14   1    -0.425025      C  4   1.131   H  9   0.867
    15   1    -0.421722      O  3   1.967   (other: 0.033)
    16   1    -0.411977      C  1   1.130   H  5   0.859
    17   1    -0.411539      C 12   1.128   H 18   0.862
    18   1    -0.411539      C 11   1.128   H 17   0.862
    19   1    -0.411360      C 11   1.133   H 15   0.855
    20   1    -0.411360      C 12   1.133   H 16   0.855
    21   1    -0.407882      C 12   1.135   H 14   0.856
    22   1    -0.407882      C 11   1.135   H 13   0.856
    23   1    -0.405381      C  1   1.137   H  7   0.853
    24   1    -0.405381      C  1   1.137   H  6   0.853
    25   1    -0.096297      O  3   1.903   C  2   0.023   (other: 0.074)

 Localized orbitals saved to record      2100.2  (orbital set 2)


 **********************************************************************************************************************************
 DATASETS  * FILE   NREC   LENGTH (MB)   RECORD NAMES
              1      20       34.09       500      610      700      900      950      970     1000      129      960     1100   
                                          VAR    BASINP    GEOM    SYMINP    ZMAT    AOBASIS   BASIS     P2S    ABASIS      S 
                                         1400     1410     1200     1210     1080     1600     1650     1300     1700     1800   
                                           T        V       H0       H01     AOSYM     SMH    MOLCAS    ERIS     OPER     GRID   

              2       5        3.11       700     1000      520     1800     2100   
                                         GEOM     BASIS   MCVARS    GRID      RKS  

 PROGRAMS   *        TOTAL      IBBA        KS       INT
 CPU TIMES  *         7.29      0.03      6.47      0.64
 REAL TIME  *         8.33 SEC
 DISK USED  *        42.19 MB      
 **********************************************************************************************************************************
 Molecular orbitals read from record     2100.2  Type=RKS/LOCAL(IBO)  
 Occupation numbers read from record     2100.2  Type=RKS/LOCAL(IBO)  
 Orbital energies read from record       2100.2  Type=RKS/LOCAL(IBO)  
 Redundancy group numbers read from rec  2100.2  Type=RKS/LOCAL(IBO)  

 IBBA/STO-3G energy=      0.000000000000

        KS-SCF  
   -269.21241824
 **********************************************************************************************************************************
 Molpro calculation terminated
