
 Primary working directories    : /local
 Secondary working directories  : /local
 Wavefunction directory         : /local/
 Main file repository           : /local/

 SHA1      : b4a5b34a9e711420743f49e6833241d17c61fb3c
 NAME      : 2099.9.b4a5b34
 ARCHNAME  : linux/x86_64_openmp
 FC        : /cm/shared/languages/GCC-6.1/bin/gfortran
 BLASLIB   : -lblas
 id        : simonbennie

 Nodes     nprocs
 node45-010    1

 Using customized tuning parameters: mindgm=1; mindgv=20; mindgc=4; mindgr=1; noblas=0; minvec=7
 default implementation of scratch files=df  

 memory,500,m
 geomtyp=xyz
 nosym
 noorient
 geometry={
 C         -1.53233        0.02247        0.00000
 C         -0.00192        0.01421        0.00000
 O          0.37239        1.40356        0.00000
 H          1.34248        1.44036        0.00000
 H         -1.92991       -0.99819        0.00000
 H         -1.90797        0.54382       -0.88653
 H         -1.90797        0.54382        0.88653
 C          0.54303       -0.66466       -1.26580
 C          0.54303       -0.66466        1.26580
 H          0.17836       -0.14752       -2.15943
 H          0.17836       -0.14752        2.15943
 H          0.23752       -1.71600       -1.32280
 H          0.23752       -1.71600        1.32280
 H          1.64084       -0.63767       -1.28032
 H          1.64084       -0.63767        1.28032
 }
 basis={ default,avdz }
 {ks,PW91,direct;wf,42,1,0}
 {ibba,bonds=1}

 Variables initialized (895), CPU time= 0.01 sec
 Commands  initialized (725), CPU time= 0.01 sec, 591 directives.
 Default parameters read. Elapsed time= 0.09 sec

 Checking input...
 Passed
1


                                         ***  PROGRAM SYSTEM MOLPRO  ***
                                       Copyright, TTI GmbH Stuttgart, 2015
                                    Version 2099.9 linked May 26 2017 16:03:21


 **********************************************************************************************************************************
 LABEL *                                                                                 
  64 bit serial version                                                                  DATE: 12-Jun-17          TIME: 16:12:53  
 **********************************************************************************************************************************

 SHA1:             b4a5b34a9e711420743f49e6833241d17c61fb3c
 **********************************************************************************************************************************
 SETTING GEOMTYP        =    XYZ

 Variable memory set to  500000000 words,  buffer space 

 ZSYMEL=NOSYM

 SETTING BASIS          =    AVDZ


 Recomputing integrals since basis changed


 Using spherical harmonics

 Library entry C      S aug-cc-pVDZ          selected for orbital group  1
 Library entry C      P aug-cc-pVDZ          selected for orbital group  1
 Library entry C      D aug-cc-pVDZ          selected for orbital group  1
 Library entry O      S aug-cc-pVDZ          selected for orbital group  2
 Library entry O      P aug-cc-pVDZ          selected for orbital group  2
 Library entry O      D aug-cc-pVDZ          selected for orbital group  2
 Library entry H      S aug-cc-pVDZ          selected for orbital group  3
 Library entry H      P aug-cc-pVDZ          selected for orbital group  3


 PROGRAM * SEWARD (Integral evaluation for generally contracted gaussian basis sets)     Author: Roland Lindh, 1990

 Geometry written to block  1 of record 700


 Point group  C1  



 ATOMIC COORDINATES

 NR  ATOM    CHARGE       X              Y              Z

   1  C       6.00   -2.895684032    0.042462146    0.000000000
   2  C       6.00   -0.003628274    0.026853008    0.000000000
   3  O       8.00    0.703715112    2.652343999    0.000000000
   4  H       1.00    2.536919528    2.721885921    0.000000000
   5  H       1.00   -3.647001345   -1.886305720    0.000000000
   6  H       1.00   -3.605540754    1.027670861   -1.675298901
   7  H       1.00   -3.605540754    1.027670861    1.675298901
   8  C       6.00    1.026177977   -1.256025366   -2.392015328
   9  C       6.00    1.026177977   -1.256025366    2.392015328
  10  H       1.00    0.337051552   -0.278772398   -4.080731285
  11  H       1.00    0.337051552   -0.278772398    4.080731285
  12  H       1.00    0.448847749   -3.242770030   -2.499729718
  13  H       1.00    0.448847749   -3.242770030    2.499729718
  14  H       1.00    3.100738214   -1.205021658   -2.419454152
  15  H       1.00    3.100738214   -1.205021658    2.419454152

 Bond lengths in Bohr (Angstrom)

 1-2  2.892097881  1-5  2.069933136  1-6  2.069096224  1-7  2.069096224  2-3  2.719106031
     ( 1.530432290)     ( 1.095361444)     ( 1.094918569)     ( 1.094918569)     ( 1.438888946)

  2- 8  2.903104402   2- 9  2.903104402   3- 4  1.834522965   8-10  2.069222119   8-12  2.071730422
       ( 1.536256691)       ( 1.536256691)       ( 0.970787746)       ( 1.094985190)       ( 1.096312526)

  8-14  2.075368508   9-11  2.069222119   9-13  2.071730422   9-15  2.075368508
       ( 1.098237719)       ( 1.094985190)       ( 1.096312526)       ( 1.098237719)

 Bond angles

  1-2-3  104.76902697   1-2-8  110.92255387   1-2-9  110.92255387   2-1-5  110.97328220

  2- 1- 6  110.22090701   2- 1- 7  110.22090701   2- 3- 4  107.25071562   2- 8-10  110.21836376

  2- 8-12  111.57747468   2- 8-14  110.77023896   2- 9-11  110.21836376   2- 9-13  111.57747468

  2- 9-15  110.77023896   3- 2- 8  109.53648747   3- 2- 9  109.53648747   5- 1- 6  108.61190457

  5- 1- 7  108.61190457   6- 1- 7  108.12870271   8- 2- 9  110.96453384  10- 8-12  108.52192632

 10- 8-14  108.08997829  11- 9-13  108.52192632  11- 9-15  108.08997829  12- 8-14  107.54424578

 13- 9-15  107.54424578

 NUCLEAR CHARGE:                   42
 NUMBER OF PRIMITIVE AOS:         295
 NUMBER OF SYMMETRY AOS:          285
 NUMBER OF CONTRACTIONS:          205   ( 205A   )
 NUMBER OF CORE ORBITALS:           5   (   5A   )
 NUMBER OF VALENCE ORBITALS:       30   (  30A   )


 NUCLEAR REPULSION ENERGY  198.77359127


 Eigenvalues of metric

         1 0.151E-04 0.552E-04 0.579E-04 0.110E-03 0.111E-03 0.217E-03 0.237E-03 0.259E-03


 Contracted 2-electron integrals neglected if value below      1.0D-12
 AO integral compression algorithm  1   Integral accuracy      1.0D-12

     1203.503 MB (compressed) written to integral file ( 61.3%)


 NUMBER OF SORTED TWO-ELECTRON INTEGRALS:  222932170.     BUFFER LENGTH:  32768
 NUMBER OF SEGMENTS:  14  SEGMENT LENGTH:   15999503      RECORD LENGTH: 524288

 Memory used in sort:      16.56 MW

 SORT1 READ   245224724. AND WROTE   218324786. INTEGRALS IN    630 RECORDS. CPU TIME:     3.37 SEC, REAL TIME:     6.58 SEC
 SORT2 READ   218324786. AND WROTE   222932170. INTEGRALS IN   4591 RECORDS. CPU TIME:     5.25 SEC, REAL TIME:     8.56 SEC

 FILE SIZES:   FILE 1:  1235.3 MBYTE,  FILE 4:  2642.4 MBYTE,   TOTAL:   3877.7 MBYTE

 OPERATOR DM      FOR CENTER  0  COORDINATES:    0.000000    0.000000    0.000000


 **********************************************************************************************************************************
 DATASETS  * FILE   NREC   LENGTH (MB)   RECORD NAMES
              1      19     1149.90       500      610      700      900      950      970     1000      129      960     1100   
                                          VAR    BASINP    GEOM    SYMINP    ZMAT    AOBASIS   BASIS     P2S    ABASIS      S 
                                         1400     1410     1200     1210     1080     1600     1650     1300     1700   
                                           T        V       H0       H01     AOSYM     SMH    MOLCAS    ERIS     OPER   

 PROGRAMS   *        TOTAL       INT
 CPU TIMES  *        20.21     20.05
 REAL TIME  *        50.65 SEC
 DISK USED  *         3.88 GB      
 **********************************************************************************************************************************

 Density functional group PW91=PW91X+PW91C
 Functional: PW91X(Automatically generated (new) PW91X)                        Gradient terms: 1
 Functional: PW91C(Automatically generated (new) PW91C)                        Gradient terms: 1
 Use grid at  1800.2

 Functional: PW91X                     Factor:  1.0000
 Functional: PW91C                     Factor:  1.0000

 Generated new metagrid on record  1800.2 with target accuracy 1.0D-06 and 53396 points in CPU time    1.6
 Computed new grid on record 1800.1 in CPU time    1.8
  167289 words reserved for DFT integration

 PROGRAM * RKS-SCF (Restricted closed shell Kohn-Sham)     Authors: W. Meyer, H.-J. Werner, P.J. Knowles, 1993

 NUMBER OF ELECTRONS:      21+   21-    SPACE SYMMETRY=1    SPIN SYMMETRY: Singlet 
 CONVERGENCE THRESHOLDS:    1.00E-05 (Density)    1.00E-06 (Energy)
 MAX. NUMBER OF ITERATIONS:       60
 INTERPOLATION TYPE:            DIIS
 INTERPOLATION STEPS:              2 (START)      1 (STEP)
 LEVEL SHIFTS:                  0.00 (CLOSED)  0.00 (OPEN) 



 Use fine grid record 1800.2 for energy threshold  1.0D-06
 Orbital guess generated from atomic densities. Full valence occupancy:   35

 Molecular orbital dump at record        2100.2

 Initial occupancy:  21

 ITERATION    DDIFF          GRAD             ENERGY        2-EL.EN.            DIPOLE MOMENTS         DIIS   ORB.
    1      0.000D+00      0.000D+00      -233.31153242    639.262503    0.69194   -0.75285    0.00000    0    start
    2      0.000D+00      0.838D-02      -232.72223687    587.941063   -0.74286    0.08139    0.00000    1    diag
    3      0.345D-01      0.145D-01      -233.58221194    623.772990    0.40793   -0.75264    0.00000    2    diag
    4      0.212D-01      0.223D-02      -233.59677930    621.543473    0.31935   -0.41447    0.00000    3    diag
    5      0.350D-02      0.805D-03      -233.59863919    621.330337    0.30991   -0.55651    0.00000    4    diag
    6      0.196D-02      0.293D-03      -233.59891869    621.524856    0.31401   -0.52259    0.00000    5    diag
    7      0.442D-03      0.718D-04      -233.59893468    621.515326    0.31789   -0.51906    0.00000    6    diag
    8      0.189D-03      0.108D-04      -233.59893517    621.530562    0.31648   -0.52438    0.00000    7    diag
    9      0.286D-04      0.355D-05      -233.59893523    621.530110    0.31696   -0.52290    0.00000    8    diag
   10      0.624D-05      0.451D-06      -233.59893522    621.528906    0.31698   -0.52293    0.00000    0    orth

 Final occupancy:  21

 !RKS STATE 1.1 Energy               -233.598935224488
 Nuclear energy                       198.77359127
 One-electron energy                 -709.21657690
 Two-electron energy                  310.76445311
 Density functional                   -33.92040271     PW91X=-32.46115844 PW91C= -1.45924427
 Virial quotient                       -1.00689893
 !RKS STATE 1.1 Dipole moment           0.31697711    -0.52292581     0.00000000
 Dipole moment /Debye                   0.80562269    -1.32905778     0.00000000

 Orbital energies:

         1.1          2.1          3.1          4.1          5.1          6.1          7.1          8.1          9.1         10.1
    -18.783798    -9.966575    -9.900038    -9.900013    -9.895111    -0.936584    -0.719041    -0.628150    -0.627522    -0.517163

        11.1         12.1         13.1         14.1         15.1         16.1         17.1         18.1         19.1         20.1
     -0.442567    -0.406769    -0.403827    -0.368575    -0.354990    -0.339093    -0.325153    -0.314686    -0.307878    -0.281718

        21.1         22.1         23.1
     -0.228605    -0.031508    -0.002933

 HOMO     21.1    -0.228605 =      -6.2207eV
 LUMO     22.1    -0.031508 =      -0.8574eV
 LUMO-HOMO         0.197097 =       5.3633eV


 **********************************************************************************************************************************
 DATASETS  * FILE   NREC   LENGTH (MB)   RECORD NAMES
              1      20     1151.61       500      610      700      900      950      970     1000      129      960     1100   
                                          VAR    BASINP    GEOM    SYMINP    ZMAT    AOBASIS   BASIS     P2S    ABASIS      S 
                                         1400     1410     1200     1210     1080     1600     1650     1300     1700     1800   
                                           T        V       H0       H01     AOSYM     SMH    MOLCAS    ERIS     OPER     GRID   

              2       5        3.87       700     1000      520     1800     2100   
                                         GEOM     BASIS   MCVARS    GRID      RKS  

 PROGRAMS   *        TOTAL        KS       INT
 CPU TIMES  *        73.37     53.16     20.05
 REAL TIME  *       106.30 SEC
 DISK USED  *         3.88 GB      
 **********************************************************************************************************************************


 PROGRAM * Intrinsic Basis Bonding Analysis (IBBA)          Author: G. Knizia

 Molecular orbitals read from record     2100.2  Type=RKS/CANONICAL (state 1.1)
 Fock matrix read from record            2100.2  Type=RKS/TOTAL (state 1.1)
 Orbital energies read from record       2100.2  Type=RKS/CANONICAL (state 1.1)
 Density matrix read from record         2100.2  Type=RKS/CHARGE (state 1.1)

 Number of core orbitals:           5 (   5 )
 Number of closed-shell orbitals:  16 (  16 )

 Basis set MINAO-AUTO-PP generated.      Number of basis functions:   35 

 Polarized AO type:                A = (O Ot + (1-O)(1-Ot)) P12
 Orthogonalization method:         Symmetric (Loewdin)
 Localization functional:          L = sum[A,i] <i|n_A|i>^4 -> max

 Localization group 1:  21 orbitals, occupancy  2.000
 Iterative localization: IB/PM,    7 iter; Final gradient 0.54E-08

 Bond order analysis:       [THRPRINT= 0.020]

   CEN ATOM   CEN ATOM     WIBERG.BO      RENORM.BO
     1   C  -   2   C       0.996572       0.993204
     1   C  -   5   H       0.959860       0.986138
     1   C  -   6   H       0.955040       0.979704
     1   C  -   7   H       0.955040       0.979704

     2   C  -   1   C       0.996572       0.993204
     2   C  -   9   C       0.995264       0.974051
     2   C  -   8   C       0.995264       0.974051
     2   C  -   3   O       0.936126       0.943710

     3   O  -   2   C       0.936126       0.943710
     3   O  -   4   H       0.859580       0.973125
     3   O  -   9   C       0.030490       0.015599
     3   O  -   8   C       0.030490       0.015599

     4   H  -   3   O       0.859580       0.973125

     5   H  -   1   C       0.959860       0.986138

     6   H  -   1   C       0.955040       0.979704

     7   H  -   1   C       0.955040       0.979704

     8   C  -   2   C       0.995264       0.974051
     8   C  -  14   H       0.959244       0.980603
     8   C  -  10   H       0.955642       0.979521
     8   C  -  12   H       0.954943       0.978841
     8   C  -   3   O       0.030490       0.015599

     9   C  -   2   C       0.995264       0.974051
     9   C  -  15   H       0.959244       0.980603
     9   C  -  11   H       0.955642       0.979521
     9   C  -  13   H       0.954943       0.978841
     9   C  -   3   O       0.030490       0.015599

    10   H  -   8   C       0.955642       0.979521

    11   H  -   9   C       0.955642       0.979521

    12   H  -   8   C       0.954943       0.978841

    13   H  -   9   C       0.954943       0.978841

    14   H  -   8   C       0.959244       0.980603

    15   H  -   9   C       0.959244       0.980603


 Valency analysis:

   CEN ATOM   TOT.VALENCE
     1   C       3.932015
     2   C       3.934228
     3   O       1.931673
     4   H       0.881509
     5   H       0.980163
     6   H       0.977639
     7   H       0.977639
     8   C       3.934733
     9   C       3.934733
    10   H       0.977715
    11   H       0.977715
    12   H       0.979570
    13   H       0.979570
    14   H       0.981813
    15   H       0.981813

 Total charge composition:

   CEN ATOM         s          p       ELECTRONS ->P.CHARGE
     1   C       3.04711    3.38463      6.43174   -0.43174
     2   C       2.94250    2.81048      5.75297    0.24703
     3   O       3.65502    4.90830      8.56332   -0.56332
     4   H       0.65577                 0.65577    0.34423
     5   H       0.85916                 0.85916    0.14084
     6   H       0.85046                 0.85046    0.14954
     7   H       0.85046                 0.85046    0.14954
     8   C       3.05410    3.39103      6.44513   -0.44513
     9   C       3.05410    3.39103      6.44513   -0.44513
    10   H       0.85072                 0.85072    0.14928
    11   H       0.85072                 0.85072    0.14928
    12   H       0.85707                 0.85707    0.14293
    13   H       0.85707                 0.85707    0.14293
    14   H       0.86514                 0.86514    0.13486
    15   H       0.86514                 0.86514    0.13486

 Total charge composition, AO contributions:

   CEN ATOM SHL      SPHERICAL COMPONENTS
     1   C  1s       1.99137
     1   C  2s       1.05574
     1   C  2p       1.03926    1.16638    1.17900

     2   C  1s       1.99298
     2   C  2s       0.94951
     2   C  2p       1.00778    0.79148    1.01121

     3   O  1s       1.99720
     3   O  2s       1.65782
     3   O  2p       1.47163    1.48539    1.95127

     4   H  1s       0.65577

     5   H  1s       0.85916

     6   H  1s       0.85046

     7   H  1s       0.85046

     8   C  1s       1.99147
     8   C  2s       1.06263
     8   C  2p       1.14825    1.14723    1.09555

     9   C  1s       1.99147
     9   C  2s       1.06263
     9   C  2p       1.14825    1.14723    1.09555

    10   H  1s       0.85072

    11   H  1s       0.85072

    12   H  1s       0.85707

    13   H  1s       0.85707

    14   H  1s       0.86514

    15   H  1s       0.86514

 Summary of localized orbital composition:   [THRPRINT= 0.020]

   ORB  GRP  ORB.ENERGY      CENTERS/CHARGES
     1   1   -18.628649      O  3   2.000
     2   1    -9.876944      C  2   2.000
     3   1    -9.787633      C  8   2.000
     4   1    -9.787633      C  9   2.000
     5   1    -9.781957      C  1   2.000
     6   1    -0.701923      O  3   1.347   H  4   0.642
     7   1    -0.660219      O  3   1.280   C  2   0.700
     8   1    -0.523386      C  9   1.007   C  2   0.977
     9   1    -0.523386      C  8   1.007   C  2   0.977
    10   1    -0.523207      C  1   0.990   C  2   0.984   (other: 0.025)
    11   1    -0.518862      O  3   1.980
    12   1    -0.457552      C  8   1.138   H 12   0.846
    13   1    -0.457552      C  9   1.138   H 13   0.846
    14   1    -0.455855      C  8   1.130   H 14   0.857
    15   1    -0.455855      C  9   1.130   H 15   0.857
    16   1    -0.453713      C  1   1.133   H  5   0.852
    17   1    -0.451536      C  9   1.147   H 11   0.842
    18   1    -0.451536      C  8   1.147   H 10   0.842
    19   1    -0.447345      C  1   1.146   H  6   0.842
    20   1    -0.447345      C  1   1.146   H  7   0.842
    21   1    -0.255765      O  3   1.951   (other: 0.049)

 Localized orbitals saved to record      2100.2  (orbital set 2)


 **********************************************************************************************************************************
 DATASETS  * FILE   NREC   LENGTH (MB)   RECORD NAMES
              1      20     1151.61       500      610      700      900      950      970     1000      129      960     1100   
                                          VAR    BASINP    GEOM    SYMINP    ZMAT    AOBASIS   BASIS     P2S    ABASIS      S 
                                         1400     1410     1200     1210     1080     1600     1650     1300     1700     1800   
                                           T        V       H0       H01     AOSYM     SMH    MOLCAS    ERIS     OPER     GRID   

              2       5        4.21       700     1000      520     1800     2100   
                                         GEOM     BASIS   MCVARS    GRID      RKS  

 PROGRAMS   *        TOTAL      IBBA        KS       INT
 CPU TIMES  *        73.43      0.06     53.16     20.05
 REAL TIME  *       107.04 SEC
 DISK USED  *         3.88 GB      
 **********************************************************************************************************************************
 Molecular orbitals read from record     2100.2  Type=RKS/LOCAL(IBO)  
 Occupation numbers read from record     2100.2  Type=RKS/LOCAL(IBO)  
 Orbital energies read from record       2100.2  Type=RKS/LOCAL(IBO)  
 Redundancy group numbers read from rec  2100.2  Type=RKS/LOCAL(IBO)  

 IBBA/aug-cc-pVDZ energy=      0.000000000000

        KS-SCF  
   -233.59893522
 **********************************************************************************************************************************
 Molpro calculation terminated
