
 Primary working directories    : /tmp/sb13343
 Secondary working directories  : /tmp/sb13343
 Wavefunction directory         : /panfs/panasas01/chem/sb13343/wfu/
 Main file repository           : /tmp/sb13343/

 SHA1      : b4a5b34a9e711420743f49e6833241d17c61fb3c
 NAME      : 2099.9.b4a5b34
 ARCHNAME  : linux/x86_64_openmp
 FC        : /cm/shared/languages/GCC-6.1/bin/gfortran
 BLASLIB   : -lblas
 id        : simonbennie

 Nodes     nprocs
 node33-018    1

 Using customized tuning parameters: mindgm=1; mindgv=20; mindgc=4; mindgr=1; noblas=0; minvec=7
 default implementation of scratch files=df  

 memory,500,m
 geomtyp=xyz
 nosym
 noorient
 geometry={
 C          0.00000        0.00000        0.00000
 C          0.00000        0.00000        1.53307
 O          1.40344        0.00000        1.86307
 C          1.76314        0.00000        3.22887
 H         -1.02289        0.00000       -0.39176
 H          0.51995       -0.88625       -0.37815
 H          0.51995        0.88625       -0.37815
 H          2.85677        0.00000        3.25413
 H          1.40708       -0.89217        3.76475
 H          1.40708        0.89217        3.76475
 C         -0.69252       -1.26694        2.06222
 C         -0.69252        1.26694        2.06222
 H         -0.15366       -2.16088        1.72982
 H         -0.15366        2.16088        1.72982
 H         -1.72011       -1.32515        1.68649
 H         -1.72011        1.32515        1.68649
 H         -0.74365       -1.28188        3.15638
 H         -0.74365        1.28188        3.15638
 }
 basis={ default,svp }
 {ks,PBEREV,direct;wf,50,1,0}
 {ibba,bonds=1}

 Variables initialized (895), CPU time= 0.01 sec
 Commands  initialized (725), CPU time= 0.01 sec, 591 directives.
 Default parameters read. Elapsed time= 0.88 sec

 Checking input...
 Passed
1


                                         ***  PROGRAM SYSTEM MOLPRO  ***
                                       Copyright, TTI GmbH Stuttgart, 2015
                                    Version 2099.9 linked May 26 2017 16:03:21


 **********************************************************************************************************************************
 LABEL *                                                                                 
  64 bit serial version                                                                  DATE: 09-Jun-17          TIME: 01:58:54  
 **********************************************************************************************************************************

 SHA1:             b4a5b34a9e711420743f49e6833241d17c61fb3c
 **********************************************************************************************************************************
 SETTING GEOMTYP        =    XYZ

 Variable memory set to  500000000 words,  buffer space 

 ZSYMEL=NOSYM

 SETTING BASIS          =    SVP


 Recomputing integrals since basis changed


 Using spherical harmonics

 Library entry C      S def2-SVP             selected for orbital group  1
 Library entry C      P def2-SVP             selected for orbital group  1
 Library entry C      D def2-SVP             selected for orbital group  1
 Library entry O      S def2-SVP             selected for orbital group  2
 Library entry O      P def2-SVP             selected for orbital group  2
 Library entry O      D def2-SVP             selected for orbital group  2
 Library entry H      S def2-SVP             selected for orbital group  4
 Library entry H      P def2-SVP             selected for orbital group  4


 PROGRAM * SEWARD (Integral evaluation for generally contracted gaussian basis sets)     Author: Roland Lindh, 1990

 Geometry written to block  1 of record 700


 Point group  C1  



 ATOMIC COORDINATES

 NR  ATOM    CHARGE       X              Y              Z

   1  C       6.00    0.000000000    0.000000000    0.000000000
   2  C       6.00    0.000000000    0.000000000    2.897082430
   3  O       8.00    2.652117232    0.000000000    3.520692051
   4  C       6.00    3.331851719    0.000000000    6.101679992
   5  H       1.00   -1.932981956    0.000000000   -0.740319107
   6  H       1.00    0.982563098   -1.674769778   -0.714599934
   7  H       1.00    0.982563098    1.674769778   -0.714599934
   8  H       1.00    5.398512901    0.000000000    6.149414474
   9  H       1.00    2.658995835   -1.685956957    7.114346427
  10  H       1.00    2.658995835    1.685956957    7.114346427
  11  C       6.00   -1.308673136   -2.394169616    3.897031009
  12  C       6.00   -1.308673136    2.394169616    3.897031009
  13  H       1.00   -0.290375316   -4.083471388    3.268886045
  14  H       1.00   -0.290375316    4.083471388    3.268886045
  15  H       1.00   -3.250536804   -2.504170574    3.187004212
  16  H       1.00   -3.250536804    2.504170574    3.187004212
  17  H       1.00   -1.405294833   -2.422402125    5.964693745
  18  H       1.00   -1.405294833    2.422402125    5.964693745

 Bond lengths in Bohr (Angstrom)

 1-2  2.897082430  1-5  2.069901355  1-6  2.069042560  1-7  2.069042560  2-3  2.724447609
     ( 1.533070000)     ( 1.095344626)     ( 1.094890171)     ( 1.094890171)     ( 1.441715587)

  2-11  2.905954351   2-12  2.905954351   3- 4  2.668995640   4- 8  2.067212379   4- 9  2.078624355
       ( 1.537764818)       ( 1.537764818)       ( 1.412371669)       ( 1.093921681)       ( 1.099960639)

  4-10  2.078624355  11-13  2.070081404  11-15  2.070524757  11-17  2.070111596  12-14  2.070081404
       ( 1.099960639)       ( 1.095439904)       ( 1.095674516)       ( 1.095455880)       ( 1.095439904)

 12-16  2.070524757  12-18  2.070111596
       ( 1.095674516)       ( 1.095455880)

 Bond angles

  1- 2- 3  103.23196371   1- 2-11  110.12706952   1- 2-12  110.12706952   2- 1- 5  110.95650426

  2- 1- 6  110.20481748   2- 1- 7  110.20481748   2- 3- 4  117.98647004   2-11-13  110.26679927

  2-11-15  110.37287188   2-11-17  112.08316935   2-12-14  110.26679927   2-12-16  110.37287188

  2-12-18  112.08316935   3- 2-11  111.07703285   3- 2-12  111.07703285   3- 4- 8  106.07765410

  3- 4- 9  112.87219182   3- 4-10  112.87219182   5- 1- 6  108.65976572   5- 1- 7  108.65976572

  6- 1- 7  108.08288210   8- 4- 9  108.20190897   8- 4-10  108.20190897   9- 4-10  108.40564999

 11- 2-12  110.95103964  13-11-15  108.29648994  13-11-17  108.35544687  14-12-16  108.29648994

 14-12-18  108.35544687  15-11-17  107.33851825  16-12-18  107.33851825

 NUCLEAR CHARGE:                   50
 NUMBER OF PRIMITIVE AOS:         234
 NUMBER OF SYMMETRY AOS:          228
 NUMBER OF CONTRACTIONS:          144   ( 144A   )
 NUMBER OF CORE ORBITALS:           6   (   6A   )
 NUMBER OF VALENCE ORBITALS:       36   (  36A   )


 NUCLEAR REPULSION ENERGY  270.15500869


 Eigenvalues of metric

         1 0.176E-02 0.508E-02 0.513E-02 0.102E-01 0.124E-01 0.215E-01 0.221E-01 0.252E-01


 Contracted 2-electron integrals neglected if value below      1.0D-11
 AO integral compression algorithm  1   Integral accuracy      1.0D-11

     186.384 MB (compressed) written to integral file ( 41.3%)


 NUMBER OF SORTED TWO-ELECTRON INTEGRALS:   54502020.     BUFFER LENGTH:  32768
 NUMBER OF SEGMENTS:   4  SEGMENT LENGTH:   15999503      RECORD LENGTH: 524288

 Memory used in sort:      16.56 MW

 SORT1 READ    56333432. AND WROTE    45703433. INTEGRALS IN    132 RECORDS. CPU TIME:     0.80 SEC, REAL TIME:     1.61 SEC
 SORT2 READ    45703433. AND WROTE    54502020. INTEGRALS IN    711 RECORDS. CPU TIME:     1.14 SEC, REAL TIME:     7.60 SEC

 FILE SIZES:   FILE 1:   217.4 MBYTE,  FILE 4:   553.7 MBYTE,   TOTAL:    771.1 MBYTE

 OPERATOR DM      FOR CENTER  0  COORDINATES:    0.000000    0.000000    0.000000


 **********************************************************************************************************************************
 DATASETS  * FILE   NREC   LENGTH (MB)   RECORD NAMES
              1      19      194.45       500      610      700      900      950      970     1000      129      960     1100   
                                          VAR    BASINP    GEOM    SYMINP    ZMAT    AOBASIS   BASIS     P2S    ABASIS      S 
                                         1400     1410     1200     1210     1080     1600     1650     1300     1700   
                                           T        V       H0       H01     AOSYM     SMH    MOLCAS    ERIS     OPER   

 PROGRAMS   *        TOTAL       INT
 CPU TIMES  *         7.94      7.78
 REAL TIME  *        16.97 SEC
 DISK USED  *       771.70 MB      
 **********************************************************************************************************************************

 Density functional group PBEREV=PBEXREV+PBEC
 Functional: PBEXREV(Automatically generated (new) PBEXREV)                    Gradient terms: 1
 Functional: PBEC(Automatically generated (new) PBEC)                          Gradient terms: 1
 Use grid at  1800.2

 Functional: PBEXREV                   Factor:  1.0000
 Functional: PBEC                      Factor:  1.0000

 Generated new metagrid on record  1800.2 with target accuracy 1.0D-06 and 66012 points in CPU time    2.0
 Computed new grid on record 1800.1 in CPU time    2.3
  118710 words reserved for DFT integration

 PROGRAM * RKS-SCF (Restricted closed shell Kohn-Sham)     Authors: W. Meyer, H.-J. Werner, P.J. Knowles, 1993

 NUMBER OF ELECTRONS:      25+   25-    SPACE SYMMETRY=1    SPIN SYMMETRY: Singlet 
 CONVERGENCE THRESHOLDS:    1.00E-05 (Density)    1.00E-06 (Energy)
 MAX. NUMBER OF ITERATIONS:       60
 INTERPOLATION TYPE:            DIIS
 INTERPOLATION STEPS:              2 (START)      1 (STEP)
 LEVEL SHIFTS:                  0.00 (CLOSED)  0.00 (OPEN) 



 Use fine grid record 1800.2 for energy threshold  1.0D-06
 Orbital guess generated from atomic densities. Full valence occupancy:   25

 Molecular orbital dump at record        2100.2

 Initial occupancy:  25

 ITERATION    DDIFF          GRAD             ENERGY        2-EL.EN.            DIPOLE MOMENTS         DIIS   ORB.
    1      0.000D+00      0.000D+00      -272.39246429    820.562826   -0.64139    0.00000    0.61133    0    start
    2      0.000D+00      0.923D-02      -272.04746911    772.114269    0.26099   -0.00000   -0.37619    1    diag
    3      0.273D-01      0.136D-01      -272.67141376    803.323105   -0.42492    0.00000    0.41735    2    diag
    4      0.198D-01      0.150D-02      -272.67626291    801.282548   -0.27877    0.00000    0.27016    3    diag
    5      0.191D-02      0.704D-03      -272.67739253    801.455534   -0.35449    0.00000    0.30246    4    diag
    6      0.636D-03      0.172D-03      -272.67744936    801.515923   -0.33150    0.00000    0.29551    5    diag
    7      0.193D-03      0.788D-04      -272.67746518    801.500596   -0.33529    0.00000    0.29844    6    diag
    8      0.647D-04      0.694D-05      -272.67746529    801.506482   -0.33627    0.00000    0.29973    7    diag
    9      0.946D-05      0.286D-05      -272.67746527    801.507134   -0.33569    0.00000    0.29838    0    orth

 Final occupancy:  25

 !RKS STATE 1.1 Energy               -272.677465271823
 Nuclear energy                       270.15500869
 One-electron energy                 -903.50825516
 Two-electron energy                  400.75356715
 Density functional                   -40.07778596     PBEXREV=-38.44078875 PBEC= -1.63699721
 Virial quotient                       -1.01126458
 !RKS STATE 1.1 Dipole moment          -0.33568549     0.00000000     0.29837766
 Dipole moment /Debye                  -0.85317153     0.00000000     0.75835070

 Orbital energies:

         1.1          2.1          3.1          4.1          5.1          6.1          7.1          8.1          9.1         10.1
    -18.756746    -9.957913    -9.939395    -9.895294    -9.895285    -9.890710    -0.920942    -0.714630    -0.620225    -0.614755

        11.1         12.1         13.1         14.1         15.1         16.1         17.1         18.1         19.1         20.1
     -0.594565    -0.485033    -0.429680    -0.407253    -0.402798    -0.377609    -0.361302    -0.348185    -0.332757    -0.325130

        21.1         22.1         23.1         24.1         25.1         26.1         27.1
     -0.316840    -0.296308    -0.295800    -0.247117    -0.198787     0.034681     0.062061

 HOMO     25.1    -0.198787 =      -5.4093eV
 LUMO     26.1     0.034681 =       0.9437eV
 LUMO-HOMO         0.233467 =       6.3530eV


 **********************************************************************************************************************************
 DATASETS  * FILE   NREC   LENGTH (MB)   RECORD NAMES
              1      20      196.57       500      610      700      900      950      970     1000      129      960     1100   
                                          VAR    BASINP    GEOM    SYMINP    ZMAT    AOBASIS   BASIS     P2S    ABASIS      S 
                                         1400     1410     1200     1210     1080     1600     1650     1300     1700     1800   
                                           T        V       H0       H01     AOSYM     SMH    MOLCAS    ERIS     OPER     GRID   

              2       5        3.48       700     1000      520     1800     2100   
                                         GEOM     BASIS   MCVARS    GRID      RKS  

 PROGRAMS   *        TOTAL        KS       INT
 CPU TIMES  *        29.23     21.29      7.78
 REAL TIME  *        38.67 SEC
 DISK USED  *       771.70 MB      
 **********************************************************************************************************************************


 PROGRAM * Intrinsic Basis Bonding Analysis (IBBA)          Author: G. Knizia

 Molecular orbitals read from record     2100.2  Type=RKS/CANONICAL (state 1.1)
 Fock matrix read from record            2100.2  Type=RKS/TOTAL (state 1.1)
 Orbital energies read from record       2100.2  Type=RKS/CANONICAL (state 1.1)
 Density matrix read from record         2100.2  Type=RKS/CHARGE (state 1.1)

 Number of core orbitals:           6 (   6 )
 Number of closed-shell orbitals:  19 (  19 )

 Basis set MINAO-AUTO-PP generated.      Number of basis functions:   42 

 Polarized AO type:                A = (O Ot + (1-O)(1-Ot)) P12
 Orthogonalization method:         Symmetric (Loewdin)
 Localization functional:          L = sum[A,i] <i|n_A|i>^4 -> max

 Localization group 1:  25 orbitals, occupancy  2.000
 Iterative localization: IB/PM,    7 iter; Final gradient 0.33E-08

 Bond order analysis:       [THRPRINT= 0.020]

   CEN ATOM   CEN ATOM     WIBERG.BO      RENORM.BO
     1   C  -   2   C       0.995935       0.994664
     1   C  -   5   H       0.963099       0.984816
     1   C  -   7   H       0.958830       0.979938
     1   C  -   6   H       0.958830       0.979938

     2   C  -   1   C       0.995935       0.994664
     2   C  -  12   C       0.991597       0.970175
     2   C  -  11   C       0.991597       0.970175
     2   C  -   3   O       0.930169       0.932384

     3   O  -   4   C       0.996619       1.015807
     3   O  -   2   C       0.930169       0.932384
     3   O  -   9   H       0.036149       0.021414
     3   O  -  10   H       0.036149       0.021414
     3   O  -  12   C       0.028303       0.014779
     3   O  -  11   C       0.028303       0.014779

     4   C  -   3   O       0.996619       1.015807
     4   C  -   8   H       0.955881       0.976536
     4   C  -   9   H       0.946943       0.932044
     4   C  -  10   H       0.946943       0.932044

     5   H  -   1   C       0.963099       0.984816

     6   H  -   1   C       0.958830       0.979938

     7   H  -   1   C       0.958830       0.979938

     8   H  -   4   C       0.955881       0.976536

     9   H  -   4   C       0.946943       0.932044
     9   H  -   3   O       0.036149       0.021414

    10   H  -   4   C       0.946943       0.932044
    10   H  -   3   O       0.036149       0.021414

    11   C  -   2   C       0.991597       0.970175
    11   C  -  17   H       0.961283       0.979736
    11   C  -  15   H       0.959358       0.984944
    11   C  -  13   H       0.959237       0.979960
    11   C  -   3   O       0.028303       0.014779

    12   C  -   2   C       0.991597       0.970175
    12   C  -  18   H       0.961283       0.979736
    12   C  -  16   H       0.959358       0.984944
    12   C  -  14   H       0.959237       0.979960
    12   C  -   3   O       0.028303       0.014779

    13   H  -  11   C       0.959237       0.979960

    14   H  -  12   C       0.959237       0.979960

    15   H  -  11   C       0.959358       0.984944

    16   H  -  12   C       0.959358       0.984944

    17   H  -  11   C       0.961283       0.979736

    18   H  -  12   C       0.961283       0.979736


 Valency analysis:

   CEN ATOM   TOT.VALENCE
     1   C       3.940862
     2   C       3.939392
     3   O       2.130389
     4   C       3.872221
     5   H       0.983826
     6   H       0.981245
     7   H       0.981245
     8   H       0.978463
     9   H       0.988081
    10   H       0.988081
    11   C       3.940934
    12   C       3.940934
    13   H       0.981510
    14   H       0.981510
    15   H       0.981893
    16   H       0.981893
    17   H       0.983818
    18   H       0.983818

 Total charge composition:

   CEN ATOM         s          p       ELECTRONS ->P.CHARGE
     1   C       3.02964    3.36567      6.39531   -0.39531
     2   C       2.93035    2.83475      5.76509    0.23491
     3   O       3.60639    4.77154      8.37793   -0.37793
     4   C       3.01842    3.17541      6.19383   -0.19383
     5   H       0.87282                 0.87282    0.12718
     6   H       0.86305                 0.86305    0.13695
     7   H       0.86305                 0.86305    0.13695
     8   H       0.85325                 0.85325    0.14675
     9   H       0.89083                 0.89083    0.10917
    10   H       0.89083                 0.89083    0.10917
    11   C       3.02974    3.38502      6.41476   -0.41476
    12   C       3.02974    3.38502      6.41476   -0.41476
    13   H       0.86402                 0.86402    0.13598
    14   H       0.86402                 0.86402    0.13598
    15   H       0.86544                 0.86544    0.13456
    16   H       0.86544                 0.86544    0.13456
    17   H       0.87279                 0.87279    0.12721
    18   H       0.87279                 0.87279    0.12721

 Total charge composition, AO contributions:

   CEN ATOM SHL      SPHERICAL COMPONENTS
     1   C  1s       1.99110
     1   C  2s       1.03854
     1   C  2p       1.15587    1.16887    1.04092

     2   C  1s       1.99278
     2   C  2s       0.93756
     2   C  2p       0.80253    1.01682    1.01539

     3   O  1s       1.99729
     3   O  2s       1.60910
     3   O  2p       1.42750    1.90275    1.44129

     4   C  1s       1.99174
     4   C  2s       1.02668
     4   C  2p       1.15594    1.16702    0.85245

     5   H  1s       0.87282

     6   H  1s       0.86305

     7   H  1s       0.86305

     8   H  1s       0.85325

     9   H  1s       0.89083

    10   H  1s       0.89083

    11   C  1s       1.99115
    11   C  2s       1.03859
    11   C  2p       1.14141    1.09507    1.14854

    12   C  1s       1.99115
    12   C  2s       1.03859
    12   C  2p       1.14141    1.09507    1.14854

    13   H  1s       0.86402

    14   H  1s       0.86402

    15   H  1s       0.86544

    16   H  1s       0.86544

    17   H  1s       0.87279

    18   H  1s       0.87279

 Summary of localized orbital composition:   [THRPRINT= 0.020]

   ORB  GRP  ORB.ENERGY      CENTERS/CHARGES
     1   1   -18.618130      O  3   2.000
     2   1    -9.869188      C  2   2.000
     3   1    -9.832505      C  4   2.000
     4   1    -9.783754      C 12   2.000
     5   1    -9.783754      C 11   2.000
     6   1    -9.778531      C  1   2.000
     7   1    -0.687170      O  3   1.244   C  4   0.748
     8   1    -0.659956      O  3   1.267   C  2   0.707   (other: 0.026)
     9   1    -0.513038      C 11   1.007   C  2   0.977
    10   1    -0.513038      C 12   1.007   C  2   0.977
    11   1    -0.510662      C  1   0.990   C  2   0.986   (other: 0.025)
    12   1    -0.472069      O  3   1.958   (other: 0.042)
    13   1    -0.460315      C  4   1.129   H 10   0.869
    14   1    -0.460315      C  4   1.129   H  9   0.869
    15   1    -0.458699      C  4   1.145   H  8   0.846
    16   1    -0.446876      C 11   1.127   H 15   0.857
    17   1    -0.446876      C 12   1.127   H 16   0.857
    18   1    -0.445141      C 12   1.124   H 18   0.864
    19   1    -0.445141      C 11   1.124   H 17   0.864
    20   1    -0.443299      C  1   1.121   H  5   0.865
    21   1    -0.441348      C 11   1.133   H 13   0.855
    22   1    -0.441348      C 12   1.133   H 14   0.855
    23   1    -0.436539      C  1   1.134   H  7   0.854
    24   1    -0.436539      C  1   1.134   H  6   0.854
    25   1    -0.240824      O  3   1.903   C  2   0.021   C  4   0.020   (other: 0.057)

 Localized orbitals saved to record      2100.2  (orbital set 2)


 **********************************************************************************************************************************
 DATASETS  * FILE   NREC   LENGTH (MB)   RECORD NAMES
              1      20      196.57       500      610      700      900      950      970     1000      129      960     1100   
                                          VAR    BASINP    GEOM    SYMINP    ZMAT    AOBASIS   BASIS     P2S    ABASIS      S 
                                         1400     1410     1200     1210     1080     1600     1650     1300     1700     1800   
                                           T        V       H0       H01     AOSYM     SMH    MOLCAS    ERIS     OPER     GRID   

              2       5        3.65       700     1000      520     1800     2100   
                                         GEOM     BASIS   MCVARS    GRID      RKS  

 PROGRAMS   *        TOTAL      IBBA        KS       INT
 CPU TIMES  *        29.29      0.05     21.29      7.78
 REAL TIME  *        38.86 SEC
 DISK USED  *       771.70 MB      
 **********************************************************************************************************************************
 Molecular orbitals read from record     2100.2  Type=RKS/LOCAL(IBO)  
 Occupation numbers read from record     2100.2  Type=RKS/LOCAL(IBO)  
 Orbital energies read from record       2100.2  Type=RKS/LOCAL(IBO)  
 Redundancy group numbers read from rec  2100.2  Type=RKS/LOCAL(IBO)  

 IBBA/SVP energy=      0.000000000000

        KS-SCF  
   -272.67746527
 **********************************************************************************************************************************
 Molpro calculation terminated
