
 Primary working directories    : /local
 Secondary working directories  : /local
 Wavefunction directory         : /local/
 Main file repository           : /local/

 SHA1      : b4a5b34a9e711420743f49e6833241d17c61fb3c
 NAME      : 2099.9.b4a5b34
 ARCHNAME  : linux/x86_64_openmp
 FC        : /cm/shared/languages/GCC-6.1/bin/gfortran
 BLASLIB   : -lblas
 id        : simonbennie

 Nodes     nprocs
 node33-038    1

 Using customized tuning parameters: mindgm=1; mindgv=20; mindgc=4; mindgr=1; noblas=0; minvec=7
 default implementation of scratch files=df  

 memory,500,m
 geomtyp=xyz
 nosym
 noorient
 geometry={
 C         -1.53233        0.02247        0.00000
 C         -0.00192        0.01421        0.00000
 O          0.37239        1.40356        0.00000
 H          1.34248        1.44036        0.00000
 H         -1.92991       -0.99819        0.00000
 H         -1.90797        0.54382       -0.88653
 H         -1.90797        0.54382        0.88653
 C          0.54303       -0.66466       -1.26580
 C          0.54303       -0.66466        1.26580
 H          0.17836       -0.14752       -2.15943
 H          0.17836       -0.14752        2.15943
 H          0.23752       -1.71600       -1.32280
 H          0.23752       -1.71600        1.32280
 H          1.64084       -0.63767       -1.28032
 H          1.64084       -0.63767        1.28032
 }
 basis={ default,avdz }
 {ks,B3LYP3,direct;wf,42,1,0}
 {ibba,bonds=1}

 Variables initialized (895), CPU time= 0.00 sec
 Commands  initialized (725), CPU time= 0.01 sec, 591 directives.
 Default parameters read. Elapsed time= 0.08 sec

 Checking input...
 Passed
1


                                         ***  PROGRAM SYSTEM MOLPRO  ***
                                       Copyright, TTI GmbH Stuttgart, 2015
                                    Version 2099.9 linked May 26 2017 16:03:21


 **********************************************************************************************************************************
 LABEL *                                                                                 
  64 bit serial version                                                                  DATE: 12-Jun-17          TIME: 16:25:14  
 **********************************************************************************************************************************

 SHA1:             b4a5b34a9e711420743f49e6833241d17c61fb3c
 **********************************************************************************************************************************
 SETTING GEOMTYP        =    XYZ

 Variable memory set to  500000000 words,  buffer space 

 ZSYMEL=NOSYM

 SETTING BASIS          =    AVDZ


 Recomputing integrals since basis changed


 Using spherical harmonics

 Library entry C      S aug-cc-pVDZ          selected for orbital group  1
 Library entry C      P aug-cc-pVDZ          selected for orbital group  1
 Library entry C      D aug-cc-pVDZ          selected for orbital group  1
 Library entry O      S aug-cc-pVDZ          selected for orbital group  2
 Library entry O      P aug-cc-pVDZ          selected for orbital group  2
 Library entry O      D aug-cc-pVDZ          selected for orbital group  2
 Library entry H      S aug-cc-pVDZ          selected for orbital group  3
 Library entry H      P aug-cc-pVDZ          selected for orbital group  3


 PROGRAM * SEWARD (Integral evaluation for generally contracted gaussian basis sets)     Author: Roland Lindh, 1990

 Geometry written to block  1 of record 700


 Point group  C1  



 ATOMIC COORDINATES

 NR  ATOM    CHARGE       X              Y              Z

   1  C       6.00   -2.895684032    0.042462146    0.000000000
   2  C       6.00   -0.003628274    0.026853008    0.000000000
   3  O       8.00    0.703715112    2.652343999    0.000000000
   4  H       1.00    2.536919528    2.721885921    0.000000000
   5  H       1.00   -3.647001345   -1.886305720    0.000000000
   6  H       1.00   -3.605540754    1.027670861   -1.675298901
   7  H       1.00   -3.605540754    1.027670861    1.675298901
   8  C       6.00    1.026177977   -1.256025366   -2.392015328
   9  C       6.00    1.026177977   -1.256025366    2.392015328
  10  H       1.00    0.337051552   -0.278772398   -4.080731285
  11  H       1.00    0.337051552   -0.278772398    4.080731285
  12  H       1.00    0.448847749   -3.242770030   -2.499729718
  13  H       1.00    0.448847749   -3.242770030    2.499729718
  14  H       1.00    3.100738214   -1.205021658   -2.419454152
  15  H       1.00    3.100738214   -1.205021658    2.419454152

 Bond lengths in Bohr (Angstrom)

 1-2  2.892097881  1-5  2.069933136  1-6  2.069096224  1-7  2.069096224  2-3  2.719106031
     ( 1.530432290)     ( 1.095361444)     ( 1.094918569)     ( 1.094918569)     ( 1.438888946)

  2- 8  2.903104402   2- 9  2.903104402   3- 4  1.834522965   8-10  2.069222119   8-12  2.071730422
       ( 1.536256691)       ( 1.536256691)       ( 0.970787746)       ( 1.094985190)       ( 1.096312526)

  8-14  2.075368508   9-11  2.069222119   9-13  2.071730422   9-15  2.075368508
       ( 1.098237719)       ( 1.094985190)       ( 1.096312526)       ( 1.098237719)

 Bond angles

  1-2-3  104.76902697   1-2-8  110.92255387   1-2-9  110.92255387   2-1-5  110.97328220

  2- 1- 6  110.22090701   2- 1- 7  110.22090701   2- 3- 4  107.25071562   2- 8-10  110.21836376

  2- 8-12  111.57747468   2- 8-14  110.77023896   2- 9-11  110.21836376   2- 9-13  111.57747468

  2- 9-15  110.77023896   3- 2- 8  109.53648747   3- 2- 9  109.53648747   5- 1- 6  108.61190457

  5- 1- 7  108.61190457   6- 1- 7  108.12870271   8- 2- 9  110.96453384  10- 8-12  108.52192632

 10- 8-14  108.08997829  11- 9-13  108.52192632  11- 9-15  108.08997829  12- 8-14  107.54424578

 13- 9-15  107.54424578

 NUCLEAR CHARGE:                   42
 NUMBER OF PRIMITIVE AOS:         295
 NUMBER OF SYMMETRY AOS:          285
 NUMBER OF CONTRACTIONS:          205   ( 205A   )
 NUMBER OF CORE ORBITALS:           5   (   5A   )
 NUMBER OF VALENCE ORBITALS:       30   (  30A   )


 NUCLEAR REPULSION ENERGY  198.77359127


 Eigenvalues of metric

         1 0.151E-04 0.552E-04 0.579E-04 0.110E-03 0.111E-03 0.217E-03 0.237E-03 0.259E-03


 Contracted 2-electron integrals neglected if value below      1.0D-12
 AO integral compression algorithm  1   Integral accuracy      1.0D-12

     1203.503 MB (compressed) written to integral file ( 61.3%)


 NUMBER OF SORTED TWO-ELECTRON INTEGRALS:  222932170.     BUFFER LENGTH:  32768
 NUMBER OF SEGMENTS:  14  SEGMENT LENGTH:   15999503      RECORD LENGTH: 524288

 Memory used in sort:      16.56 MW

 SORT1 READ   245224724. AND WROTE   218324786. INTEGRALS IN    630 RECORDS. CPU TIME:     2.88 SEC, REAL TIME:     5.79 SEC
 SORT2 READ   218324786. AND WROTE   222932170. INTEGRALS IN   4591 RECORDS. CPU TIME:     4.42 SEC, REAL TIME:     6.09 SEC

 FILE SIZES:   FILE 1:  1235.3 MBYTE,  FILE 4:  2642.4 MBYTE,   TOTAL:   3877.7 MBYTE

 OPERATOR DM      FOR CENTER  0  COORDINATES:    0.000000    0.000000    0.000000


 **********************************************************************************************************************************
 DATASETS  * FILE   NREC   LENGTH (MB)   RECORD NAMES
              1      19     1149.90       500      610      700      900      950      970     1000      129      960     1100   
                                          VAR    BASINP    GEOM    SYMINP    ZMAT    AOBASIS   BASIS     P2S    ABASIS      S 
                                         1400     1410     1200     1210     1080     1600     1650     1300     1700   
                                           T        V       H0       H01     AOSYM     SMH    MOLCAS    ERIS     OPER   

 PROGRAMS   *        TOTAL       INT
 CPU TIMES  *        18.79     18.65
 REAL TIME  *        45.60 SEC
 DISK USED  *         3.88 GB      
 **********************************************************************************************************************************

 Density functional group B3LYP3=B88+DIRAC+LYP+VWN3
 Functional: B88(Automatically generated (new) B88)                            Gradient terms: 1
 Functional: DIRAC(Automatically generated (new) DIRAC)                        Gradient terms: 0
 Functional: LYP(Automatically generated (new) LYP)                            Gradient terms: 1
 Functional: VWN3(Automatically generated (new) VWN3)                          Gradient terms: 0
 Use grid at  1800.2


 Exact exchange will be calculated, factor:  0.2000

 Functional: B88                       Factor:  0.7200
 Functional: DIRAC                     Factor:  0.0800
 Functional: LYP                       Factor:  0.8100
 Functional: VWN3                      Factor:  0.1900

 Generated new metagrid on record  1800.2 with target accuracy 1.0D-06 and 53396 points in CPU time    1.6
 Computed new grid on record 1800.1 in CPU time    1.8
  167289 words reserved for DFT integration

 PROGRAM * RKS-SCF (Restricted closed shell Kohn-Sham)     Authors: W. Meyer, H.-J. Werner, P.J. Knowles, 1993

 NUMBER OF ELECTRONS:      21+   21-    SPACE SYMMETRY=1    SPIN SYMMETRY: Singlet 
 CONVERGENCE THRESHOLDS:    1.00E-05 (Density)    1.00E-06 (Energy)
 MAX. NUMBER OF ITERATIONS:       60
 INTERPOLATION TYPE:            DIIS
 INTERPOLATION STEPS:              2 (START)      1 (STEP)
 LEVEL SHIFTS:                  0.00 (CLOSED)  0.00 (OPEN) 



 Use fine grid record 1800.2 for energy threshold  1.0D-06
 Orbital guess generated from atomic densities. Full valence occupancy:   35

 Molecular orbital dump at record        2100.2

 Initial occupancy:  21

 ITERATION    DDIFF          GRAD             ENERGY        2-EL.EN.            DIPOLE MOMENTS         DIIS   ORB.
    1      0.000D+00      0.000D+00      -233.50306300    622.894363    0.69754   -0.80682    0.00000    0    start
    2      0.000D+00      0.714D-02      -233.35542993    588.519850   -0.27392   -0.13611    0.00000    1    diag
    3      0.259D-01      0.951D-02      -233.70297962    609.466451    0.36871   -0.65101    0.00000    2    diag
    4      0.138D-01      0.122D-02      -233.70734267    608.537224    0.32870   -0.49958    0.00000    3    diag
    5      0.176D-02      0.332D-03      -233.70766364    608.421714    0.32749   -0.55529    0.00000    4    diag
    6      0.523D-03      0.105D-03      -233.70770013    608.525069    0.32890   -0.54496    0.00000    5    diag
    7      0.157D-03      0.262D-04      -233.70770233    608.515824    0.32948   -0.54308    0.00000    6    diag
    8      0.618D-04      0.315D-05      -233.70770238    608.521221    0.32938   -0.54439    0.00000    7    diag
    9      0.729D-05      0.806D-06      -233.70770238    608.521484    0.32951   -0.54384    0.00000    0    orth

 Final occupancy:  21

 !RKS STATE 1.1 Energy               -233.707702378308
 Nuclear energy                       198.77359127
 One-electron energy                 -709.19304007
 Two-electron energy                  304.26074183
 SCF exchange energy                  -32.50087095     Factor= 0.2000
 Density functional                   -27.54899541     B88=-32.54615621 DIRAC=-29.32819722 LYP= -1.37229050 VWN3= -3.46290451
 Virial quotient                       -1.00705875
 !RKS STATE 1.1 Dipole moment           0.32951224    -0.54384083     0.00000000
 Dipole moment /Debye                   0.83748171    -1.38221498     0.00000000

 Orbital energies:

         1.1          2.1          3.1          4.1          5.1          6.1          7.1          8.1          9.1         10.1
    -19.145936   -10.243933   -10.178326   -10.178305   -10.173023    -1.024193    -0.792049    -0.695795    -0.694778    -0.573017

        11.1         12.1         13.1         14.1         15.1         16.1         17.1         18.1         19.1         20.1
     -0.493193    -0.455520    -0.452491    -0.416249    -0.401453    -0.383664    -0.370169    -0.359714    -0.352328    -0.324856

        21.1         22.1         23.1
     -0.277089    -0.016755     0.007886

 HOMO     21.1    -0.277089 =      -7.5400eV
 LUMO     22.1    -0.016755 =      -0.4559eV
 LUMO-HOMO         0.260335 =       7.0841eV


 **********************************************************************************************************************************
 DATASETS  * FILE   NREC   LENGTH (MB)   RECORD NAMES
              1      20     1151.61       500      610      700      900      950      970     1000      129      960     1100   
                                          VAR    BASINP    GEOM    SYMINP    ZMAT    AOBASIS   BASIS     P2S    ABASIS      S 
                                         1400     1410     1200     1210     1080     1600     1650     1300     1700     1800   
                                           T        V       H0       H01     AOSYM     SMH    MOLCAS    ERIS     OPER     GRID   

              2       5        3.87       700     1000      520     1800     2100   
                                         GEOM     BASIS   MCVARS    GRID      RKS  

 PROGRAMS   *        TOTAL        KS       INT
 CPU TIMES  *        74.90     56.11     18.65
 REAL TIME  *       103.68 SEC
 DISK USED  *         3.88 GB      
 **********************************************************************************************************************************


 PROGRAM * Intrinsic Basis Bonding Analysis (IBBA)          Author: G. Knizia

 Molecular orbitals read from record     2100.2  Type=RKS/CANONICAL (state 1.1)
 Fock matrix read from record            2100.2  Type=RKS/TOTAL (state 1.1)
 Orbital energies read from record       2100.2  Type=RKS/CANONICAL (state 1.1)
 Density matrix read from record         2100.2  Type=RKS/CHARGE (state 1.1)

 Number of core orbitals:           5 (   5 )
 Number of closed-shell orbitals:  16 (  16 )

 Basis set MINAO-AUTO-PP generated.      Number of basis functions:   35 

 Polarized AO type:                A = (O Ot + (1-O)(1-Ot)) P12
 Orthogonalization method:         Symmetric (Loewdin)
 Localization functional:          L = sum[A,i] <i|n_A|i>^4 -> max

 Localization group 1:  21 orbitals, occupancy  2.000
 Iterative localization: IB/PM,    7 iter; Final gradient 0.30E-08

 Bond order analysis:       [THRPRINT= 0.020]

   CEN ATOM   CEN ATOM     WIBERG.BO      RENORM.BO
     1   C  -   2   C       0.996482       0.994018
     1   C  -   5   H       0.963815       0.987175
     1   C  -   6   H       0.959081       0.981689
     1   C  -   7   H       0.959081       0.981689

     2   C  -   1   C       0.996482       0.994018
     2   C  -   9   C       0.995358       0.976555
     2   C  -   8   C       0.995358       0.976555
     2   C  -   3   O       0.931101       0.949805

     3   O  -   2   C       0.931101       0.949805
     3   O  -   4   H       0.861667       0.976031
     3   O  -   8   C       0.027398       0.014012
     3   O  -   9   C       0.027398       0.014012

     4   H  -   3   O       0.861667       0.976031

     5   H  -   1   C       0.963815       0.987175

     6   H  -   1   C       0.959081       0.981689

     7   H  -   1   C       0.959081       0.981689

     8   C  -   2   C       0.995358       0.976555
     8   C  -  14   H       0.963209       0.982410
     8   C  -  12   H       0.959601       0.981548
     8   C  -  10   H       0.959571       0.981526
     8   C  -   3   O       0.027398       0.014012

     9   C  -   2   C       0.995358       0.976555
     9   C  -  15   H       0.963209       0.982410
     9   C  -  13   H       0.959601       0.981548
     9   C  -  11   H       0.959571       0.981526
     9   C  -   3   O       0.027398       0.014012

    10   H  -   8   C       0.959571       0.981526

    11   H  -   9   C       0.959571       0.981526

    12   H  -   8   C       0.959601       0.981548

    13   H  -   9   C       0.959601       0.981548

    14   H  -   8   C       0.963209       0.982410

    15   H  -   9   C       0.963209       0.982410


 Valency analysis:

   CEN ATOM   TOT.VALENCE
     1   C       3.937914
     2   C       3.928340
     3   O       1.914073
     4   H       0.881441
     5   H       0.982354
     6   H       0.979653
     7   H       0.979653
     8   C       3.940489
     9   C       3.940489
    10   H       0.979669
    11   H       0.979669
    12   H       0.981553
    13   H       0.981553
    14   H       0.983736
    15   H       0.983736

 Total charge composition:

   CEN ATOM         s          p       ELECTRONS ->P.CHARGE
     1   C       3.04255    3.36806      6.41061   -0.41061
     2   C       2.94045    2.79835      5.73881    0.26119
     3   O       3.65087    4.92657      8.57744   -0.57744
     4   H       0.65568                 0.65568    0.34432
     5   H       0.86716                 0.86716    0.13284
     6   H       0.85736                 0.85736    0.14264
     7   H       0.85736                 0.85736    0.14264
     8   C       3.04902    3.37472      6.42373   -0.42373
     9   C       3.04902    3.37472      6.42373   -0.42373
    10   H       0.85741                 0.85741    0.14259
    11   H       0.85741                 0.85741    0.14259
    12   H       0.86418                 0.86418    0.13582
    13   H       0.86418                 0.86418    0.13582
    14   H       0.87247                 0.87247    0.12753
    15   H       0.87247                 0.87247    0.12753

 Total charge composition, AO contributions:

   CEN ATOM SHL      SPHERICAL COMPONENTS
     1   C  1s       1.99118
     1   C  2s       1.05137
     1   C  2p       1.03671    1.15925    1.17210

     2   C  1s       1.99280
     2   C  2s       0.94765
     2   C  2p       1.00649    0.78255    1.00931

     3   O  1s       1.99714
     3   O  2s       1.65373
     3   O  2p       1.47452    1.49527    1.95677

     4   H  1s       0.65568

     5   H  1s       0.86716

     6   H  1s       0.85736

     7   H  1s       0.85736

     8   C  1s       1.99128
     8   C  2s       1.05774
     8   C  2p       1.14167    1.14108    1.09196

     9   C  1s       1.99128
     9   C  2s       1.05774
     9   C  2p       1.14167    1.14108    1.09196

    10   H  1s       0.85741

    11   H  1s       0.85741

    12   H  1s       0.86418

    13   H  1s       0.86418

    14   H  1s       0.87247

    15   H  1s       0.87247

 Summary of localized orbital composition:   [THRPRINT= 0.020]

   ORB  GRP  ORB.ENERGY      CENTERS/CHARGES
     1   1   -18.984706      O  3   2.000
     2   1   -10.151781      C  2   2.000
     3   1   -10.063065      C  8   2.000
     4   1   -10.063065      C  9   2.000
     5   1   -10.056987      C  1   2.000
     6   1    -0.767411      O  3   1.347   H  4   0.644
     7   1    -0.724568      O  3   1.288   C  2   0.694
     8   1    -0.583813      O  3   1.982
     9   1    -0.578253      C  9   1.007   C  2   0.978
    10   1    -0.578253      C  8   1.007   C  2   0.978
    11   1    -0.577636      C  1   0.990   C  2   0.986   (other: 0.023)
    12   1    -0.509864      C  9   1.131   H 13   0.855
    13   1    -0.509864      C  8   1.131   H 12   0.855
    14   1    -0.507928      C  9   1.123   H 15   0.865
    15   1    -0.507928      C  8   1.123   H 14   0.865
    16   1    -0.505599      C  1   1.126   H  5   0.860
    17   1    -0.503770      C  8   1.140   H 10   0.849
    18   1    -0.503770      C  9   1.140   H 11   0.849
    19   1    -0.499145      C  1   1.140   H  7   0.850
    20   1    -0.499145      C  1   1.140   H  6   0.850
    21   1    -0.309532      O  3   1.957   (other: 0.043)

 Localized orbitals saved to record      2100.2  (orbital set 2)


 **********************************************************************************************************************************
 DATASETS  * FILE   NREC   LENGTH (MB)   RECORD NAMES
              1      20     1151.61       500      610      700      900      950      970     1000      129      960     1100   
                                          VAR    BASINP    GEOM    SYMINP    ZMAT    AOBASIS   BASIS     P2S    ABASIS      S 
                                         1400     1410     1200     1210     1080     1600     1650     1300     1700     1800   
                                           T        V       H0       H01     AOSYM     SMH    MOLCAS    ERIS     OPER     GRID   

              2       5        4.21       700     1000      520     1800     2100   
                                         GEOM     BASIS   MCVARS    GRID      RKS  

 PROGRAMS   *        TOTAL      IBBA        KS       INT
 CPU TIMES  *        74.95      0.05     56.11     18.65
 REAL TIME  *       103.87 SEC
 DISK USED  *         3.88 GB      
 **********************************************************************************************************************************
 Molecular orbitals read from record     2100.2  Type=RKS/LOCAL(IBO)  
 Occupation numbers read from record     2100.2  Type=RKS/LOCAL(IBO)  
 Orbital energies read from record       2100.2  Type=RKS/LOCAL(IBO)  
 Redundancy group numbers read from rec  2100.2  Type=RKS/LOCAL(IBO)  

 IBBA/aug-cc-pVDZ energy=      0.000000000000

        KS-SCF  
   -233.70770238
 **********************************************************************************************************************************
 Molpro calculation terminated
