
 Primary working directories    : /tmp/sb13343
 Secondary working directories  : /tmp/sb13343
 Wavefunction directory         : /panfs/panasas01/chem/sb13343/wfu/
 Main file repository           : /tmp/sb13343/

 SHA1      : b4a5b34a9e711420743f49e6833241d17c61fb3c
 NAME      : 2099.9.b4a5b34
 ARCHNAME  : linux/x86_64_openmp
 FC        : /cm/shared/languages/GCC-6.1/bin/gfortran
 BLASLIB   : -lblas
 id        : simonbennie

 Nodes     nprocs
 node32-029    1

 Using customized tuning parameters: mindgm=1; mindgv=20; mindgc=4; mindgr=1; noblas=0; minvec=7
 default implementation of scratch files=df  

 memory,500,m
 geomtyp=xyz
 nosym
 noorient
 geometry={
 C          0.00000        0.00000        0.00000
 H          0.00000        0.00000        1.10056
 C          1.46209        0.00000       -0.46855
 C         -0.73105       -1.26621       -0.46855
 C         -0.73105        1.26621       -0.46855
 H          1.52118        0.00000       -1.56505
 H         -0.76059       -1.31738       -1.56505
 H         -0.76059        1.31738       -1.56505
 H          1.99755        0.88622       -0.10723
 H          1.99755       -0.88622       -0.10723
 H         -0.23129       -2.17304       -0.10723
 H         -1.76626       -1.28682       -0.10723
 H         -1.76626        1.28682       -0.10723
 H         -0.23129        2.17304       -0.10723
 }
 basis={ default,svp }
 {ks,PBE,direct;wf,34,1,0}
 {ibba,bonds=1}

 Variables initialized (895), CPU time= 0.00 sec
 Commands  initialized (725), CPU time= 0.02 sec, 591 directives.
 Default parameters read. Elapsed time= 0.08 sec

 Checking input...
 Passed
1


                                         ***  PROGRAM SYSTEM MOLPRO  ***
                                       Copyright, TTI GmbH Stuttgart, 2015
                                    Version 2099.9 linked May 26 2017 16:03:21


 **********************************************************************************************************************************
 LABEL *                                                                                 
  64 bit serial version                                                                  DATE: 08-Jun-17          TIME: 23:52:29  
 **********************************************************************************************************************************

 SHA1:             b4a5b34a9e711420743f49e6833241d17c61fb3c
 **********************************************************************************************************************************
 SETTING GEOMTYP        =    XYZ

 Variable memory set to  500000000 words,  buffer space 

 ZSYMEL=NOSYM

 SETTING BASIS          =    SVP


 Recomputing integrals since basis changed


 Using spherical harmonics

 Library entry C      S def2-SVP             selected for orbital group  1
 Library entry C      P def2-SVP             selected for orbital group  1
 Library entry C      D def2-SVP             selected for orbital group  1
 Library entry H      S def2-SVP             selected for orbital group  2
 Library entry H      P def2-SVP             selected for orbital group  2


 PROGRAM * SEWARD (Integral evaluation for generally contracted gaussian basis sets)     Author: Roland Lindh, 1990

 Geometry written to block  1 of record 700


 Point group  C1  



 ATOMIC COORDINATES

 NR  ATOM    CHARGE       X              Y              Z

   1  C       6.00    0.000000000    0.000000000    0.000000000
   2  H       1.00    0.000000000    0.000000000    2.079756984
   3  C       6.00    2.762949669    0.000000000   -0.885431176
   4  C       6.00   -1.381484283   -2.392790116   -0.885431176
   5  C       6.00   -1.381484283    2.392790116   -0.885431176
   6  H       1.00    2.874613586    0.000000000   -2.957515871
   7  H       1.00   -1.437306793   -2.489487402   -2.957515871
   8  H       1.00   -1.437306793    2.489487402   -2.957515871
   9  H       1.00    3.774822420    1.674713086   -0.202635332
  10  H       1.00    3.774822420   -1.674713086   -0.202635332
  11  H       1.00   -0.437074755   -4.106450458   -0.202635332
  12  H       1.00   -3.337747665   -2.431737372   -0.202635332
  13  H       1.00   -3.337747665    2.431737372   -0.202635332
  14  H       1.00   -0.437074755    4.106450458   -0.202635332

 Bond lengths in Bohr (Angstrom)

 1-2  2.079756984  1-3  2.901358172  1-4  2.901367218  1-5  2.901367218  3-6  2.075091279
     ( 1.100560000)     ( 1.535332625)     ( 1.535337412)     ( 1.535337412)     ( 1.098091015)

  3- 9  2.072380406   3-10  2.072380406   4- 7  2.075090722   4-11  2.072378172   4-12  2.072364222
       ( 1.096656483)       ( 1.096656483)       ( 1.098090721)       ( 1.096655301)       ( 1.096647919)

  5- 8  2.075090722   5-13  2.072364222   5-14  2.072378172
       ( 1.098090721)       ( 1.096647919)       ( 1.096655301)

 Bond angles

  1- 3- 6  110.85354902   1- 3- 9  111.37220114   1- 3-10  111.37220114   1- 4- 7  110.85320625

  1- 4-11  111.37204414   1- 4-12  111.37216555   1- 5- 8  110.85320625   1- 5-13  111.37216555

  1- 5-14  111.37204414   2- 1- 3  107.76888332   2- 1- 4  107.76882608   2- 1- 5  107.76882608

  3-1-4  111.11870751   3-1-5  111.11870751   4-1-5  111.11845005   6-3-9  107.62119374

  6- 3-10  107.62119374   7- 4-11  107.62125572   7- 4-12  107.62162102   8- 5-13  107.62162102

  8- 5-14  107.62125572   9- 3-10  107.82352924  11- 4-12  107.82360822  13- 5-14  107.82360822

 NUCLEAR CHARGE:                   34
 NUMBER OF PRIMITIVE AOS:         170
 NUMBER OF SYMMETRY AOS:          166
 NUMBER OF CONTRACTIONS:          106   ( 106A   )
 NUMBER OF CORE ORBITALS:           4   (   4A   )
 NUMBER OF VALENCE ORBITALS:       26   (  26A   )


 NUCLEAR REPULSION ENERGY  134.07051350


 Eigenvalues of metric

         1 0.225E-02 0.614E-02 0.614E-02 0.233E-01 0.256E-01 0.268E-01 0.268E-01 0.277E-01


 Contracted 2-electron integrals neglected if value below      1.0D-11
 AO integral compression algorithm  1   Integral accuracy      1.0D-11

     64.750 MB (compressed) written to integral file ( 46.7%)


 NUMBER OF SORTED TWO-ELECTRON INTEGRALS:   16082956.     BUFFER LENGTH:  32768
 NUMBER OF SEGMENTS:   2  SEGMENT LENGTH:   15997996      RECORD LENGTH: 524288

 Memory used in sort:      16.56 MW

 SORT1 READ    17384690. AND WROTE    14795173. INTEGRALS IN     44 RECORDS. CPU TIME:     0.25 SEC, REAL TIME:     0.53 SEC
 SORT2 READ    14795173. AND WROTE    16082956. INTEGRALS IN    247 RECORDS. CPU TIME:     0.46 SEC, REAL TIME:     0.60 SEC

 FILE SIZES:   FILE 1:    95.4 MBYTE,  FILE 4:   184.6 MBYTE,   TOTAL:    279.9 MBYTE

 OPERATOR DM      FOR CENTER  0  COORDINATES:    0.000000    0.000000    0.000000


 **********************************************************************************************************************************
 DATASETS  * FILE   NREC   LENGTH (MB)   RECORD NAMES
              1      19       87.57       500      610      700      900      950      970     1000      129      960     1100   
                                          VAR    BASINP    GEOM    SYMINP    ZMAT    AOBASIS   BASIS     P2S    ABASIS      S 
                                         1400     1410     1200     1210     1080     1600     1650     1300     1700   
                                           T        V       H0       H01     AOSYM     SMH    MOLCAS    ERIS     OPER   

 PROGRAMS   *        TOTAL       INT
 CPU TIMES  *         3.12      2.97
 REAL TIME  *         4.09 SEC
 DISK USED  *       280.45 MB      
 **********************************************************************************************************************************

 Density functional group PBE=PBEX+PBEC
 Functional: PBEX(Automatically generated (new) PBEX)                          Gradient terms: 1
 Functional: PBEC(Automatically generated (new) PBEC)                          Gradient terms: 1
 Use grid at  1800.2

 Functional: PBEX                      Factor:  1.0000
 Functional: PBEC                      Factor:  1.0000

 Generated new metagrid on record  1800.2 with target accuracy 1.0D-06 and 45620 points in CPU time    1.2
 Computed new grid on record 1800.1 in CPU time    1.3
   88342 words reserved for DFT integration

 PROGRAM * RKS-SCF (Restricted closed shell Kohn-Sham)     Authors: W. Meyer, H.-J. Werner, P.J. Knowles, 1993

 NUMBER OF ELECTRONS:      17+   17-    SPACE SYMMETRY=1    SPIN SYMMETRY: Singlet 
 CONVERGENCE THRESHOLDS:    1.00E-05 (Density)    1.00E-06 (Energy)
 MAX. NUMBER OF ITERATIONS:       60
 INTERPOLATION TYPE:            DIIS
 INTERPOLATION STEPS:              2 (START)      1 (STEP)
 LEVEL SHIFTS:                  0.00 (CLOSED)  0.00 (OPEN) 



 Use fine grid record 1800.2 for energy threshold  1.0D-06
 Orbital guess generated from atomic densities. Full valence occupancy:   17

 Molecular orbital dump at record        2100.2

 Initial occupancy:  17

 ITERATION    DDIFF          GRAD             ENERGY        2-EL.EN.            DIPOLE MOMENTS         DIIS   ORB.
    1      0.000D+00      0.000D+00      -157.82174691    434.172423   -0.00015   -0.00000   -0.02310    0    start
    2      0.000D+00      0.126D-01      -157.40552888    394.944560   -0.00024   -0.00000    0.06138    1    diag
    3      0.333D-01      0.198D-01      -158.09614531    419.543881   -0.00019   -0.00000    0.08469    2    diag
    4      0.238D-01      0.135D-02      -158.09801623    418.766490   -0.00017   -0.00000    0.02470    3    diag
    5      0.181D-02      0.780D-03      -158.09888813    418.843198   -0.00017   -0.00000    0.02436    4    diag
    6      0.636D-03      0.124D-03      -158.09891045    418.841203   -0.00016   -0.00000    0.04453    5    diag
    7      0.150D-03      0.228D-04      -158.09891136    418.851045   -0.00016   -0.00000    0.03626    6    diag
    8      0.353D-04      0.594D-05      -158.09891143    418.852396   -0.00016   -0.00000    0.03806    7    diag
    9      0.771D-05      0.182D-06      -158.09891143    418.852183   -0.00016   -0.00000    0.03803    0    orth

 Final occupancy:  17

 !RKS STATE 1.1 Energy               -158.098911429490
 Nuclear energy                       134.07051350
 One-electron energy                 -476.44277057
 Two-electron energy                  209.42609127
 Density functional                   -25.15274563     PBEX=-24.06047668 PBEC= -1.09226895
 Virial quotient                       -1.01287997
 !RKS STATE 1.1 Dipole moment          -0.00016455    -0.00000000     0.03802899
 Dipole moment /Debye                  -0.00041821    -0.00000000     0.09665373

 Orbital energies:

         1.1          2.1          3.1          4.1          5.1          6.1          7.1          8.1          9.1         10.1
     -9.897425    -9.881608    -9.881592    -9.881571    -0.717580    -0.604702    -0.604698    -0.492815    -0.409195    -0.379743

        11.1         12.1         13.1         14.1         15.1         16.1         17.1         18.1         19.1
     -0.379732    -0.333499    -0.333491    -0.314153    -0.284651    -0.284651    -0.276134     0.032963     0.076482

 HOMO     17.1    -0.276134 =      -7.5140eV
 LUMO     18.1     0.032963 =       0.8970eV
 LUMO-HOMO         0.309097 =       8.4110eV


 **********************************************************************************************************************************
 DATASETS  * FILE   NREC   LENGTH (MB)   RECORD NAMES
              1      20       89.03       500      610      700      900      950      970     1000      129      960     1100   
                                          VAR    BASINP    GEOM    SYMINP    ZMAT    AOBASIS   BASIS     P2S    ABASIS      S 
                                         1400     1410     1200     1210     1080     1600     1650     1300     1700     1800   
                                           T        V       H0       H01     AOSYM     SMH    MOLCAS    ERIS     OPER     GRID   

              2       5        3.22       700     1000      520     1800     2100   
                                         GEOM     BASIS   MCVARS    GRID      RKS  

 PROGRAMS   *        TOTAL        KS       INT
 CPU TIMES  *        13.04      9.92      2.97
 REAL TIME  *        14.64 SEC
 DISK USED  *       280.45 MB      
 **********************************************************************************************************************************


 PROGRAM * Intrinsic Basis Bonding Analysis (IBBA)          Author: G. Knizia

 Molecular orbitals read from record     2100.2  Type=RKS/CANONICAL (state 1.1)
 Fock matrix read from record            2100.2  Type=RKS/TOTAL (state 1.1)
 Orbital energies read from record       2100.2  Type=RKS/CANONICAL (state 1.1)
 Density matrix read from record         2100.2  Type=RKS/CHARGE (state 1.1)

 Number of core orbitals:           4 (   4 )
 Number of closed-shell orbitals:  13 (  13 )

 Basis set MINAO-AUTO-PP generated.      Number of basis functions:   30 

 Polarized AO type:                A = (O Ot + (1-O)(1-Ot)) P12
 Orthogonalization method:         Symmetric (Loewdin)
 Localization functional:          L = sum[A,i] <i|n_A|i>^4 -> max

 Localization group 1:  17 orbitals, occupancy  2.000
 Iterative localization: IB/PM,    7 iter; Final gradient 0.21E-08

 Bond order analysis:       [THRPRINT= 0.020]

   CEN ATOM   CEN ATOM     WIBERG.BO      RENORM.BO
     1   C  -   3   C       1.014652       1.009634
     1   C  -   5   C       1.014643       1.009619
     1   C  -   4   C       1.014643       1.009619
     1   C  -   2   H       0.930017       0.953846

     2   H  -   1   C       0.930017       0.953846

     3   C  -   1   C       1.014652       1.009634
     3   C  -   9   H       0.962941       0.982332
     3   C  -  10   H       0.962941       0.982332
     3   C  -   6   H       0.961246       0.976836

     4   C  -   1   C       1.014643       1.009619
     4   C  -  11   H       0.962952       0.982335
     4   C  -  12   H       0.962937       0.982335
     4   C  -   7   H       0.961237       0.976830

     5   C  -   1   C       1.014643       1.009619
     5   C  -  14   H       0.962952       0.982335
     5   C  -  13   H       0.962937       0.982335
     5   C  -   8   H       0.961237       0.976830

     6   H  -   3   C       0.961246       0.976836

     7   H  -   4   C       0.961237       0.976830

     8   H  -   5   C       0.961237       0.976830

     9   H  -   3   C       0.962941       0.982332

    10   H  -   3   C       0.962941       0.982332

    11   H  -   4   C       0.962952       0.982335

    12   H  -   4   C       0.962937       0.982335

    13   H  -   5   C       0.962937       0.982335

    14   H  -   5   C       0.962952       0.982335


 Valency analysis:

   CEN ATOM   TOT.VALENCE
     1   C       3.980990
     2   H       0.985063
     3   C       3.940858
     4   C       3.940849
     5   C       3.940849
     6   H       0.983903
     7   H       0.983896
     8   H       0.983896
     9   H       0.982788
    10   H       0.982788
    11   H       0.982797
    12   H       0.982780
    13   H       0.982780
    14   H       0.982797

 Total charge composition:

   CEN ATOM         s          p       ELECTRONS ->P.CHARGE
     1   C       2.95195    3.12672      6.07867   -0.07867
     2   H       0.87778                 0.87778    0.12222
     3   C       3.02426    3.37952      6.40378   -0.40378
     4   C       3.02426    3.37954      6.40380   -0.40380
     5   C       3.02426    3.37954      6.40380   -0.40380
     6   H       0.87313                 0.87313    0.12687
     7   H       0.87310                 0.87310    0.12690
     8   H       0.87310                 0.87310    0.12690
     9   H       0.86880                 0.86880    0.13120
    10   H       0.86880                 0.86880    0.13120
    11   H       0.86884                 0.86884    0.13116
    12   H       0.86877                 0.86877    0.13123
    13   H       0.86877                 0.86877    0.13123
    14   H       0.86884                 0.86884    0.13116

 Total charge composition, AO contributions:

   CEN ATOM SHL      SPHERICAL COMPONENTS
     1   C  1s       1.99191
     1   C  2s       0.96004
     1   C  2p       1.00753    1.00753    1.11166

     2   H  1s       0.87778

     3   C  1s       1.99132
     3   C  2s       1.03294
     3   C  2p       1.06780    1.16180    1.14992

     4   C  1s       1.99132
     4   C  2s       1.03295
     4   C  2p       1.13832    1.09127    1.14995

     5   C  1s       1.99132
     5   C  2s       1.03295
     5   C  2p       1.13832    1.09127    1.14995

     6   H  1s       0.87313

     7   H  1s       0.87310

     8   H  1s       0.87310

     9   H  1s       0.86880

    10   H  1s       0.86880

    11   H  1s       0.86884

    12   H  1s       0.86877

    13   H  1s       0.86877

    14   H  1s       0.86884

 Summary of localized orbital composition:   [THRPRINT= 0.020]

   ORB  GRP  ORB.ENERGY      CENTERS/CHARGES
     1   1    -9.797254      C  1   2.000
     2   1    -9.771051      C  3   2.000
     3   1    -9.771030      C  5   2.000
     4   1    -9.771030      C  4   2.000
     5   1    -0.495476      C  3   1.006   C  1   0.977
     6   1    -0.495468      C  5   1.006   C  1   0.977
     7   1    -0.495468      C  4   1.006   C  1   0.977
     8   1    -0.436811      C  3   1.129   H  9   0.861
     9   1    -0.436811      C  3   1.129   H 10   0.861
    10   1    -0.436805      C  4   1.129   H 11   0.861
    11   1    -0.436805      C  5   1.129   H 14   0.861
    12   1    -0.436797      C  5   1.129   H 13   0.861
    13   1    -0.436797      C  4   1.129   H 12   0.861
    14   1    -0.436151      C  3   1.126   H  6   0.865
    15   1    -0.436135      C  4   1.126   H  7   0.865
    16   1    -0.436135      C  5   1.126   H  8   0.865
    17   1    -0.431214      C  1   1.104   H  2   0.864   (other: 0.032)

 Localized orbitals saved to record      2100.2  (orbital set 2)


 **********************************************************************************************************************************
 DATASETS  * FILE   NREC   LENGTH (MB)   RECORD NAMES
              1      20       89.03       500      610      700      900      950      970     1000      129      960     1100   
                                          VAR    BASINP    GEOM    SYMINP    ZMAT    AOBASIS   BASIS     P2S    ABASIS      S 
                                         1400     1410     1200     1210     1080     1600     1650     1300     1700     1800   
                                           T        V       H0       H01     AOSYM     SMH    MOLCAS    ERIS     OPER     GRID   

              2       5        3.31       700     1000      520     1800     2100   
                                         GEOM     BASIS   MCVARS    GRID      RKS  

 PROGRAMS   *        TOTAL      IBBA        KS       INT
 CPU TIMES  *        13.08      0.03      9.92      2.97
 REAL TIME  *        14.76 SEC
 DISK USED  *       280.45 MB      
 **********************************************************************************************************************************
 Molecular orbitals read from record     2100.2  Type=RKS/LOCAL(IBO)  
 Occupation numbers read from record     2100.2  Type=RKS/LOCAL(IBO)  
 Orbital energies read from record       2100.2  Type=RKS/LOCAL(IBO)  
 Redundancy group numbers read from rec  2100.2  Type=RKS/LOCAL(IBO)  

 IBBA/SVP energy=      0.000000000000

        KS-SCF  
   -158.09891143
 **********************************************************************************************************************************
 Molpro calculation terminated
