
 Primary working directories    : /tmp/sb13343
 Secondary working directories  : /tmp/sb13343
 Wavefunction directory         : /panfs/panasas01/chem/sb13343/wfu/
 Main file repository           : /tmp/sb13343/

 SHA1      : b4a5b34a9e711420743f49e6833241d17c61fb3c
 NAME      : 2099.9.b4a5b34
 ARCHNAME  : linux/x86_64_openmp
 FC        : /cm/shared/languages/GCC-6.1/bin/gfortran
 BLASLIB   : -lblas
 id        : simonbennie

 Nodes     nprocs
 node32-002    1

 Using customized tuning parameters: mindgm=1; mindgv=20; mindgc=4; mindgr=1; noblas=0; minvec=7
 default implementation of scratch files=df  

 memory,500,m
 geomtyp=xyz
 nosym
 noorient
 geometry={
 C         -1.53233        0.02247        0.00000
 C         -0.00192        0.01421        0.00000
 O          0.37239        1.40356        0.00000
 H          1.34248        1.44036        0.00000
 H         -1.92991       -0.99819        0.00000
 H         -1.90797        0.54382       -0.88653
 H         -1.90797        0.54382        0.88653
 C          0.54303       -0.66466       -1.26580
 C          0.54303       -0.66466        1.26580
 H          0.17836       -0.14752       -2.15943
 H          0.17836       -0.14752        2.15943
 H          0.23752       -1.71600       -1.32280
 H          0.23752       -1.71600        1.32280
 H          1.64084       -0.63767       -1.28032
 H          1.64084       -0.63767        1.28032
 }
 basis={ default,svp }
 {uks,B3LYP5,direct;wf,42,1,0}
 {ibba,bonds=1}

 Variables initialized (895), CPU time= 0.00 sec
 Commands  initialized (725), CPU time= 0.02 sec, 591 directives.
 Default parameters read. Elapsed time= 0.12 sec

 Checking input...
 Passed
1


                                         ***  PROGRAM SYSTEM MOLPRO  ***
                                       Copyright, TTI GmbH Stuttgart, 2015
                                    Version 2099.9 linked May 26 2017 16:03:21


 **********************************************************************************************************************************
 LABEL *                                                                                 
  64 bit serial version                                                                  DATE: 09-Jun-17          TIME: 03:25:31  
 **********************************************************************************************************************************

 SHA1:             b4a5b34a9e711420743f49e6833241d17c61fb3c
 **********************************************************************************************************************************
 SETTING GEOMTYP        =    XYZ

 Variable memory set to  500000000 words,  buffer space 

 ZSYMEL=NOSYM

 SETTING BASIS          =    SVP


 Recomputing integrals since basis changed


 Using spherical harmonics

 Library entry C      S def2-SVP             selected for orbital group  1
 Library entry C      P def2-SVP             selected for orbital group  1
 Library entry C      D def2-SVP             selected for orbital group  1
 Library entry O      S def2-SVP             selected for orbital group  2
 Library entry O      P def2-SVP             selected for orbital group  2
 Library entry O      D def2-SVP             selected for orbital group  2
 Library entry H      S def2-SVP             selected for orbital group  3
 Library entry H      P def2-SVP             selected for orbital group  3


 PROGRAM * SEWARD (Integral evaluation for generally contracted gaussian basis sets)     Author: Roland Lindh, 1990

 Geometry written to block  1 of record 700


 Point group  C1  



 ATOMIC COORDINATES

 NR  ATOM    CHARGE       X              Y              Z

   1  C       6.00   -2.895684032    0.042462146    0.000000000
   2  C       6.00   -0.003628274    0.026853008    0.000000000
   3  O       8.00    0.703715112    2.652343999    0.000000000
   4  H       1.00    2.536919528    2.721885921    0.000000000
   5  H       1.00   -3.647001345   -1.886305720    0.000000000
   6  H       1.00   -3.605540754    1.027670861   -1.675298901
   7  H       1.00   -3.605540754    1.027670861    1.675298901
   8  C       6.00    1.026177977   -1.256025366   -2.392015328
   9  C       6.00    1.026177977   -1.256025366    2.392015328
  10  H       1.00    0.337051552   -0.278772398   -4.080731285
  11  H       1.00    0.337051552   -0.278772398    4.080731285
  12  H       1.00    0.448847749   -3.242770030   -2.499729718
  13  H       1.00    0.448847749   -3.242770030    2.499729718
  14  H       1.00    3.100738214   -1.205021658   -2.419454152
  15  H       1.00    3.100738214   -1.205021658    2.419454152

 Bond lengths in Bohr (Angstrom)

 1-2  2.892097881  1-5  2.069933136  1-6  2.069096224  1-7  2.069096224  2-3  2.719106031
     ( 1.530432290)     ( 1.095361444)     ( 1.094918569)     ( 1.094918569)     ( 1.438888946)

  2- 8  2.903104402   2- 9  2.903104402   3- 4  1.834522965   8-10  2.069222119   8-12  2.071730422
       ( 1.536256691)       ( 1.536256691)       ( 0.970787746)       ( 1.094985190)       ( 1.096312526)

  8-14  2.075368508   9-11  2.069222119   9-13  2.071730422   9-15  2.075368508
       ( 1.098237719)       ( 1.094985190)       ( 1.096312526)       ( 1.098237719)

 Bond angles

  1-2-3  104.76902697   1-2-8  110.92255387   1-2-9  110.92255387   2-1-5  110.97328220

  2- 1- 6  110.22090701   2- 1- 7  110.22090701   2- 3- 4  107.25071562   2- 8-10  110.21836376

  2- 8-12  111.57747468   2- 8-14  110.77023896   2- 9-11  110.21836376   2- 9-13  111.57747468

  2- 9-15  110.77023896   3- 2- 8  109.53648747   3- 2- 9  109.53648747   5- 1- 6  108.61190457

  5- 1- 7  108.61190457   6- 1- 7  108.12870271   8- 2- 9  110.96453384  10- 8-12  108.52192632

 10- 8-14  108.08997829  11- 9-13  108.52192632  11- 9-15  108.08997829  12- 8-14  107.54424578

 13- 9-15  107.54424578

 NUCLEAR CHARGE:                   42
 NUMBER OF PRIMITIVE AOS:         195
 NUMBER OF SYMMETRY AOS:          190
 NUMBER OF CONTRACTIONS:          120   ( 120A   )
 NUMBER OF CORE ORBITALS:           5   (   5A   )
 NUMBER OF VALENCE ORBITALS:       30   (  30A   )


 NUCLEAR REPULSION ENERGY  198.77359127


 Eigenvalues of metric

         1 0.176E-02 0.546E-02 0.548E-02 0.123E-01 0.248E-01 0.256E-01 0.256E-01 0.275E-01


 Contracted 2-electron integrals neglected if value below      1.0D-11
 AO integral compression algorithm  1   Integral accuracy      1.0D-11

     101.974 MB (compressed) written to integral file ( 44.9%)


 NUMBER OF SORTED TWO-ELECTRON INTEGRALS:   26357430.     BUFFER LENGTH:  32768
 NUMBER OF SEGMENTS:   2  SEGMENT LENGTH:   15997996      RECORD LENGTH: 524288

 Memory used in sort:      16.56 MW

 SORT1 READ    28411733. AND WROTE    24096425. INTEGRALS IN     70 RECORDS. CPU TIME:     0.40 SEC, REAL TIME:     1.04 SEC
 SORT2 READ    24096425. AND WROTE    26357430. INTEGRALS IN    389 RECORDS. CPU TIME:     0.61 SEC, REAL TIME:     1.03 SEC

 FILE SIZES:   FILE 1:   132.7 MBYTE,  FILE 4:   293.6 MBYTE,   TOTAL:    426.4 MBYTE

 OPERATOR DM      FOR CENTER  0  COORDINATES:    0.000000    0.000000    0.000000


 **********************************************************************************************************************************
 DATASETS  * FILE   NREC   LENGTH (MB)   RECORD NAMES
              1      19      120.44       500      610      700      900      950      970     1000      129      960     1100   
                                          VAR    BASINP    GEOM    SYMINP    ZMAT    AOBASIS   BASIS     P2S    ABASIS      S 
                                         1400     1410     1200     1210     1080     1600     1650     1300     1700   
                                           T        V       H0       H01     AOSYM     SMH    MOLCAS    ERIS     OPER   

 PROGRAMS   *        TOTAL       INT
 CPU TIMES  *         4.24      4.10
 REAL TIME  *         8.20 SEC
 DISK USED  *       426.89 MB      
 **********************************************************************************************************************************

 Density functional group B3LYP5=B88+DIRAC+LYP+VWN5
 Functional: B88(Automatically generated (new) B88)                            Gradient terms: 1
 Functional: DIRAC(Automatically generated (new) DIRAC)                        Gradient terms: 0
 Functional: LYP(Automatically generated (new) LYP)                            Gradient terms: 1
 Functional: VWN5(Automatically generated (new) VWN5)                          Gradient terms: 0
 Use grid at  1800.2


 Exact exchange will be calculated, factor:  0.2000

 Functional: B88                       Factor:  0.7200
 Functional: DIRAC                     Factor:  0.0800
 Functional: LYP                       Factor:  0.8100
 Functional: VWN5                      Factor:  0.1900

 Generated new metagrid on record  1800.2 with target accuracy 1.0D-06 and 53396 points in CPU time    1.7
 Computed new grid on record 1800.1 in CPU time    1.9
   99539 words reserved for DFT integration

 PROGRAM * UKS-SCF (Unrestricted Kohn-Sham)     Authors: W. Meyer, H.-J. Werner, P.J. Knowles, 1993

 NUMBER OF ELECTRONS:      21+   21-    SPACE SYMMETRY=1    SPIN SYMMETRY: Singlet 
 CONVERGENCE THRESHOLDS:    1.00E-05 (Density)    1.00E-06 (Energy)
 MAX. NUMBER OF ITERATIONS:       60
 INTERPOLATION TYPE:            DIIS
 INTERPOLATION STEPS:              2 (START)      1 (STEP)
 LEVEL SHIFTS:                 -0.20 (ALPHA)  -0.20 (BETA) 



 Use fine grid record 1800.2 for energy threshold  1.0D-06
 Orbital guess generated from atomic densities. Full valence occupancy:   21

 Molecular orbital dump at record        2200.2

 Initial alpha occupation  21
 Initial beta  occupation  21

 ITERATION    DDIFF          GRAD             ENERGY        2-EL.EN.            DIPOLE MOMENTS         DIIS
    1      0.000D+00      0.000D+00      -233.13490537    623.395471    0.71143   -0.84636    0.00000    0
    2      0.114D-01      0.533D-02      -233.31646071    604.349951    0.29639   -0.42570    0.00000    1
    3      0.351D-02      0.243D-02      -233.34820057    609.098698    0.39162   -0.52317    0.00000    2
    4      0.878D-03      0.368D-03      -233.34927334    608.922535    0.37680   -0.46895    0.00000    3
    5      0.673D-03      0.160D-03      -233.34961780    608.836668    0.37094   -0.46365    0.00000    4
    6      0.321D-03      0.394D-04      -233.34965541    608.818327    0.36883   -0.45809    0.00000    5
    7      0.539D-04      0.100D-04      -233.34965684    608.800628    0.36788   -0.45798    0.00000    6
    8      0.180D-04      0.514D-05      -233.34965712    608.806344    0.36788   -0.45830    0.00000    7
    9      0.646D-05      0.881D-06      -233.34965714    608.806267    0.36784   -0.45816    0.00000    6
   10      0.139D-05      0.237D-06      -233.34965714    608.805841    0.36781   -0.45821    0.00000    7

 Final alpha occupancy:  21
 Final beta  occupancy:  21

 !UKS STATE 1.1 Energy               -233.349657143290
 Nuclear energy                       198.77359127
 One-electron energy                 -709.15326865
 Two-electron energy                  304.40292026
 Density functional                   -27.37290002     B88=-32.51679819 DIRAC=-29.30957674 LYP= -1.37225926 VWN5= -2.65531150
 Virial quotient                       -1.01050283
 !UKS STATE 1.1 Dipole moment           0.36780711    -0.45820649     0.00000000
 Dipole moment /Debye                   0.93481119    -1.16456846     0.00000000

 Orbital energies for positive spin:

         1.1          2.1          3.1          4.1          5.1          6.1          7.1          8.1          9.1         10.1
    -19.115484   -10.233598   -10.173958   -10.173938   -10.168337    -0.993559    -0.774055    -0.680759    -0.679499    -0.558136

        11.1         12.1         13.1         14.1         15.1         16.1         17.1         18.1         19.1         20.1
     -0.482311    -0.446081    -0.444351    -0.406252    -0.393502    -0.375367    -0.363410    -0.349351    -0.344475    -0.313113

        21.1         22.1         23.1
     -0.261949     0.041968     0.091607

 Orbital energies for negative spin:

         1.1          2.1          3.1          4.1          5.1          6.1          7.1          8.1          9.1         10.1
    -19.115484   -10.233598   -10.173958   -10.173938   -10.168337    -0.993559    -0.774055    -0.680759    -0.679499    -0.558136

        11.1         12.1         13.1         14.1         15.1         16.1         17.1         18.1         19.1         20.1
     -0.482311    -0.446081    -0.444351    -0.406252    -0.393502    -0.375367    -0.363410    -0.349351    -0.344475    -0.313113

        21.1         22.1         23.1
     -0.261949     0.041968     0.091607

 HOMO     21.1    -0.261949 =      -7.1280eV
 LUMO     22.1     0.041968 =       1.1420eV
 LUMO-HOMO         0.303917 =       8.2700eV

 EXPECTATION VALUE OF S**2:            -0.00000000

 Natural orbitals saved to record    2200.2 (Orbital set 3)

 Orbital spaces for UNO-CAS (Min. occupation: 0.020  Max. occupation: 1.980):

 Closed:       21
 Active:        0


 **********************************************************************************************************************************
 DATASETS  * FILE   NREC   LENGTH (MB)   RECORD NAMES
              1      20      122.15       500      610      700      900      950      970     1000      129      960     1100   
                                          VAR    BASINP    GEOM    SYMINP    ZMAT    AOBASIS   BASIS     P2S    ABASIS      S 
                                         1400     1410     1200     1210     1080     1600     1650     1300     1700     1800   
                                           T        V       H0       H01     AOSYM     SMH    MOLCAS    ERIS     OPER     GRID   

              2       5        3.59       700     1000      520     1800     2200   
                                         GEOM     BASIS   MCVARS    GRID      UKS  

 PROGRAMS   *        TOTAL       UKS       INT
 CPU TIMES  *        31.14     26.90      4.10
 REAL TIME  *        48.50 SEC
 DISK USED  *       426.89 MB      
 **********************************************************************************************************************************


 PROGRAM * Intrinsic Basis Bonding Analysis (IBBA)          Author: G. Knizia

 Molecular orbitals read from record     2200.2  Type=UKS/ALPHA (state 1.1)
 Fock matrix read from record            2200.2  Type=UKS/TOTAL (state 1.1)
 Orbital energies read from record       2200.2  Type=UKS/ALPHA (state 1.1)
 Density matrix read from record         2200.2  Type=UKS/CHARGE (state 1.1)

 Number of core orbitals:           5 (   5 )
 Number of closed-shell orbitals:  16 (  16 )

 Basis set MINAO-AUTO-PP generated.      Number of basis functions:   35 

 Polarized AO type:                A = (O Ot + (1-O)(1-Ot)) P12
 Orthogonalization method:         Symmetric (Loewdin)
 Localization functional:          L = sum[A,i] <i|n_A|i>^4 -> max

 Localization group 1:  21 orbitals, occupancy  2.000
 Iterative localization: IB/PM,    7 iter; Final gradient 0.36E-08

 Bond order analysis:       [THRPRINT= 0.020]

   CEN ATOM   CEN ATOM     WIBERG.BO      RENORM.BO
     1   C  -   2   C       0.994524       0.992752
     1   C  -   5   H       0.966205       0.987194
     1   C  -   6   H       0.961602       0.982255
     1   C  -   7   H       0.961602       0.982255

     2   C  -   1   C       0.994524       0.992752
     2   C  -   9   C       0.993590       0.975274
     2   C  -   8   C       0.993590       0.975274
     2   C  -   3   O       0.940266       0.954596

     3   O  -   2   C       0.940266       0.954596
     3   O  -   4   H       0.874614       0.977228
     3   O  -   8   C       0.027327       0.014014
     3   O  -   9   C       0.027327       0.014014

     4   H  -   3   O       0.874614       0.977228

     5   H  -   1   C       0.966205       0.987194

     6   H  -   1   C       0.961602       0.982255

     7   H  -   1   C       0.961602       0.982255

     8   C  -   2   C       0.993590       0.975274
     8   C  -  14   H       0.965514       0.982843
     8   C  -  12   H       0.962208       0.982251
     8   C  -  10   H       0.962086       0.982069
     8   C  -   3   O       0.027327       0.014014

     9   C  -   2   C       0.993590       0.975274
     9   C  -  15   H       0.965514       0.982843
     9   C  -  13   H       0.962208       0.982251
     9   C  -  11   H       0.962086       0.982069
     9   C  -   3   O       0.027327       0.014014

    10   H  -   8   C       0.962086       0.982069

    11   H  -   9   C       0.962086       0.982069

    12   H  -   8   C       0.962208       0.982251

    13   H  -   9   C       0.962208       0.982251

    14   H  -   8   C       0.965514       0.982843

    15   H  -   9   C       0.965514       0.982843


 Valency analysis:

   CEN ATOM   TOT.VALENCE
     1   C       3.942837
     2   C       3.933014
     3   O       1.934784
     4   H       0.893444
     5   H       0.984765
     6   H       0.982215
     7   H       0.982215
     8   C       3.945168
     9   C       3.945168
    10   H       0.982249
    11   H       0.982249
    12   H       0.983844
    13   H       0.983844
    14   H       0.986080
    15   H       0.986080

 Total charge composition:

   CEN ATOM         s          p       ELECTRONS ->P.CHARGE
     1   C       3.02152    3.36388      6.38540   -0.38540
     2   C       2.92077    2.82251      5.74328    0.25672
     3   O       3.63166    4.91445      8.54611   -0.54611
     4   H       0.67357                 0.67357    0.32643
     5   H       0.87657                 0.87657    0.12343
     6   H       0.86664                 0.86664    0.13336
     7   H       0.86664                 0.86664    0.13336
     8   C       3.02775    3.37147      6.39922   -0.39922
     9   C       3.02775    3.37147      6.39922   -0.39922
    10   H       0.86677                 0.86677    0.13323
    11   H       0.86677                 0.86677    0.13323
    12   H       0.87289                 0.87289    0.12711
    13   H       0.87289                 0.87289    0.12711
    14   H       0.88202                 0.88202    0.11798
    15   H       0.88202                 0.88202    0.11798

 Total charge composition, AO contributions:

   CEN ATOM SHL      SPHERICAL COMPONENTS
     1   C  1s       1.99105
     1   C  2s       1.03048
     1   C  2p       1.04373    1.15384    1.16631

     2   C  1s       1.99270
     2   C  2s       0.92807
     2   C  2p       1.01261    0.79658    1.01332

     3   O  1s       1.99711
     3   O  2s       1.63455
     3   O  2p       1.46613    1.49165    1.95667

     4   H  1s       0.67357

     5   H  1s       0.87657

     6   H  1s       0.86664

     7   H  1s       0.86664

     8   C  1s       1.99115
     8   C  2s       1.03661
     8   C  2p       1.13727    1.13869    1.09550

     9   C  1s       1.99115
     9   C  2s       1.03661
     9   C  2p       1.13727    1.13869    1.09550

    10   H  1s       0.86677

    11   H  1s       0.86677

    12   H  1s       0.87289

    13   H  1s       0.87289

    14   H  1s       0.88202

    15   H  1s       0.88202

 Summary of localized orbital composition:   [THRPRINT= 0.020]

   ORB  GRP  ORB.ENERGY      CENTERS/CHARGES
     1   1   -18.962545      O  3   2.000
     2   1   -10.142275      C  2   2.000
     3   1   -10.060042      C  8   2.000
     4   1   -10.060042      C  9   2.000
     5   1   -10.053643      C  1   2.000
     6   1    -0.748577      O  3   1.328   H  4   0.663
     7   1    -0.712873      O  3   1.276   C  2   0.707
     8   1    -0.568063      C  8   1.009   C  2   0.975
     9   1    -0.568063      C  9   1.009   C  2   0.975
    10   1    -0.567065      C  1   0.991   C  2   0.985   (other: 0.024)
    11   1    -0.540151      O  3   1.982
    12   1    -0.499682      C  8   1.123   H 12   0.864
    13   1    -0.499682      C  9   1.123   H 13   0.864
    14   1    -0.498576      C  9   1.114   H 15   0.875
    15   1    -0.498576      C  8   1.114   H 14   0.875
    16   1    -0.495077      C  1   1.118   H  5   0.869
    17   1    -0.493814      C  8   1.131   H 10   0.859
    18   1    -0.493814      C  9   1.131   H 11   0.859
    19   1    -0.488544      C  1   1.130   H  7   0.859
    20   1    -0.488544      C  1   1.130   H  6   0.859
    21   1    -0.291958      O  3   1.957   (other: 0.043)

 Localized orbitals saved to record      2200.2  (orbital set 4)


 **********************************************************************************************************************************
 DATASETS  * FILE   NREC   LENGTH (MB)   RECORD NAMES
              1      20      122.15       500      610      700      900      950      970     1000      129      960     1100   
                                          VAR    BASINP    GEOM    SYMINP    ZMAT    AOBASIS   BASIS     P2S    ABASIS      S 
                                         1400     1410     1200     1210     1080     1600     1650     1300     1700     1800   
                                           T        V       H0       H01     AOSYM     SMH    MOLCAS    ERIS     OPER     GRID   

              2       5        3.71       700     1000      520     1800     2200   
                                         GEOM     BASIS   MCVARS    GRID      UKS  

 PROGRAMS   *        TOTAL      IBBA       UKS       INT
 CPU TIMES  *        31.18      0.04     26.90      4.10
 REAL TIME  *        48.69 SEC
 DISK USED  *       426.89 MB      
 **********************************************************************************************************************************
 Molecular orbitals read from record     2200.2  Type=UKS/LOCAL(IBO)  
 Occupation numbers read from record     2200.2  Type=UKS/LOCAL(IBO)  
 Orbital energies read from record       2200.2  Type=UKS/LOCAL(IBO)  
 Redundancy group numbers read from rec  2200.2  Type=UKS/BETA (state 1.1)

 IBBA/SVP energy=      0.000000000000

        UKS-SCF 
   -233.34965714
 **********************************************************************************************************************************
 Molpro calculation terminated
