
 Primary working directories    : /local
 Secondary working directories  : /local
 Wavefunction directory         : /local/
 Main file repository           : /local/

 SHA1      : b4a5b34a9e711420743f49e6833241d17c61fb3c
 NAME      : 2099.9.b4a5b34
 ARCHNAME  : linux/x86_64_openmp
 FC        : /cm/shared/languages/GCC-6.1/bin/gfortran
 BLASLIB   : -lblas
 id        : simonbennie

 Nodes     nprocs
 node34-016    1

 Using customized tuning parameters: mindgm=1; mindgv=20; mindgc=4; mindgr=1; noblas=0; minvec=7
 default implementation of scratch files=df  

 memory,500,m
 geomtyp=xyz
 nosym
 noorient
 geometry={
 C         -1.53233        0.02247        0.00000
 C         -0.00192        0.01421        0.00000
 O          0.37239        1.40356        0.00000
 H          1.34248        1.44036        0.00000
 H         -1.92991       -0.99819        0.00000
 H         -1.90797        0.54382       -0.88653
 H         -1.90797        0.54382        0.88653
 C          0.54303       -0.66466       -1.26580
 C          0.54303       -0.66466        1.26580
 H          0.17836       -0.14752       -2.15943
 H          0.17836       -0.14752        2.15943
 H          0.23752       -1.71600       -1.32280
 H          0.23752       -1.71600        1.32280
 H          1.64084       -0.63767       -1.28032
 H          1.64084       -0.63767        1.28032
 }
 basis={ default,tzvp }
 {uks,M08-HX,direct;wf,42,1,0}
 {ibba,bonds=1}

 Variables initialized (895), CPU time= 0.01 sec
 Commands  initialized (725), CPU time= 0.01 sec, 591 directives.
 Default parameters read. Elapsed time= 0.08 sec

 Checking input...
 Passed
1


                                         ***  PROGRAM SYSTEM MOLPRO  ***
                                       Copyright, TTI GmbH Stuttgart, 2015
                                    Version 2099.9 linked May 26 2017 16:03:21


 **********************************************************************************************************************************
 LABEL *                                                                                 
  64 bit serial version                                                                  DATE: 12-Jun-17          TIME: 19:28:57  
 **********************************************************************************************************************************

 SHA1:             b4a5b34a9e711420743f49e6833241d17c61fb3c
 **********************************************************************************************************************************
 SETTING GEOMTYP        =    XYZ

 Variable memory set to  500000000 words,  buffer space 

 ZSYMEL=NOSYM

 SETTING BASIS          =    TZVP


 Recomputing integrals since basis changed


 Using spherical harmonics

 Library entry C      S def2-TZVP            selected for orbital group  1
 Library entry C      P def2-TZVP            selected for orbital group  1
 Library entry C      D def2-TZVP            selected for orbital group  1
 Library entry C      F def2-TZVP            selected for orbital group  1
 Library entry O      S def2-TZVP            selected for orbital group  2
 Library entry O      P def2-TZVP            selected for orbital group  2
 Library entry O      D def2-TZVP            selected for orbital group  2
 Library entry O      F def2-TZVP            selected for orbital group  2
 Library entry H      S def2-TZVP            selected for orbital group  3
 Library entry H      P def2-TZVP            selected for orbital group  3


 PROGRAM * SEWARD (Integral evaluation for generally contracted gaussian basis sets)     Author: Roland Lindh, 1990

 Geometry written to block  1 of record 700


 Point group  C1  



 ATOMIC COORDINATES

 NR  ATOM    CHARGE       X              Y              Z

   1  C       6.00   -2.895684032    0.042462146    0.000000000
   2  C       6.00   -0.003628274    0.026853008    0.000000000
   3  O       8.00    0.703715112    2.652343999    0.000000000
   4  H       1.00    2.536919528    2.721885921    0.000000000
   5  H       1.00   -3.647001345   -1.886305720    0.000000000
   6  H       1.00   -3.605540754    1.027670861   -1.675298901
   7  H       1.00   -3.605540754    1.027670861    1.675298901
   8  C       6.00    1.026177977   -1.256025366   -2.392015328
   9  C       6.00    1.026177977   -1.256025366    2.392015328
  10  H       1.00    0.337051552   -0.278772398   -4.080731285
  11  H       1.00    0.337051552   -0.278772398    4.080731285
  12  H       1.00    0.448847749   -3.242770030   -2.499729718
  13  H       1.00    0.448847749   -3.242770030    2.499729718
  14  H       1.00    3.100738214   -1.205021658   -2.419454152
  15  H       1.00    3.100738214   -1.205021658    2.419454152

 Bond lengths in Bohr (Angstrom)

 1-2  2.892097881  1-5  2.069933136  1-6  2.069096224  1-7  2.069096224  2-3  2.719106031
     ( 1.530432290)     ( 1.095361444)     ( 1.094918569)     ( 1.094918569)     ( 1.438888946)

  2- 8  2.903104402   2- 9  2.903104402   3- 4  1.834522965   8-10  2.069222119   8-12  2.071730422
       ( 1.536256691)       ( 1.536256691)       ( 0.970787746)       ( 1.094985190)       ( 1.096312526)

  8-14  2.075368508   9-11  2.069222119   9-13  2.071730422   9-15  2.075368508
       ( 1.098237719)       ( 1.094985190)       ( 1.096312526)       ( 1.098237719)

 Bond angles

  1-2-3  104.76902697   1-2-8  110.92255387   1-2-9  110.92255387   2-1-5  110.97328220

  2- 1- 6  110.22090701   2- 1- 7  110.22090701   2- 3- 4  107.25071562   2- 8-10  110.21836376

  2- 8-12  111.57747468   2- 8-14  110.77023896   2- 9-11  110.21836376   2- 9-13  111.57747468

  2- 9-15  110.77023896   3- 2- 8  109.53648747   3- 2- 9  109.53648747   5- 1- 6  108.61190457

  5- 1- 7  108.61190457   6- 1- 7  108.12870271   8- 2- 9  110.96453384  10- 8-12  108.52192632

 10- 8-14  108.08997829  11- 9-13  108.52192632  11- 9-15  108.08997829  12- 8-14  107.54424578

 13- 9-15  107.54424578

 NUCLEAR CHARGE:                   42
 NUMBER OF PRIMITIVE AOS:         335
 NUMBER OF SYMMETRY AOS:          310
 NUMBER OF CONTRACTIONS:          215   ( 215A   )
 NUMBER OF CORE ORBITALS:           5   (   5A   )
 NUMBER OF VALENCE ORBITALS:       30   (  30A   )


 NUCLEAR REPULSION ENERGY  198.77359127


 Eigenvalues of metric

         1 0.262E-03 0.510E-03 0.539E-03 0.594E-03 0.697E-03 0.755E-03 0.210E-02 0.239E-02


 Contracted 2-electron integrals neglected if value below      1.0D-11
 AO integral compression algorithm  1   Integral accuracy      1.0D-11

     977.797 MB (compressed) written to integral file ( 41.7%)


 NUMBER OF SORTED TWO-ELECTRON INTEGRALS:  269595810.     BUFFER LENGTH:  32768
 NUMBER OF SEGMENTS:  17  SEGMENT LENGTH:   15999762      RECORD LENGTH: 524288

 Memory used in sort:      16.56 MW

 SORT1 READ   292827432. AND WROTE   238500613. INTEGRALS IN    690 RECORDS. CPU TIME:     3.43 SEC, REAL TIME:     7.27 SEC
 SORT2 READ   238500613. AND WROTE   269595810. INTEGRALS IN   3730 RECORDS. CPU TIME:     6.43 SEC, REAL TIME:     8.20 SEC

 FILE SIZES:   FILE 1:  1009.7 MBYTE,  FILE 4:  2894.1 MBYTE,   TOTAL:   3903.8 MBYTE

 OPERATOR DM      FOR CENTER  0  COORDINATES:    0.000000    0.000000    0.000000


 **********************************************************************************************************************************
 DATASETS  * FILE   NREC   LENGTH (MB)   RECORD NAMES
              1      19      926.27       500      610      700      900      950      970     1000      129      960     1100   
                                          VAR    BASINP    GEOM    SYMINP    ZMAT    AOBASIS   BASIS     P2S    ABASIS      S 
                                         1400     1410     1200     1210     1080     1600     1650     1300     1700   
                                           T        V       H0       H01     AOSYM     SMH    MOLCAS    ERIS     OPER   

 PROGRAMS   *        TOTAL       INT
 CPU TIMES  *        26.79     26.64
 REAL TIME  *        62.99 SEC
 DISK USED  *         3.90 GB      
 **********************************************************************************************************************************

 Density functional group M08-HX=XC-M08-HX
 Functional: XC-M08-HX(via MFM 1.6)                                            Gradient terms: 1
 Use grid at  1800.2


 Exact exchange will be calculated, factor:  0.5223

 Functional: XC-M08-HX                 Factor:  1.0000

 Generated new metagrid on record  1800.2 with target accuracy 1.0D-06 and 54596 points in CPU time    1.6
 Computed new grid on record 1800.1 in CPU time    1.8
  175219 words reserved for DFT integration

 PROGRAM * UKS-SCF (Unrestricted Kohn-Sham)     Authors: W. Meyer, H.-J. Werner, P.J. Knowles, 1993

 NUMBER OF ELECTRONS:      21+   21-    SPACE SYMMETRY=1    SPIN SYMMETRY: Singlet 
 CONVERGENCE THRESHOLDS:    1.00E-05 (Density)    1.00E-06 (Energy)
 MAX. NUMBER OF ITERATIONS:       60
 INTERPOLATION TYPE:            DIIS
 INTERPOLATION STEPS:              2 (START)      1 (STEP)
 LEVEL SHIFTS:                 -0.20 (ALPHA)  -0.20 (BETA) 



 Use fine grid record 1800.2 for energy threshold  1.0D-06
 Orbital guess generated from atomic densities. Full valence occupancy:   21

 Molecular orbital dump at record        2200.2

 Initial alpha occupation  21
 Initial beta  occupation  21

 ITERATION    DDIFF          GRAD             ENERGY        2-EL.EN.            DIPOLE MOMENTS         DIIS
    1      0.000D+00      0.000D+00      -233.57842698    597.200105    0.70935   -0.81835    0.00000    0
    2      0.333D-02      0.234D-02      -233.68844136    585.361845    0.33553   -0.49957    0.00000    1
    3      0.950D-03      0.951D-03      -233.70142041    587.809376    0.38563   -0.55909    0.00000    2
    4      0.500D-03      0.204D-03      -233.70284052    587.649971    0.37079   -0.52353    0.00000    3
    5      0.372D-03      0.101D-03      -233.70331257    587.582770    0.36284   -0.52473    0.00000    4
    6      0.188D-03      0.284D-04      -233.70336183    587.568580    0.35988   -0.52123    0.00000    5
    7      0.443D-04      0.520D-05      -233.70336365    587.557877    0.35937   -0.52124    0.00000    6
    8      0.765D-05      0.188D-05      -233.70336379    587.562979    0.35938   -0.52130    0.00000    7
    9      0.367D-05      0.620D-06      -233.70336381    587.561974    0.35930   -0.52122    0.00000    7

 Final alpha occupancy:  21
 Final beta  occupancy:  21

 !UKS STATE 1.1 Energy               -233.703363811295
 Nuclear energy                       198.77359127
 One-electron energy                 -709.25627865
 Two-electron energy                  293.78098710
 Density functional                   -17.00166354     XC-M08-HX=-17.00166354
 Virial quotient                       -1.00624672
 !UKS STATE 1.1 Dipole moment           0.35930325    -0.52122338     0.00000000
 Dipole moment /Debye                   0.91319795    -1.32473091     0.00000000

 Orbital energies for positive spin:

         1.1          2.1          3.1          4.1          5.1          6.1          7.1          8.1          9.1         10.1
    -19.603028   -10.588082   -10.516127   -10.516116   -10.511186    -1.133912    -0.891682    -0.787503    -0.786513    -0.652508

        11.1         12.1         13.1         14.1         15.1         16.1         17.1         18.1         19.1         20.1
     -0.566107    -0.526100    -0.523382    -0.482906    -0.466320    -0.444964    -0.431896    -0.423807    -0.415991    -0.385375

        21.1         22.1         23.1
     -0.346520     0.025009     0.070857

 Orbital energies for negative spin:

         1.1          2.1          3.1          4.1          5.1          6.1          7.1          8.1          9.1         10.1
    -19.603024   -10.588084   -10.516126   -10.516114   -10.511184    -1.133907    -0.891682    -0.787502    -0.786512    -0.652507

        11.1         12.1         13.1         14.1         15.1         16.1         17.1         18.1         19.1         20.1
     -0.566106    -0.526099    -0.523382    -0.482905    -0.466320    -0.444963    -0.431896    -0.423804    -0.415990    -0.385373

        21.1         22.1         23.1
     -0.346516     0.025012     0.070861

 HOMO    -21.1    -0.346516 =      -9.4292eV
 LUMO     22.1     0.025009 =       0.6805eV
 LUMO-HOMO         0.371525 =      10.1097eV

 EXPECTATION VALUE OF S**2:             0.00000000

 Occupation number threshold for canonical orbitals:  1.999000 (occupied),  0.001000 (virtual)

 Number of pseudo-canonical orbitals per symmetry:   21
 Number of active natural orbitals per symmetry:      0

 Natural orbitals saved to record    2200.2 (Orbital set 3)

 Orbital spaces for UNO-CAS (Min. occupation: 0.020  Max. occupation: 1.980):

 Closed:       21
 Active:        0


 **********************************************************************************************************************************
 DATASETS  * FILE   NREC   LENGTH (MB)   RECORD NAMES
              1      20      928.02       500      610      700      900      950      970     1000      129      960     1100   
                                          VAR    BASINP    GEOM    SYMINP    ZMAT    AOBASIS   BASIS     P2S    ABASIS      S 
                                         1400     1410     1200     1210     1080     1600     1650     1300     1700     1800   
                                           T        V       H0       H01     AOSYM     SMH    MOLCAS    ERIS     OPER     GRID   

              2       5        4.89       700     1000      520     1800     2200   
                                         GEOM     BASIS   MCVARS    GRID      UKS  

 PROGRAMS   *        TOTAL       UKS       INT
 CPU TIMES  *       223.36    196.57     26.64
 REAL TIME  *       262.01 SEC
 DISK USED  *         3.90 GB      
 **********************************************************************************************************************************


 PROGRAM * Intrinsic Basis Bonding Analysis (IBBA)          Author: G. Knizia

 Molecular orbitals read from record     2200.2  Type=UKS/ALPHA (state 1.1)
 Fock matrix read from record            2200.2  Type=UKS/TOTAL (state 1.1)
 Orbital energies read from record       2200.2  Type=UKS/ALPHA (state 1.1)
 Density matrix read from record         2200.2  Type=UKS/CHARGE (state 1.1)

 Number of core orbitals:           5 (   5 )
 Number of closed-shell orbitals:  16 (  16 )

 Basis set MINAO-AUTO-PP generated.      Number of basis functions:   35 

 Polarized AO type:                A = (O Ot + (1-O)(1-Ot)) P12
 Orthogonalization method:         Symmetric (Loewdin)
 Localization functional:          L = sum[A,i] <i|n_A|i>^4 -> max

 Localization group 1:  21 orbitals, occupancy  2.000
 Iterative localization: IB/PM,    7 iter; Final gradient 0.16E-08

 Bond order analysis:       [THRPRINT= 0.020]

   CEN ATOM   CEN ATOM     WIBERG.BO      RENORM.BO
     1   C  -   2   C       0.996174       0.993163
     1   C  -   5   H       0.964319       0.987798
     1   C  -   6   H       0.959067       0.982930
     1   C  -   7   H       0.959067       0.982930

     2   C  -   1   C       0.996174       0.993163
     2   C  -   9   C       0.994808       0.976495
     2   C  -   8   C       0.994808       0.976495
     2   C  -   3   O       0.935989       0.954263

     3   O  -   2   C       0.935989       0.954263
     3   O  -   4   H       0.863054       0.978512
     3   O  -   9   C       0.025471       0.013025
     3   O  -   8   C       0.025471       0.013025

     4   H  -   3   O       0.863054       0.978512

     5   H  -   1   C       0.964319       0.987798

     6   H  -   1   C       0.959067       0.982930

     7   H  -   1   C       0.959067       0.982930

     8   C  -   2   C       0.994808       0.976495
     8   C  -  14   H       0.963721       0.983493
     8   C  -  12   H       0.960527       0.983741
     8   C  -  10   H       0.959570       0.982853
     8   C  -   3   O       0.025471       0.013025

     9   C  -   2   C       0.994808       0.976495
     9   C  -  15   H       0.963721       0.983493
     9   C  -  13   H       0.960527       0.983741
     9   C  -  11   H       0.959570       0.982853
     9   C  -   3   O       0.025471       0.013025

    10   H  -   8   C       0.959570       0.982853

    11   H  -   9   C       0.959570       0.982853

    12   H  -   8   C       0.960527       0.983741

    13   H  -   9   C       0.960527       0.983741

    14   H  -   8   C       0.963721       0.983493

    15   H  -   9   C       0.963721       0.983493


 Valency analysis:

   CEN ATOM   TOT.VALENCE
     1   C       3.934801
     2   C       3.931510
     3   O       1.911079
     4   H       0.880950
     5   H       0.981815
     6   H       0.978612
     7   H       0.978612
     8   C       3.937459
     9   C       3.937459
    10   H       0.978617
    11   H       0.978617
    12   H       0.980632
    13   H       0.980632
    14   H       0.983195
    15   H       0.983195

 Total charge composition:

   CEN ATOM         s          p       ELECTRONS ->P.CHARGE
     1   C       3.04070    3.37988      6.42058   -0.42058
     2   C       2.93680    2.80124      5.73803    0.26197
     3   O       3.63582    4.93719      8.57301   -0.57301
     4   H       0.65496                 0.65496    0.34504
     5   H       0.86515                 0.86515    0.13485
     6   H       0.85375                 0.85375    0.14625
     7   H       0.85375                 0.85375    0.14625
     8   C       3.04650    3.38891      6.43541   -0.43541
     9   C       3.04650    3.38891      6.43541   -0.43541
    10   H       0.85377                 0.85377    0.14623
    11   H       0.85377                 0.85377    0.14623
    12   H       0.86083                 0.86083    0.13917
    13   H       0.86083                 0.86083    0.13917
    14   H       0.87037                 0.87037    0.12963
    15   H       0.87037                 0.87037    0.12963

 Total charge composition, AO contributions:

   CEN ATOM SHL      SPHERICAL COMPONENTS
     1   C  1s       1.99092
     1   C  2s       1.04978
     1   C  2p       1.04168    1.16208    1.17611

     2   C  1s       1.99256
     2   C  2s       0.94423
     2   C  2p       1.00724    0.78756    1.00644

     3   O  1s       1.99710
     3   O  2s       1.63872
     3   O  2p       1.48062    1.49629    1.96028

     4   H  1s       0.65496

     5   H  1s       0.86515

     6   H  1s       0.85375

     7   H  1s       0.85375

     8   C  1s       1.99103
     8   C  2s       1.05548
     8   C  2p       1.14490    1.14540    1.09861

     9   C  1s       1.99103
     9   C  2s       1.05548
     9   C  2p       1.14490    1.14540    1.09861

    10   H  1s       0.85377

    11   H  1s       0.85377

    12   H  1s       0.86083

    13   H  1s       0.86083

    14   H  1s       0.87037

    15   H  1s       0.87037

 Summary of localized orbital composition:   [THRPRINT= 0.020]

   ORB  GRP  ORB.ENERGY      CENTERS/CHARGES
     1   1   -19.438878      O  3   2.000
     2   1   -10.493214      C  2   2.000
     3   1   -10.397225      C  8   2.000
     4   1   -10.397225      C  9   2.000
     5   1   -10.391425      C  1   2.000
     6   1    -0.857011      O  3   1.346   H  4   0.645
     7   1    -0.812089      O  3   1.280   C  2   0.703
     8   1    -0.667554      O  3   1.983
     9   1    -0.656344      C  9   1.011   C  2   0.975
    10   1    -0.656344      C  8   1.011   C  2   0.975
    11   1    -0.656282      C  1   0.991   C  2   0.987   (other: 0.022)
    12   1    -0.580644      C  8   1.135   H 12   0.852
    13   1    -0.580644      C  9   1.135   H 13   0.852
    14   1    -0.578785      C  9   1.125   H 15   0.864
    15   1    -0.578785      C  8   1.125   H 14   0.864
    16   1    -0.576287      C  1   1.129   H  5   0.858
    17   1    -0.575097      C  8   1.144   H 10   0.846
    18   1    -0.575097      C  9   1.144   H 11   0.846
    19   1    -0.570470      C  1   1.143   H  6   0.846
    20   1    -0.570470      C  1   1.143   H  7   0.846
    21   1    -0.390218      O  3   1.960   (other: 0.040)

 Localized orbitals saved to record      2200.2  (orbital set 4)


 **********************************************************************************************************************************
 DATASETS  * FILE   NREC   LENGTH (MB)   RECORD NAMES
              1      20      928.02       500      610      700      900      950      970     1000      129      960     1100   
                                          VAR    BASINP    GEOM    SYMINP    ZMAT    AOBASIS   BASIS     P2S    ABASIS      S 
                                         1400     1410     1200     1210     1080     1600     1650     1300     1700     1800   
                                           T        V       H0       H01     AOSYM     SMH    MOLCAS    ERIS     OPER     GRID   

              2       5        5.27       700     1000      520     1800     2200   
                                         GEOM     BASIS   MCVARS    GRID      UKS  

 PROGRAMS   *        TOTAL      IBBA       UKS       INT
 CPU TIMES  *       223.44      0.08    196.57     26.64
 REAL TIME  *       262.21 SEC
 DISK USED  *         3.90 GB      
 **********************************************************************************************************************************
 Molecular orbitals read from record     2200.2  Type=UKS/LOCAL(IBO)  
 Occupation numbers read from record     2200.2  Type=UKS/LOCAL(IBO)  
 Orbital energies read from record       2200.2  Type=UKS/LOCAL(IBO)  
 Redundancy group numbers read from rec  2200.2  Type=UKS/BETA (state 1.1)

 IBBA/TZVP energy=      0.000000000000

        UKS-SCF 
   -233.70336381
 **********************************************************************************************************************************
 Molpro calculation terminated
