
 Primary working directories    : /tmp/sb13343
 Secondary working directories  : /tmp/sb13343
 Wavefunction directory         : /panfs/panasas01/chem/sb13343/wfu/
 Main file repository           : /tmp/sb13343/

 SHA1      : b4a5b34a9e711420743f49e6833241d17c61fb3c
 NAME      : 2099.9.b4a5b34
 ARCHNAME  : linux/x86_64_openmp
 FC        : /cm/shared/languages/GCC-6.1/bin/gfortran
 BLASLIB   : -lblas
 id        : simonbennie

 Nodes     nprocs
 node32-034    1

 Using customized tuning parameters: mindgm=1; mindgv=20; mindgc=4; mindgr=1; noblas=0; minvec=7
 default implementation of scratch files=df  

 memory,500,m
 geomtyp=xyz
 nosym
 noorient
 geometry={
 H         -1.13405        1.76167        0.00000
 C         -1.32915        0.67205        0.00000
 C         -0.06360       -0.12883        0.00000
 C          0.67426       -0.31636        1.28970
 C          0.67426       -0.31636       -1.28970
 H         -1.94006        0.46750        0.88859
 H         -1.94006        0.46750       -0.88859
 H          1.28359        0.56876        1.55544
 H         -0.01165       -0.48291        2.13019
 H          1.36783       -1.16569        1.24157
 H          1.28359        0.56876       -1.55544
 H         -0.01165       -0.48291       -2.13019
 H          1.36783       -1.16569       -1.24157
 }
 basis={ default,svp }
 {uks,MM06-L,direct;wf,33,1,1}
 {ibba,bonds=1}

 Variables initialized (895), CPU time= 0.00 sec
 Commands  initialized (725), CPU time= 0.01 sec, 591 directives.
 Default parameters read. Elapsed time= 0.07 sec

 Checking input...
 Passed
1


                                         ***  PROGRAM SYSTEM MOLPRO  ***
                                       Copyright, TTI GmbH Stuttgart, 2015
                                    Version 2099.9 linked May 26 2017 16:03:21


 **********************************************************************************************************************************
 LABEL *                                                                                 
  64 bit serial version                                                                  DATE: 08-Jun-17          TIME: 20:41:29  
 **********************************************************************************************************************************

 SHA1:             b4a5b34a9e711420743f49e6833241d17c61fb3c
 **********************************************************************************************************************************
 SETTING GEOMTYP        =    XYZ

 Variable memory set to  500000000 words,  buffer space 

 ZSYMEL=NOSYM

 SETTING BASIS          =    SVP


 Recomputing integrals since basis changed


 Using spherical harmonics

 Library entry H      S def2-SVP             selected for orbital group  1
 Library entry H      P def2-SVP             selected for orbital group  1
 Library entry C      S def2-SVP             selected for orbital group  2
 Library entry C      P def2-SVP             selected for orbital group  2
 Library entry C      D def2-SVP             selected for orbital group  2


 PROGRAM * SEWARD (Integral evaluation for generally contracted gaussian basis sets)     Author: Roland Lindh, 1990

 Geometry written to block  1 of record 700


 Point group  C1  



 ATOMIC COORDINATES

 NR  ATOM    CHARGE       X              Y              Z

   1  H       1.00   -2.143043912    3.329073822    0.000000000
   2  C       6.00   -2.511729478    1.269990442    0.000000000
   3  C       6.00   -0.120186582   -0.243453417    0.000000000
   4  C       6.00    1.274166737   -0.597833757    2.437179783
   5  C       6.00    1.274166737   -0.597833757   -2.437179783
   6  H       1.00   -3.666182065    0.883446963    1.679191737
   7  H       1.00   -3.666182065    0.883446963   -1.679191737
   8  H       1.00    2.425633556    1.074800631    2.939355603
   9  H       1.00   -0.022015309   -0.912567643    4.025475693
  10  H       1.00    2.584824085   -2.202834846    2.346227264
  11  H       1.00    2.425633556    1.074800631   -2.939355603
  12  H       1.00   -0.022015309   -0.912567643   -4.025475693
  13  H       1.00    2.584824085   -2.202834846   -2.346227264

 Bond lengths in Bohr (Angstrom)

 1-2  2.091830159  2-3  2.830192527  2-6  2.074092940  2-7  2.074092940  3-4  2.830132841
     ( 1.106948849)     ( 1.497673388)     ( 1.097562717)     ( 1.097562717)     ( 1.497641803)

  3- 5  2.830132841   4- 8  2.091832255   4- 9  2.074085151   4-10  2.074156104   5-11  2.091832255
       ( 1.497641803)       ( 1.106949959)       ( 1.097558596)       ( 1.097596142)       ( 1.106949959)

  5-12  2.074085151   5-13  2.074156104
       ( 1.097558596)       ( 1.097596142)

 Bond angles

  1-2-3  112.17549786   1-2-6  106.35284965   1-2-7  106.35284965   2-3-4  118.89987932

  2-3-5  118.89987932   3-2-6  111.75744418   3-2-7  111.75744418   3-4-8  112.19808176

  3- 4- 9  111.75014522   3- 4-10  111.74379558   3- 5-11  112.19808176   3- 5-12  111.75014522

  3- 5-13  111.74379558   4- 3- 5  118.89276928   6- 2- 7  108.11431090   8- 4- 9  106.34995457

  8- 4-10  106.34572146   9- 4-10  108.12296896  11- 5-12  106.34995457  11- 5-13  106.34572146

 12- 5-13  108.12296896

 NUCLEAR CHARGE:                   33
 NUMBER OF PRIMITIVE AOS:         163
 NUMBER OF SYMMETRY AOS:          159
 NUMBER OF CONTRACTIONS:          101   ( 101A   )
 NUMBER OF CORE ORBITALS:           4   (   4A   )
 NUMBER OF VALENCE ORBITALS:       25   (  25A   )


 NUCLEAR REPULSION ENERGY  124.92676597


 Eigenvalues of metric

         1 0.371E-02 0.424E-02 0.424E-02 0.242E-01 0.242E-01 0.268E-01 0.277E-01 0.371E-01


 Contracted 2-electron integrals neglected if value below      1.0D-11
 AO integral compression algorithm  1   Integral accuracy      1.0D-11

     53.477 MB (compressed) written to integral file ( 46.4%)


 NUMBER OF SORTED TWO-ELECTRON INTEGRALS:   13268976.     BUFFER LENGTH:  32768
 NUMBER OF SEGMENTS:   1  SEGMENT LENGTH:   13268976      RECORD LENGTH: 524288

 Memory used in sort:      13.83 MW

 SORT1 READ    14422061. AND WROTE    12225547. INTEGRALS IN     35 RECORDS. CPU TIME:     0.15 SEC, REAL TIME:     0.32 SEC
 SORT2 READ    12225547. AND WROTE    13268976. INTEGRALS IN    204 RECORDS. CPU TIME:     0.32 SEC, REAL TIME:     0.41 SEC

 FILE SIZES:   FILE 1:    84.0 MBYTE,  FILE 4:   146.8 MBYTE,   TOTAL:    230.9 MBYTE

 OPERATOR DM      FOR CENTER  0  COORDINATES:    0.000000    0.000000    0.000000


 **********************************************************************************************************************************
 DATASETS  * FILE   NREC   LENGTH (MB)   RECORD NAMES
              1      19       77.16       500      610      700      900      950      970     1000      129      960     1100   
                                          VAR    BASINP    GEOM    SYMINP    ZMAT    AOBASIS   BASIS     P2S    ABASIS      S 
                                         1400     1410     1200     1210     1080     1600     1650     1300     1700   
                                           T        V       H0       H01     AOSYM     SMH    MOLCAS    ERIS     OPER   

 PROGRAMS   *        TOTAL       INT
 CPU TIMES  *         2.13      1.99
 REAL TIME  *         2.78 SEC
 DISK USED  *       231.35 MB      
 **********************************************************************************************************************************

 Density functional group MM06-L=M06LX+M06LC
 Functional: M06LX(Automatically generated (new) M06LX)                        Gradient terms: 2
 Functional: M06LC(Automatically generated (new) M06LC)                        Gradient terms: 2
 Use grid at  1800.2

 Functional: M06LX                     Factor:  1.0000
 Functional: M06LC                     Factor:  1.0000

 Generated new metagrid on record  1800.2 with target accuracy 1.0D-06 and 45406 points in CPU time    1.3
 Computed new grid on record 1800.1 in CPU time    1.4
  161317 words reserved for DFT integration

 PROGRAM * UKS-SCF (Unrestricted Kohn-Sham)     Authors: W. Meyer, H.-J. Werner, P.J. Knowles, 1993

 NUMBER OF ELECTRONS:      17+   16-    SPACE SYMMETRY=1    SPIN SYMMETRY: Doublet 
 CONVERGENCE THRESHOLDS:    1.00E-05 (Density)    1.00E-06 (Energy)
 MAX. NUMBER OF ITERATIONS:       60
 INTERPOLATION TYPE:            DIIS
 INTERPOLATION STEPS:              2 (START)      1 (STEP)
 LEVEL SHIFTS:                 -0.20 (ALPHA)  -0.20 (BETA) 



 Use fine grid record 1800.2 for energy threshold  1.0D-06
 Orbital guess generated from atomic densities. Full valence occupancy:   17

 Molecular orbital dump at record        2200.2

 Initial alpha occupation  17
 Initial beta  occupation  16

 ITERATION    DDIFF          GRAD             ENERGY        2-EL.EN.            DIPOLE MOMENTS         DIIS
    1      0.000D+00      0.000D+00      -157.45885359    412.191919    0.12976    0.26216    0.00000    0
    2      0.124D-01      0.584D-02      -157.63164698    396.307108    0.04877    0.10591    0.00000    1
    3      0.358D-02      0.235D-02      -157.65791834    400.140871    0.05675    0.12101    0.00000    2
    4      0.910D-03      0.308D-03      -157.65877675    399.938397    0.05144    0.11045    0.00000    3
    5      0.350D-03      0.114D-03      -157.65895532    399.931984    0.04848    0.10520    0.00000    4
    6      0.192D-03      0.656D-04      -157.65901044    399.900771    0.04476    0.09808    0.00000    5
    7      0.588D-04      0.211D-04      -157.65901573    399.908851    0.04514    0.09890    0.00000    6
    8      0.182D-04      0.609D-05      -157.65901620    399.907583    0.04442    0.09742    0.00000    7
    9      0.563D-05      0.178D-05      -157.65901623    399.907259    0.04466    0.09790    0.00000    7
   10      0.147D-05      0.462D-06      -157.65901623    399.907610    0.04464    0.09784    0.00000    7

 Final alpha occupancy:  17
 Final beta  occupancy:  16

 !UKS STATE 1.1 Energy               -157.659016230526
 Nuclear energy                       124.92676597
 One-electron energy                 -457.51918174
 Two-electron energy                  199.95380493
 Density functional                   -25.02040540     M06LX=-23.90756084 M06LC= -1.11284455
 Virial quotient                       -1.01219891
 !UKS STATE 1.1 Dipole moment           0.04463916     0.09784073     0.00000000
 Dipole moment /Debye                   0.11345400     0.24867005     0.00000000

 Orbital energies for positive spin:

         1.1          2.1          3.1          4.1          5.1          6.1          7.1          8.1          9.1         10.1
    -10.058385   -10.051357   -10.050722   -10.050715    -0.754924    -0.642746    -0.642447    -0.493796    -0.404109    -0.400051

        11.1         12.1         13.1         14.1         15.1         16.1         17.1         18.1         19.1
     -0.399881    -0.347673    -0.347545    -0.329280    -0.308561    -0.308480    -0.143079     0.074721     0.115346

 Orbital energies for negative spin:

         1.1          2.1          3.1          4.1          5.1          6.1          7.1          8.1          9.1         10.1
    -10.052202   -10.051606   -10.051601   -10.044589    -0.735230    -0.641372    -0.640965    -0.473382    -0.395795    -0.395672

        11.1         12.1         13.1         14.1         15.1         16.1         17.1         18.1         19.1
     -0.383527    -0.342906    -0.342681    -0.328372    -0.305304    -0.305141    -0.039884     0.069935     0.112795

 HOMO     17.1    -0.143079 =      -3.8934eV
 LUMO    -17.1    -0.039884 =      -1.0853eV
 LUMO-HOMO         0.103196 =       2.8081eV

 EXPECTATION VALUE OF S**2:             0.75588976

 Occupation number threshold for canonical orbitals:  1.999000 (occupied),  0.001000 (virtual)

 Number of pseudo-canonical orbitals per symmetry:   15
 Number of active natural orbitals per symmetry:      3

 Natural orbitals saved to record    2200.2 (Orbital set 3)

 Orbital spaces for UNO-CAS (Min. occupation: 0.020  Max. occupation: 1.980):

 Closed:       16
 Active:        1


 **********************************************************************************************************************************
 DATASETS  * FILE   NREC   LENGTH (MB)   RECORD NAMES
              1      20       78.61       500      610      700      900      950      970     1000      129      960     1100   
                                          VAR    BASINP    GEOM    SYMINP    ZMAT    AOBASIS   BASIS     P2S    ABASIS      S 
                                         1400     1410     1200     1210     1080     1600     1650     1300     1700     1800   
                                           T        V       H0       H01     AOSYM     SMH    MOLCAS    ERIS     OPER     GRID   

              2       5        3.39       700     1000      520     1800     2200   
                                         GEOM     BASIS   MCVARS    GRID      UKS  

 PROGRAMS   *        TOTAL       UKS       INT
 CPU TIMES  *        56.55     54.42      1.99
 REAL TIME  *        57.46 SEC
 DISK USED  *       231.35 MB      
 **********************************************************************************************************************************


 PROGRAM * Intrinsic Basis Bonding Analysis (IBBA)          Author: G. Knizia

 Molecular orbitals read from record     2200.2  Type=UKS/ALPHA (state 1.1)
 Fock matrix read from record            2200.2  Type=UKS/TOTAL (state 1.1)
 Orbital energies read from record       2200.2  Type=UKS/ALPHA (state 1.1)
 Density matrix read from record         2200.2  Type=UKS/CHARGE (state 1.1)

 Number of core orbitals:           4 (   4 )
 Number of closed-shell orbitals:  12 (  12 )
 Number of active  orbitals:        1 (   1 )

 Basis set MINAO-AUTO-PP generated.      Number of basis functions:   29 

 Polarized AO type:                A = (O Ot + (1-O)(1-Ot)) P12
 Orthogonalization method:         Symmetric (Loewdin)
 Localization functional:          L = sum[A,i] <i|n_A|i>^4 -> max

 Localization group 1:  16 orbitals, occupancy  2.000
 Iterative localization: IB/PM,    8 iter; Final gradient 0.25E-08

 Bond order analysis:       [THRPRINT= 0.020]

   CEN ATOM   CEN ATOM     WIBERG.BO      RENORM.BO
     1   H  -   2   C       0.878283       0.995419
     1   H  -   3   C       0.053096       0.169638

     2   C  -   3   C       1.134754       1.305496
     2   C  -   7   H       0.947575       0.986490
     2   C  -   6   H       0.947575       0.986490
     2   C  -   1   H       0.878283       0.995419

     3   C  -   5   C       1.134810       1.305576
     3   C  -   4   C       1.134810       1.305576
     3   C  -   2   C       1.134754       1.305496
     3   C  -  11   H       0.053120       0.169747
     3   C  -   8   H       0.053120       0.169747
     3   C  -   1   H       0.053096       0.169638

     4   C  -   3   C       1.134810       1.305576
     4   C  -  10   H       0.947572       0.986517
     4   C  -   9   H       0.947570       0.986456
     4   C  -   8   H       0.878220       0.995435

     5   C  -   3   C       1.134810       1.305576
     5   C  -  13   H       0.947572       0.986517
     5   C  -  12   H       0.947570       0.986456
     5   C  -  11   H       0.878220       0.995435

     6   H  -   2   C       0.947575       0.986490

     7   H  -   2   C       0.947575       0.986490

     8   H  -   4   C       0.878220       0.995435
     8   H  -   3   C       0.053120       0.169747

     9   H  -   4   C       0.947570       0.986456

    10   H  -   4   C       0.947572       0.986517

    11   H  -   5   C       0.878220       0.995435
    11   H  -   3   C       0.053120       0.169747

    12   H  -   5   C       0.947570       0.986456

    13   H  -   5   C       0.947572       0.986517


 Valency analysis:

   CEN ATOM   TOT.VALENCE
     1   H       0.960243
     2   C       3.951903
     3   C       3.626289
     4   C       3.951910
     5   C       3.951910
     6   H       0.978822
     7   H       0.978822
     8   H       0.960188
     9   H       0.978884
    10   H       0.978798
    11   H       0.960188
    12   H       0.978884
    13   H       0.978798
 Localization group 2:   1 orbitals, occupancy  1.000
 Iterative localization: IB/PM,    1 iter; Final gradient 0.00E+00

 Bond order analysis:       [THRPRINT= 0.020]

   CEN ATOM   CEN ATOM     WIBERG.BO      RENORM.BO
     1   H  -   3   C       0.092169       0.500000


     3   C  -   1   H       0.092169       0.500000
     3   C  -  11   H       0.092096       0.500000
     3   C  -   8   H       0.092096       0.500000





     8   H  -   3   C       0.092096       0.500000



    11   H  -   3   C       0.092096       0.500000




 Valency analysis:

   CEN ATOM   TOT.VALENCE
     1   H       0.120850
     2   C       0.015065
     3   C       0.408918
     4   C       0.015094
     5   C       0.015094
     6   H       0.023096
     7   H       0.023096
     8   H       0.120761
     9   H       0.023141
    10   H       0.023049
    11   H       0.120761
    12   H       0.023141
    13   H       0.023049

 Total charge composition:

   CEN ATOM         s          p       ELECTRONS ->P.CHARGE
     1   H       0.86521                 0.86521    0.13479
     2   C       3.02134    3.32867      6.35001   -0.35001
     3   C       3.02506    3.13216      6.15723   -0.15723
     4   C       3.02122    3.32894      6.35016   -0.35016
     5   C       3.02122    3.32894      6.35016   -0.35016
     6   H       0.86616                 0.86616    0.13384
     7   H       0.86616                 0.86616    0.13384
     8   H       0.86502                 0.86502    0.13498
     9   H       0.86640                 0.86640    0.13360
    10   H       0.86605                 0.86605    0.13395
    11   H       0.86502                 0.86502    0.13498
    12   H       0.86640                 0.86640    0.13360
    13   H       0.86605                 0.86605    0.13395

 Total charge composition, AO contributions:

   CEN ATOM SHL      SPHERICAL COMPONENTS
     1   H  1s       0.86521

     2   C  1s       1.99063
     2   C  2s       1.03071
     2   C  2p       1.07395    1.10074    1.15397

     3   C  1s       1.99227
     3   C  2s       1.03280
     3   C  2p       1.03401    1.07866    1.01949

     4   C  1s       1.99063
     4   C  2s       1.03059
     4   C  2p       1.12173    1.13300    1.07421

     5   C  1s       1.99063
     5   C  2s       1.03059
     5   C  2p       1.12173    1.13300    1.07421

     6   H  1s       0.86616

     7   H  1s       0.86616

     8   H  1s       0.86502

     9   H  1s       0.86640

    10   H  1s       0.86605

    11   H  1s       0.86502

    12   H  1s       0.86640

    13   H  1s       0.86605

 Active orbital charges:

   CEN ATOM         s          p       ELECTRONS ->SPIN.DEN
     1   H       0.06460                 0.06460    0.06460
     2   C       0.00024    0.00735      0.00759    0.00759
     3   C       0.01012    0.70329      0.71340    0.71340
     4   C       0.00024    0.00737      0.00760    0.00760
     5   C       0.00024    0.00737      0.00760    0.00760
     6   H       0.01168                 0.01168    0.01168
     7   H       0.01168                 0.01168    0.01168
     8   H       0.06455                 0.06455    0.06455
     9   H       0.01171                 0.01171    0.01171
    10   H       0.01166                 0.01166    0.01166
    11   H       0.06455                 0.06455    0.06455
    12   H       0.01171                 0.01171    0.01171
    13   H       0.01166                 0.01166    0.01166

 Active orbital charges, AO contributions:

   CEN ATOM SHL      SPHERICAL COMPONENTS
     1   H  1s       0.06460

     2   C  1s       0.00000
     2   C  2s       0.00024
     2   C  2p       0.00015    0.00720    0.00000

     3   C  1s       0.00002
     3   C  2s       0.01010
     3   C  2p       0.13808    0.56520    0.00000

     4   C  1s       0.00000
     4   C  2s       0.00024
     4   C  2p       0.00231    0.00454    0.00052

     5   C  1s       0.00000
     5   C  2s       0.00024
     5   C  2p       0.00231    0.00454    0.00052

     6   H  1s       0.01168

     7   H  1s       0.01168

     8   H  1s       0.06455

     9   H  1s       0.01171

    10   H  1s       0.01166

    11   H  1s       0.06455

    12   H  1s       0.01171

    13   H  1s       0.01166

 Summary of localized orbital composition:   [THRPRINT= 0.020]

   ORB  GRP  ORB.ENERGY      CENTERS/CHARGES
     1   1    -9.953114      C  3   2.000
     2   1    -9.936496      C  2   2.000
     3   1    -9.935901      C  4   2.000
     4   1    -9.935901      C  5   2.000
     5   1    -0.554442      C  3   1.009   C  2   0.978
     6   1    -0.554112      C  3   1.008   C  4   0.979
     7   1    -0.554112      C  3   1.008   C  5   0.979
     8   1    -0.460638      C  2   1.104   H  1   0.793   C  3   0.096
     9   1    -0.460436      C  4   1.105   H  8   0.793   C  3   0.096
    10   1    -0.460436      C  5   1.105   H 11   0.793   C  3   0.096
    11   1    -0.455052      C  2   1.125   H  6   0.848   C  3   0.022
    12   1    -0.455052      C  2   1.125   H  7   0.848   C  3   0.022
    13   1    -0.454448      C  5   1.125   H 13   0.848   C  3   0.022
    14   1    -0.454448      C  4   1.125   H 10   0.848   C  3   0.022
    15   1    -0.454419      C  5   1.125   H 12   0.848   C  3   0.022
    16   1    -0.454419      C  4   1.125   H  9   0.848   C  3   0.022
    17   2    -0.089485      C  3   0.713   H  1   0.065   H 11   0.065   H  8   0.065   (other: 0.093)

 Localized orbitals saved to record      2200.2  (orbital set 4)


 **********************************************************************************************************************************
 DATASETS  * FILE   NREC   LENGTH (MB)   RECORD NAMES
              1      20       78.61       500      610      700      900      950      970     1000      129      960     1100   
                                          VAR    BASINP    GEOM    SYMINP    ZMAT    AOBASIS   BASIS     P2S    ABASIS      S 
                                         1400     1410     1200     1210     1080     1600     1650     1300     1700     1800   
                                           T        V       H0       H01     AOSYM     SMH    MOLCAS    ERIS     OPER     GRID   

              2       5        3.47       700     1000      520     1800     2200   
                                         GEOM     BASIS   MCVARS    GRID      UKS  

 PROGRAMS   *        TOTAL      IBBA       UKS       INT
 CPU TIMES  *        56.59      0.04     54.42      1.99
 REAL TIME  *        57.57 SEC
 DISK USED  *       231.35 MB      
 **********************************************************************************************************************************
 Molecular orbitals read from record     2200.2  Type=UKS/LOCAL(IBO)  
 Occupation numbers read from record     2200.2  Type=UKS/LOCAL(IBO)  
 Orbital energies read from record       2200.2  Type=UKS/LOCAL(IBO)  
 Redundancy group numbers read from rec  2200.2  Type=UKS/BETA (state 1.1)

 IBBA/SVP energy=      0.000000000000

        UKS-SCF 
   -157.65901623
 **********************************************************************************************************************************
 Molpro calculation terminated
