
 Primary working directories    : /tmp/sb13343
 Secondary working directories  : /tmp/sb13343
 Wavefunction directory         : /panfs/panasas01/chem/sb13343/wfu/
 Main file repository           : /tmp/sb13343/

 SHA1      : b4a5b34a9e711420743f49e6833241d17c61fb3c
 NAME      : 2099.9.b4a5b34
 ARCHNAME  : linux/x86_64_openmp
 FC        : /cm/shared/languages/GCC-6.1/bin/gfortran
 BLASLIB   : -lblas
 id        : simonbennie

 Nodes     nprocs
 node32-002    1

 Using customized tuning parameters: mindgm=1; mindgv=20; mindgc=4; mindgr=1; noblas=0; minvec=7
 default implementation of scratch files=df  

 memory,500,m
 geomtyp=xyz
 nosym
 noorient
 geometry={
 C          0.00000        0.00000        0.00000
 C          0.00000        0.00000        1.53307
 O          1.40344        0.00000        1.86307
 C          1.76314        0.00000        3.22887
 H         -1.02289        0.00000       -0.39176
 H          0.51995       -0.88625       -0.37815
 H          0.51995        0.88625       -0.37815
 H          2.85677        0.00000        3.25413
 H          1.40708       -0.89217        3.76475
 H          1.40708        0.89217        3.76475
 C         -0.69252       -1.26694        2.06222
 C         -0.69252        1.26694        2.06222
 H         -0.15366       -2.16088        1.72982
 H         -0.15366        2.16088        1.72982
 H         -1.72011       -1.32515        1.68649
 H         -1.72011        1.32515        1.68649
 H         -0.74365       -1.28188        3.15638
 H         -0.74365        1.28188        3.15638
 }
 basis={ default,svp }
 {uks,CS,direct;wf,50,1,0}
 {ibba,bonds=1}

 Variables initialized (895), CPU time= 0.00 sec
 Commands  initialized (725), CPU time= 0.01 sec, 591 directives.
 Default parameters read. Elapsed time= 0.12 sec

 Checking input...
 Passed
1


                                         ***  PROGRAM SYSTEM MOLPRO  ***
                                       Copyright, TTI GmbH Stuttgart, 2015
                                    Version 2099.9 linked May 26 2017 16:03:21


 **********************************************************************************************************************************
 LABEL *                                                                                 
  64 bit serial version                                                                  DATE: 09-Jun-17          TIME: 01:52:29  
 **********************************************************************************************************************************

 SHA1:             b4a5b34a9e711420743f49e6833241d17c61fb3c
 **********************************************************************************************************************************
 SETTING GEOMTYP        =    XYZ

 Variable memory set to  500000000 words,  buffer space 

 ZSYMEL=NOSYM

 SETTING BASIS          =    SVP


 Recomputing integrals since basis changed


 Using spherical harmonics

 Library entry C      S def2-SVP             selected for orbital group  1
 Library entry C      P def2-SVP             selected for orbital group  1
 Library entry C      D def2-SVP             selected for orbital group  1
 Library entry O      S def2-SVP             selected for orbital group  2
 Library entry O      P def2-SVP             selected for orbital group  2
 Library entry O      D def2-SVP             selected for orbital group  2
 Library entry H      S def2-SVP             selected for orbital group  4
 Library entry H      P def2-SVP             selected for orbital group  4


 PROGRAM * SEWARD (Integral evaluation for generally contracted gaussian basis sets)     Author: Roland Lindh, 1990

 Geometry written to block  1 of record 700


 Point group  C1  



 ATOMIC COORDINATES

 NR  ATOM    CHARGE       X              Y              Z

   1  C       6.00    0.000000000    0.000000000    0.000000000
   2  C       6.00    0.000000000    0.000000000    2.897082430
   3  O       8.00    2.652117232    0.000000000    3.520692051
   4  C       6.00    3.331851719    0.000000000    6.101679992
   5  H       1.00   -1.932981956    0.000000000   -0.740319107
   6  H       1.00    0.982563098   -1.674769778   -0.714599934
   7  H       1.00    0.982563098    1.674769778   -0.714599934
   8  H       1.00    5.398512901    0.000000000    6.149414474
   9  H       1.00    2.658995835   -1.685956957    7.114346427
  10  H       1.00    2.658995835    1.685956957    7.114346427
  11  C       6.00   -1.308673136   -2.394169616    3.897031009
  12  C       6.00   -1.308673136    2.394169616    3.897031009
  13  H       1.00   -0.290375316   -4.083471388    3.268886045
  14  H       1.00   -0.290375316    4.083471388    3.268886045
  15  H       1.00   -3.250536804   -2.504170574    3.187004212
  16  H       1.00   -3.250536804    2.504170574    3.187004212
  17  H       1.00   -1.405294833   -2.422402125    5.964693745
  18  H       1.00   -1.405294833    2.422402125    5.964693745

 Bond lengths in Bohr (Angstrom)

 1-2  2.897082430  1-5  2.069901355  1-6  2.069042560  1-7  2.069042560  2-3  2.724447609
     ( 1.533070000)     ( 1.095344626)     ( 1.094890171)     ( 1.094890171)     ( 1.441715587)

  2-11  2.905954351   2-12  2.905954351   3- 4  2.668995640   4- 8  2.067212379   4- 9  2.078624355
       ( 1.537764818)       ( 1.537764818)       ( 1.412371669)       ( 1.093921681)       ( 1.099960639)

  4-10  2.078624355  11-13  2.070081404  11-15  2.070524757  11-17  2.070111596  12-14  2.070081404
       ( 1.099960639)       ( 1.095439904)       ( 1.095674516)       ( 1.095455880)       ( 1.095439904)

 12-16  2.070524757  12-18  2.070111596
       ( 1.095674516)       ( 1.095455880)

 Bond angles

  1- 2- 3  103.23196371   1- 2-11  110.12706952   1- 2-12  110.12706952   2- 1- 5  110.95650426

  2- 1- 6  110.20481748   2- 1- 7  110.20481748   2- 3- 4  117.98647004   2-11-13  110.26679927

  2-11-15  110.37287188   2-11-17  112.08316935   2-12-14  110.26679927   2-12-16  110.37287188

  2-12-18  112.08316935   3- 2-11  111.07703285   3- 2-12  111.07703285   3- 4- 8  106.07765410

  3- 4- 9  112.87219182   3- 4-10  112.87219182   5- 1- 6  108.65976572   5- 1- 7  108.65976572

  6- 1- 7  108.08288210   8- 4- 9  108.20190897   8- 4-10  108.20190897   9- 4-10  108.40564999

 11- 2-12  110.95103964  13-11-15  108.29648994  13-11-17  108.35544687  14-12-16  108.29648994

 14-12-18  108.35544687  15-11-17  107.33851825  16-12-18  107.33851825

 NUCLEAR CHARGE:                   50
 NUMBER OF PRIMITIVE AOS:         234
 NUMBER OF SYMMETRY AOS:          228
 NUMBER OF CONTRACTIONS:          144   ( 144A   )
 NUMBER OF CORE ORBITALS:           6   (   6A   )
 NUMBER OF VALENCE ORBITALS:       36   (  36A   )


 NUCLEAR REPULSION ENERGY  270.15500869


 Eigenvalues of metric

         1 0.176E-02 0.508E-02 0.513E-02 0.102E-01 0.124E-01 0.215E-01 0.221E-01 0.252E-01


 Contracted 2-electron integrals neglected if value below      1.0D-11
 AO integral compression algorithm  1   Integral accuracy      1.0D-11

     186.384 MB (compressed) written to integral file ( 41.3%)


 NUMBER OF SORTED TWO-ELECTRON INTEGRALS:   54502020.     BUFFER LENGTH:  32768
 NUMBER OF SEGMENTS:   4  SEGMENT LENGTH:   15999503      RECORD LENGTH: 524288

 Memory used in sort:      16.56 MW

 SORT1 READ    56333432. AND WROTE    45703433. INTEGRALS IN    132 RECORDS. CPU TIME:     0.81 SEC, REAL TIME:     2.31 SEC
 SORT2 READ    45703433. AND WROTE    54502020. INTEGRALS IN    711 RECORDS. CPU TIME:     1.14 SEC, REAL TIME:     1.98 SEC

 FILE SIZES:   FILE 1:   217.4 MBYTE,  FILE 4:   553.7 MBYTE,   TOTAL:    771.1 MBYTE

 OPERATOR DM      FOR CENTER  0  COORDINATES:    0.000000    0.000000    0.000000


 **********************************************************************************************************************************
 DATASETS  * FILE   NREC   LENGTH (MB)   RECORD NAMES
              1      19      194.45       500      610      700      900      950      970     1000      129      960     1100   
                                          VAR    BASINP    GEOM    SYMINP    ZMAT    AOBASIS   BASIS     P2S    ABASIS      S 
                                         1400     1410     1200     1210     1080     1600     1650     1300     1700   
                                           T        V       H0       H01     AOSYM     SMH    MOLCAS    ERIS     OPER   

 PROGRAMS   *        TOTAL       INT
 CPU TIMES  *         7.81      7.67
 REAL TIME  *        15.55 SEC
 DISK USED  *       771.70 MB      
 **********************************************************************************************************************************

 Density functional group CS=CS1
 Functional: CS1(Colle-Salvetti (Gradient form))                               Gradient terms: 1
 Use grid at  1800.2

 Functional: CS1                       Factor:  1.0000

 Generated new metagrid on record  1800.2 with target accuracy 1.0D-06 and 66012 points in CPU time    2.0
 Computed new grid on record 1800.1 in CPU time    2.3
  118710 words reserved for DFT integration

 PROGRAM * UKS-SCF (Unrestricted Kohn-Sham)     Authors: W. Meyer, H.-J. Werner, P.J. Knowles, 1993

 NUMBER OF ELECTRONS:      25+   25-    SPACE SYMMETRY=1    SPIN SYMMETRY: Singlet 
 CONVERGENCE THRESHOLDS:    1.00E-05 (Density)    1.00E-06 (Energy)
 MAX. NUMBER OF ITERATIONS:       60
 INTERPOLATION TYPE:            DIIS
 INTERPOLATION STEPS:              2 (START)      1 (STEP)
 LEVEL SHIFTS:                 -0.20 (ALPHA)  -0.20 (BETA) 



 Use fine grid record 1800.2 for energy threshold  1.0D-06
 Orbital guess generated from atomic densities. Full valence occupancy:   25

 Molecular orbital dump at record        2200.2

 Initial alpha occupation  25
 Initial beta  occupation  25

 ITERATION    DDIFF          GRAD             ENERGY        2-EL.EN.            DIPOLE MOMENTS         DIIS
    1      0.000D+00      0.000D+00      -232.84405396    723.438547    8.14648   -0.00000    1.07497    0
    2      0.244D+00      0.137D-01      -230.74619891    827.757559   -6.23179    0.00000    1.33204    1
    3      0.236D-01      0.236D-01      -234.82027959    786.983477   -2.37720    0.00000    0.44300    2
    4      0.101D-01      0.668D-02      -235.16336393    774.039144   -0.88618    0.00000    0.21028    3
    5      0.664D-02      0.219D-02      -235.20879032    771.007981   -0.24457   -0.00000    0.09932    4
    6      0.894D-02      0.565D-03      -235.21593896    768.442879    0.11976   -0.00000    0.07727    5
    7      0.245D-02      0.432D-03      -235.21792051    769.039506    0.08057    0.00000    0.08557    6
    8      0.106D-02      0.162D-03      -235.21826254    769.338622    0.05250   -0.00000    0.11048    7
    9      0.667D-03      0.672D-04      -235.21835377    769.376904    0.03332   -0.00000    0.11008    8
   10      0.298D-03      0.171D-04      -235.21836503    769.412129    0.03539   -0.00000    0.10998    7
   11      0.826D-04      0.570D-05      -235.21836617    769.393740    0.03502    0.00000    0.11187    8
   12      0.353D-04      0.391D-05      -235.21836646    769.402127    0.03471   -0.00000    0.11179    8
   13      0.221D-04      0.122D-05      -235.21836653    769.400026    0.03462   -0.00000    0.11171    8
   14      0.898D-05      0.457D-06      -235.21836654    769.400274    0.03470   -0.00000    0.11193    9
   15      0.376D-05      0.190D-06      -235.21836654    769.400266    0.03467   -0.00000    0.11198    8

 Final alpha occupancy:  25
 Final beta  occupancy:  25

 !UKS STATE 1.1 Energy               -235.218366540703
 Nuclear energy                       270.15500869
 One-electron energy                 -888.49358976
 Two-electron energy                  384.70013290
 Density functional                    -1.57991837     CS1=-1.57991837
 Virial quotient                       -0.92622146
 !UKS STATE 1.1 Dipole moment           0.03467386    -0.00000000     0.11197769
 Dipole moment /Debye                   0.08812638    -0.00000000     0.28460026

 Orbital energies for positive spin:

         1.1          2.1          3.1          4.1          5.1          6.1          7.1          8.1          9.1         10.1
    -16.596162    -8.231969    -8.227193    -8.198661    -8.198244    -8.193224    -0.589579    -0.403325    -0.312172    -0.302627

        11.1         12.1         13.1         14.1         15.1         16.1         17.1         18.1         19.1         20.1
     -0.275933    -0.184006    -0.153502    -0.137652    -0.134478    -0.107662    -0.087640    -0.068477    -0.046103    -0.038926

        21.1         22.1         23.1         24.1         25.1         26.1         27.1
     -0.025861    -0.019484    -0.019246     0.043899     0.084095     0.180536     0.216759

 Orbital energies for negative spin:

         1.1          2.1          3.1          4.1          5.1          6.1          7.1          8.1          9.1         10.1
    -16.596162    -8.231969    -8.227193    -8.198661    -8.198244    -8.193224    -0.589579    -0.403325    -0.312172    -0.302627

        11.1         12.1         13.1         14.1         15.1         16.1         17.1         18.1         19.1         20.1
     -0.275933    -0.184006    -0.153502    -0.137652    -0.134478    -0.107662    -0.087640    -0.068477    -0.046103    -0.038926

        21.1         22.1         23.1         24.1         25.1         26.1         27.1
     -0.025861    -0.019484    -0.019246     0.043899     0.084095     0.180536     0.216759

 HOMO     25.1     0.084095 =       2.2883eV
 LUMO     26.1     0.180536 =       4.9126eV
 LUMO-HOMO         0.096441 =       2.6243eV

 EXPECTATION VALUE OF S**2:            -0.00000000

 Natural orbitals saved to record    2200.2 (Orbital set 3)

 Orbital spaces for UNO-CAS (Min. occupation: 0.020  Max. occupation: 1.980):

 Closed:       25
 Active:        0


 **********************************************************************************************************************************
 DATASETS  * FILE   NREC   LENGTH (MB)   RECORD NAMES
              1      20      196.57       500      610      700      900      950      970     1000      129      960     1100   
                                          VAR    BASINP    GEOM    SYMINP    ZMAT    AOBASIS   BASIS     P2S    ABASIS      S 
                                         1400     1410     1200     1210     1080     1600     1650     1300     1700     1800   
                                           T        V       H0       H01     AOSYM     SMH    MOLCAS    ERIS     OPER     GRID   

              2       5        3.91       700     1000      520     1800     2200   
                                         GEOM     BASIS   MCVARS    GRID      UKS  

 PROGRAMS   *        TOTAL       UKS       INT
 CPU TIMES  *       104.06     96.25      7.67
 REAL TIME  *       162.10 SEC
 DISK USED  *       771.70 MB      
 **********************************************************************************************************************************


 PROGRAM * Intrinsic Basis Bonding Analysis (IBBA)          Author: G. Knizia

 Molecular orbitals read from record     2200.2  Type=UKS/ALPHA (state 1.1)
 Fock matrix read from record            2200.2  Type=UKS/TOTAL (state 1.1)
 Orbital energies read from record       2200.2  Type=UKS/ALPHA (state 1.1)
 Density matrix read from record         2200.2  Type=UKS/CHARGE (state 1.1)

 Number of core orbitals:           6 (   6 )
 Number of closed-shell orbitals:  19 (  19 )

 Basis set MINAO-AUTO-PP generated.      Number of basis functions:   42 

 Polarized AO type:                A = (O Ot + (1-O)(1-Ot)) P12
 Orthogonalization method:         Symmetric (Loewdin)
 Localization functional:          L = sum[A,i] <i|n_A|i>^4 -> max

 Localization group 1:  25 orbitals, occupancy  2.000
 Iterative localization: IB/PM,    8 iter; Final gradient 0.92E-09

 Bond order analysis:       [THRPRINT= 0.020]

   CEN ATOM   CEN ATOM     WIBERG.BO      RENORM.BO
     1   C  -   2   C       0.985912       0.994892
     1   C  -   5   H       0.953882       0.961436
     1   C  -   6   H       0.946847       0.947920
     1   C  -   7   H       0.946847       0.947920
     1   C  -   3   O       0.039176       0.022677

     2   C  -   1   C       0.985912       0.994892
     2   C  -  12   C       0.977583       0.967693
     2   C  -  11   C       0.977583       0.967693
     2   C  -   3   O       0.960704       0.927194

     3   O  -   4   C       1.089016       1.046277
     3   O  -   2   C       0.960704       0.927194
     3   O  -   9   H       0.062147       0.034395
     3   O  -  10   H       0.062147       0.034395
     3   O  -  12   C       0.041597       0.022469
     3   O  -  11   C       0.041597       0.022469
     3   O  -   1   C       0.039176       0.022677
     3   O  -   5   H       0.022983       0.016739
     3   O  -  16   H       0.022151       0.017690
     3   O  -  15   H       0.022151       0.017690

     4   C  -   3   O       1.089016       1.046277
     4   C  -   8   H       0.957332       0.963075
     4   C  -  10   H       0.917295       0.870174
     4   C  -   9   H       0.917295       0.870174

     5   H  -   1   C       0.953882       0.961436
     5   H  -   3   O       0.022983       0.016739

     6   H  -   1   C       0.946847       0.947920
     6   H  -  12   C       0.023808       0.024319

     7   H  -   1   C       0.946847       0.947920
     7   H  -  11   C       0.023808       0.024319

     8   H  -   4   C       0.957332       0.963075

     9   H  -   4   C       0.917295       0.870174
     9   H  -   3   O       0.062147       0.034395

    10   H  -   4   C       0.917295       0.870174
    10   H  -   3   O       0.062147       0.034395

    11   C  -   2   C       0.977583       0.967693
    11   C  -  15   H       0.951567       0.969014
    11   C  -  13   H       0.947650       0.950693
    11   C  -  17   H       0.946142       0.953748
    11   C  -   3   O       0.041597       0.022469
    11   C  -   7   H       0.023808       0.024319
    11   C  -  14   H       0.022643       0.023128

    12   C  -   2   C       0.977583       0.967693
    12   C  -  16   H       0.951567       0.969014
    12   C  -  14   H       0.947650       0.950693
    12   C  -  18   H       0.946142       0.953748
    12   C  -   3   O       0.041597       0.022469
    12   C  -   6   H       0.023808       0.024319
    12   C  -  13   H       0.022643       0.023128

    13   H  -  11   C       0.947650       0.950693
    13   H  -  12   C       0.022643       0.023128

    14   H  -  12   C       0.947650       0.950693
    14   H  -  11   C       0.022643       0.023128

    15   H  -  11   C       0.951567       0.969014
    15   H  -   3   O       0.022151       0.017690

    16   H  -  12   C       0.951567       0.969014
    16   H  -   3   O       0.022151       0.017690

    17   H  -  11   C       0.946142       0.953748

    18   H  -  12   C       0.946142       0.953748


 Valency analysis:

   CEN ATOM   TOT.VALENCE
     1   C       3.966036
     2   C       3.949677
     3   O       2.411357
     4   C       3.930418
     5   H       0.998180
     6   H       0.998234
     7   H       0.998234
     8   H       0.997531
     9   H       0.999929
    10   H       0.999929
    11   C       3.959235
    12   C       3.959235
    13   H       0.998200
    14   H       0.998200
    15   H       0.997119
    16   H       0.997119
    17   H       0.997740
    18   H       0.997740

 Total charge composition:

   CEN ATOM         s          p       ELECTRONS ->P.CHARGE
     1   C       2.91255    3.25442      6.16696   -0.16696
     2   C       2.84010    2.92509      5.76519    0.23481
     3   O       3.48509    4.63380      8.11889   -0.11889
     4   C       2.88818    3.15137      6.03955   -0.03955
     5   H       0.95734                 0.95734    0.04266
     6   H       0.95798                 0.95798    0.04202
     7   H       0.95798                 0.95798    0.04202
     8   H       0.95031                 0.95031    0.04969
     9   H       0.99158                 0.99158    0.00842
    10   H       0.99158                 0.99158    0.00842
    11   C       2.90247    3.29249      6.19496   -0.19496
    12   C       2.90247    3.29249      6.19496   -0.19496
    13   H       0.95758                 0.95758    0.04242
    14   H       0.95758                 0.95758    0.04242
    15   H       0.94632                 0.94632    0.05368
    16   H       0.94632                 0.94632    0.05368
    17   H       0.95246                 0.95246    0.04754
    18   H       0.95246                 0.95246    0.04754

 Total charge composition, AO contributions:

   CEN ATOM SHL      SPHERICAL COMPONENTS
     1   C  1s       1.99777
     1   C  2s       0.91477
     1   C  2p       1.10621    1.11347    1.03474

     2   C  1s       1.99834
     2   C  2s       0.84176
     2   C  2p       0.86602    1.02806    1.03101

     3   O  1s       1.99902
     3   O  2s       1.48606
     3   O  2p       1.39149    1.82431    1.41801

     4   C  1s       1.99797
     4   C  2s       0.89020
     4   C  2p       1.11412    1.13332    0.90393

     5   H  1s       0.95734

     6   H  1s       0.95798

     7   H  1s       0.95798

     8   H  1s       0.95031

     9   H  1s       0.99158

    10   H  1s       0.99158

    11   C  1s       1.99780
    11   C  2s       0.90467
    11   C  2p       1.10583    1.07571    1.11096

    12   C  1s       1.99780
    12   C  2s       0.90467
    12   C  2p       1.10583    1.07571    1.11096

    13   H  1s       0.95758

    14   H  1s       0.95758

    15   H  1s       0.94632

    16   H  1s       0.94632

    17   H  1s       0.95246

    18   H  1s       0.95246

 Summary of localized orbital composition:   [THRPRINT= 0.020]

   ORB  GRP  ORB.ENERGY      CENTERS/CHARGES
     1   1   -16.511484      O  3   2.000
     2   1    -8.160044      C  2   2.000
     3   1    -8.156808      C  4   2.000
     4   1    -8.119411      C 11   2.000
     5   1    -8.119411      C 12   2.000
     6   1    -8.113402      C  1   2.000
     7   1    -0.394608      O  3   1.170   C  4   0.820
     8   1    -0.367202      O  3   1.198   C  2   0.766   (other: 0.036)
     9   1    -0.220534      C 11   1.021   C  2   0.946   (other: 0.033)
    10   1    -0.220534      C 12   1.021   C  2   0.946   (other: 0.033)
    11   1    -0.218093      C  1   1.001   C  2   0.962   (other: 0.037)
    12   1    -0.153498      C  4   1.042   H  9   0.951
    13   1    -0.153498      C  4   1.042   H 10   0.951
    14   1    -0.152874      C  4   1.049   H  8   0.937
    15   1    -0.146596      C 12   1.044   H 16   0.932   (other: 0.025)
    16   1    -0.146596      C 11   1.044   H 15   0.932   (other: 0.025)
    17   1    -0.145370      C 11   1.044   H 17   0.934   (other: 0.022)
    18   1    -0.145370      C 12   1.044   H 18   0.934   (other: 0.022)
    19   1    -0.144509      C 11   1.040   H 13   0.940
    20   1    -0.144509      C 12   1.040   H 14   0.940
    21   1    -0.141683      C  1   1.037   H  5   0.942   (other: 0.020)
    22   1    -0.139518      C  1   1.041   H  7   0.939
    23   1    -0.139518      C  1   1.041   H  6   0.939
    24   1    -0.099364      O  3   1.914   (other: 0.086)
    25   1     0.030294      O  3   1.824   C  4   0.045   C  2   0.031   H  9   0.026   H 10   0.026   (other: 0.048)

 Localized orbitals saved to record      2200.2  (orbital set 4)


 **********************************************************************************************************************************
 DATASETS  * FILE   NREC   LENGTH (MB)   RECORD NAMES
              1      20      196.57       500      610      700      900      950      970     1000      129      960     1100   
                                          VAR    BASINP    GEOM    SYMINP    ZMAT    AOBASIS   BASIS     P2S    ABASIS      S 
                                         1400     1410     1200     1210     1080     1600     1650     1300     1700     1800   
                                           T        V       H0       H01     AOSYM     SMH    MOLCAS    ERIS     OPER     GRID   

              2       5        4.08       700     1000      520     1800     2200   
                                         GEOM     BASIS   MCVARS    GRID      UKS  

 PROGRAMS   *        TOTAL      IBBA       UKS       INT
 CPU TIMES  *       104.12      0.06     96.25      7.67
 REAL TIME  *       162.33 SEC
 DISK USED  *       771.70 MB      
 **********************************************************************************************************************************
 Molecular orbitals read from record     2200.2  Type=UKS/LOCAL(IBO)  
 Occupation numbers read from record     2200.2  Type=UKS/LOCAL(IBO)  
 Orbital energies read from record       2200.2  Type=UKS/LOCAL(IBO)  
 Redundancy group numbers read from rec  2200.2  Type=UKS/BETA (state 1.1)

 IBBA/SVP energy=      0.000000000000

        UKS-SCF 
   -235.21836654
 **********************************************************************************************************************************
 Molpro calculation terminated
