
 Primary working directories    : /local
 Secondary working directories  : /local
 Wavefunction directory         : /local/
 Main file repository           : /local/

 SHA1      : b4a5b34a9e711420743f49e6833241d17c61fb3c
 NAME      : 2099.9.b4a5b34
 ARCHNAME  : linux/x86_64_openmp
 FC        : /cm/shared/languages/GCC-6.1/bin/gfortran
 BLASLIB   : -lblas
 id        : simonbennie

 Nodes     nprocs
 node32-015    1

 Using customized tuning parameters: mindgm=1; mindgv=20; mindgc=4; mindgr=1; noblas=0; minvec=7
 default implementation of scratch files=df  

 memory,500,m
 geomtyp=xyz
 nosym
 noorient
 geometry={
 C         -1.53233        0.02247        0.00000
 C         -0.00192        0.01421        0.00000
 O          0.37239        1.40356        0.00000
 H          1.34248        1.44036        0.00000
 H         -1.92991       -0.99819        0.00000
 H         -1.90797        0.54382       -0.88653
 H         -1.90797        0.54382        0.88653
 C          0.54303       -0.66466       -1.26580
 C          0.54303       -0.66466        1.26580
 H          0.17836       -0.14752       -2.15943
 H          0.17836       -0.14752        2.15943
 H          0.23752       -1.71600       -1.32280
 H          0.23752       -1.71600        1.32280
 H          1.64084       -0.63767       -1.28032
 H          1.64084       -0.63767        1.28032
 }
 basis={ default,qzvp }
 {uks,M06-L,direct;wf,42,1,0}
 {ibba,bonds=1}

 Variables initialized (895), CPU time= 0.01 sec
 Commands  initialized (725), CPU time= 0.01 sec, 591 directives.
 Default parameters read. Elapsed time= 3.18 sec

 Checking input...
 Passed
1


                                         ***  PROGRAM SYSTEM MOLPRO  ***
                                       Copyright, TTI GmbH Stuttgart, 2015
                                    Version 2099.9 linked May 26 2017 16:03:21


 **********************************************************************************************************************************
 LABEL *                                                                                 
  64 bit serial version                                                                  DATE: 16-Jun-17          TIME: 08:58:25  
 **********************************************************************************************************************************

 SHA1:             b4a5b34a9e711420743f49e6833241d17c61fb3c
 **********************************************************************************************************************************
 SETTING GEOMTYP        =    XYZ

 Variable memory set to  500000000 words,  buffer space 

 ZSYMEL=NOSYM

 SETTING BASIS          =    QZVP


 Recomputing integrals since basis changed


 Using spherical harmonics

 Library entry C      S def2-QZVP            selected for orbital group  1
 Library entry C      P def2-QZVP            selected for orbital group  1
 Library entry C      D def2-QZVP            selected for orbital group  1
 Library entry C      F def2-QZVP            selected for orbital group  1
 Library entry C      G def2-QZVP            selected for orbital group  1
 Library entry O      S def2-QZVP            selected for orbital group  2
 Library entry O      P def2-QZVP            selected for orbital group  2
 Library entry O      D def2-QZVP            selected for orbital group  2
 Library entry O      F def2-QZVP            selected for orbital group  2
 Library entry O      G def2-QZVP            selected for orbital group  2
 Library entry H      S def2-QZVP            selected for orbital group  3
 Library entry H      P def2-QZVP            selected for orbital group  3
 Library entry H      D def2-QZVP            selected for orbital group  3
 Library entry H      F def2-QZVP            selected for orbital group  3


 PROGRAM * SEWARD (Integral evaluation for generally contracted gaussian basis sets)     Author: Roland Lindh, 1990

 Geometry written to block  1 of record 700


 Point group  C1  



 ATOMIC COORDINATES

 NR  ATOM    CHARGE       X              Y              Z

   1  C       6.00   -2.895684032    0.042462146    0.000000000
   2  C       6.00   -0.003628274    0.026853008    0.000000000
   3  O       8.00    0.703715112    2.652343999    0.000000000
   4  H       1.00    2.536919528    2.721885921    0.000000000
   5  H       1.00   -3.647001345   -1.886305720    0.000000000
   6  H       1.00   -3.605540754    1.027670861   -1.675298901
   7  H       1.00   -3.605540754    1.027670861    1.675298901
   8  C       6.00    1.026177977   -1.256025366   -2.392015328
   9  C       6.00    1.026177977   -1.256025366    2.392015328
  10  H       1.00    0.337051552   -0.278772398   -4.080731285
  11  H       1.00    0.337051552   -0.278772398    4.080731285
  12  H       1.00    0.448847749   -3.242770030   -2.499729718
  13  H       1.00    0.448847749   -3.242770030    2.499729718
  14  H       1.00    3.100738214   -1.205021658   -2.419454152
  15  H       1.00    3.100738214   -1.205021658    2.419454152

 Bond lengths in Bohr (Angstrom)

 1-2  2.892097881  1-5  2.069933136  1-6  2.069096224  1-7  2.069096224  2-3  2.719106031
     ( 1.530432290)     ( 1.095361444)     ( 1.094918569)     ( 1.094918569)     ( 1.438888946)

  2- 8  2.903104402   2- 9  2.903104402   3- 4  1.834522965   8-10  2.069222119   8-12  2.071730422
       ( 1.536256691)       ( 1.536256691)       ( 0.970787746)       ( 1.094985190)       ( 1.096312526)

  8-14  2.075368508   9-11  2.069222119   9-13  2.071730422   9-15  2.075368508
       ( 1.098237719)       ( 1.094985190)       ( 1.096312526)       ( 1.098237719)

 Bond angles

  1-2-3  104.76902697   1-2-8  110.92255387   1-2-9  110.92255387   2-1-5  110.97328220

  2- 1- 6  110.22090701   2- 1- 7  110.22090701   2- 3- 4  107.25071562   2- 8-10  110.21836376

  2- 8-12  111.57747468   2- 8-14  110.77023896   2- 9-11  110.21836376   2- 9-13  111.57747468

  2- 9-15  110.77023896   3- 2- 8  109.53648747   3- 2- 9  109.53648747   5- 1- 6  108.61190457

  5- 1- 7  108.61190457   6- 1- 7  108.12870271   8- 2- 9  110.96453384  10- 8-12  108.52192632

 10- 8-14  108.08997829  11- 9-13  108.52192632  11- 9-15  108.08997829  12- 8-14  107.54424578

 13- 9-15  107.54424578

 NUCLEAR CHARGE:                   42
 NUMBER OF PRIMITIVE AOS:         840
 NUMBER OF SYMMETRY AOS:          715
 NUMBER OF CONTRACTIONS:          585   ( 585A   )
 NUMBER OF CORE ORBITALS:           5   (   5A   )
 NUMBER OF VALENCE ORBITALS:       30   (  30A   )


 NUCLEAR REPULSION ENERGY  198.77359127


 Eigenvalues of metric

         1 0.447E-04 0.459E-04 0.470E-04 0.743E-04 0.823E-04 0.917E-04 0.943E-04 0.107E-03


 Contracted 2-electron integrals neglected if value below      1.0D-12
 AO integral compression algorithm  1   Integral accuracy      1.0D-12

     40752.906 MB (compressed) written to integral file ( 33.4%)


 NUMBER OF SORTED TWO-ELECTRON INTEGRALS:14689922715.     BUFFER LENGTH:  32768
 NUMBER OF SEGMENTS: 184  SEGMENT LENGTH:   79999773      RECORD LENGTH: 262144

 Memory used in sort:      80.29 MW

 SORT1 READ 15248138275. AND WROTE 10587813328. INTEGRALS IN  60679 RECORDS. CPU TIME:   176.62 SEC, REAL TIME:  1815.36 SEC
 SORT2 READ 10587813328. AND WROTE 14689922715. INTEGRALS IN 155460 RECORDS. CPU TIME:   297.85 SEC, REAL TIME:  2238.74 SEC

 FILE SIZES:   FILE 1: 40795.6 MBYTE,  FILE 4:127253.1 MBYTE,   TOTAL: 168048.8 MBYTE

 OPERATOR DM      FOR CENTER  0  COORDINATES:    0.000000    0.000000    0.000000


 **********************************************************************************************************************************
 DATASETS  * FILE   NREC   LENGTH (MB)   RECORD NAMES
              1      19    37754.71       500      610      700      900      950      970     1000      129      960     1100   
                                          VAR    BASINP    GEOM    SYMINP    ZMAT    AOBASIS   BASIS     P2S    ABASIS      S 
                                         1400     1410     1200     1210     1080     1600     1650     1300     1700   
                                           T        V       H0       H01     AOSYM     SMH    MOLCAS    ERIS     OPER   

 PROGRAMS   *        TOTAL       INT
 CPU TIMES  *      1111.06   1110.92
 REAL TIME  *      4834.46 SEC
 DISK USED  *       168.05 GB      
 **********************************************************************************************************************************

 Density functional group M06-L=XC-M06-L
 Functional: XC-M06-L(via MFM 1.6)                                             Gradient terms: 1
 Use grid at  1800.2

 Functional: XC-M06-L                  Factor:  1.0000

 Generated new metagrid on record  1800.2 with target accuracy 1.0D-06 and 58228 points in CPU time    1.6
 Computed new grid on record 1800.1 in CPU time    1.8
  469144 words reserved for DFT integration

 PROGRAM * UKS-SCF (Unrestricted Kohn-Sham)     Authors: W. Meyer, H.-J. Werner, P.J. Knowles, 1993

 NUMBER OF ELECTRONS:      21+   21-    SPACE SYMMETRY=1    SPIN SYMMETRY: Singlet 
 CONVERGENCE THRESHOLDS:    1.00E-05 (Density)    1.00E-06 (Energy)
 MAX. NUMBER OF ITERATIONS:       60
 INTERPOLATION TYPE:            DIIS
 INTERPOLATION STEPS:              2 (START)      1 (STEP)
 LEVEL SHIFTS:                 -0.20 (ALPHA)  -0.20 (BETA) 



 Use fine grid record 1800.2 for energy threshold  1.0D-06
 Orbital guess generated from atomic densities. Full valence occupancy:   21

 Molecular orbital dump at record        2200.2

 Initial alpha occupation  21
 Initial beta  occupation  21

 ITERATION    DDIFF          GRAD             ENERGY        2-EL.EN.            DIPOLE MOMENTS         DIIS
    1      0.000D+00      0.000D+00      -233.50126723    638.365456    0.66907   -0.78802    0.00000    0
    2      0.486D-02      0.123D-02      -233.69680172    616.242029    0.19904   -0.42391    0.00000    1
    3      0.119D-02      0.746D-03      -233.74770179    622.349092    0.34262   -0.54352    0.00000    2
    4      0.549D-03      0.101D-03      -233.74895955    622.348281    0.33668   -0.50157    0.00000    3
    5      0.381D-03      0.415D-04      -233.74933248    622.252027    0.33638   -0.51119    0.00000    4
    6      0.143D-03      0.173D-04      -233.74940588    622.147345    0.33253   -0.50119    0.00000    5
    7      0.597D-04      0.822D-05      -233.74941582    622.158607    0.33274   -0.50388    0.00000    6
    8      0.197D-04      0.167D-05      -233.74941645    622.164581    0.33223   -0.50437    0.00000    7
    9      0.393D-05      0.700D-06      -233.74941653    622.158732    0.33208   -0.50424    0.00000    7
   10      0.171D-05      0.213D-06      -233.74941654    622.159767    0.33204   -0.50434    0.00000    7

 Final alpha occupancy:  21
 Final beta  occupancy:  21

 !UKS STATE 1.1 Energy               -233.749416539412
 Nuclear energy                       198.77359127
 One-electron energy                 -709.52268288
 Two-electron energy                  311.07988333
 Density functional                   -34.08020826     XC-M06-L=-34.08020826
 Virial quotient                       -1.00528170
 !UKS STATE 1.1 Dipole moment           0.33204023    -0.50433994     0.00000000
 Dipole moment /Debye                   0.84390681    -1.28182031     0.00000000

 Orbital energies for positive spin:

         1.1          2.1          3.1          4.1          5.1          6.1          7.1          8.1          9.1         10.1
    -18.959026   -10.110609   -10.041900   -10.041900   -10.036943    -0.986009    -0.751287    -0.656076    -0.654964    -0.531074

        11.1         12.1         13.1         14.1         15.1         16.1         17.1         18.1         19.1         20.1
     -0.452785    -0.414833    -0.411925    -0.377318    -0.363659    -0.347970    -0.335284    -0.321722    -0.315871    -0.287499

        21.1         22.1         23.1
     -0.234024     0.016439     0.050032

 Orbital energies for negative spin:

         1.1          2.1          3.1          4.1          5.1          6.1          7.1          8.1          9.1         10.1
    -18.959023   -10.110610   -10.041900   -10.041899   -10.036942    -0.986005    -0.751286    -0.656075    -0.654963    -0.531073

        11.1         12.1         13.1         14.1         15.1         16.1         17.1         18.1         19.1         20.1
     -0.452784    -0.414833    -0.411925    -0.377317    -0.363659    -0.347969    -0.335284    -0.321720    -0.315871    -0.287498

        21.1         22.1         23.1
     -0.234021     0.016440     0.050033

 HOMO    -21.1    -0.234021 =      -6.3680eV
 LUMO     22.1     0.016439 =       0.4473eV
 LUMO-HOMO         0.250460 =       6.8154eV

 EXPECTATION VALUE OF S**2:             0.00000000

 Occupation number threshold for canonical orbitals:  1.999000 (occupied),  0.001000 (virtual)

 Number of pseudo-canonical orbitals per symmetry:   21
 Number of active natural orbitals per symmetry:      0

 Natural orbitals saved to record    2200.2 (Orbital set 3)

 Orbital spaces for UNO-CAS (Min. occupation: 0.020  Max. occupation: 1.980):

 Closed:       21
 Active:        0


 **********************************************************************************************************************************
 DATASETS  * FILE   NREC   LENGTH (MB)   RECORD NAMES
              1      20    37756.57       500      610      700      900      950      970     1000      129      960     1100   
                                          VAR    BASINP    GEOM    SYMINP    ZMAT    AOBASIS   BASIS     P2S    ABASIS      S 
                                         1400     1410     1200     1210     1080     1600     1650     1300     1700     1800   
                                           T        V       H0       H01     AOSYM     SMH    MOLCAS    ERIS     OPER     GRID   

              2       5       16.83       700     1000      520     1800     2200   
                                         GEOM     BASIS   MCVARS    GRID      UKS  

 PROGRAMS   *        TOTAL       UKS       INT
 CPU TIMES  *      2819.06   1708.00   1110.92
 REAL TIME  *      6763.72 SEC
 DISK USED  *       168.05 GB      
 **********************************************************************************************************************************


 PROGRAM * Intrinsic Basis Bonding Analysis (IBBA)          Author: G. Knizia

 Molecular orbitals read from record     2200.2  Type=UKS/ALPHA (state 1.1)
 Fock matrix read from record            2200.2  Type=UKS/TOTAL (state 1.1)
 Orbital energies read from record       2200.2  Type=UKS/ALPHA (state 1.1)
 Density matrix read from record         2200.2  Type=UKS/CHARGE (state 1.1)

 Number of core orbitals:           5 (   5 )
 Number of closed-shell orbitals:  16 (  16 )

 Basis set MINAO-AUTO-PP generated.      Number of basis functions:   35 

 Polarized AO type:                A = (O Ot + (1-O)(1-Ot)) P12
 Orthogonalization method:         Symmetric (Loewdin)
 Localization functional:          L = sum[A,i] <i|n_A|i>^4 -> max

 Localization group 1:  21 orbitals, occupancy  2.000
 Iterative localization: IB/PM,    7 iter; Final gradient 0.17E-08

 Bond order analysis:       [THRPRINT= 0.020]

   CEN ATOM   CEN ATOM     WIBERG.BO      RENORM.BO
     1   C  -   2   C       0.997066       0.993760
     1   C  -   5   H       0.964381       0.987542
     1   C  -   6   H       0.959884       0.981777
     1   C  -   7   H       0.959884       0.981777

     2   C  -   1   C       0.997066       0.993760
     2   C  -   9   C       0.995131       0.975434
     2   C  -   8   C       0.995131       0.975434
     2   C  -   3   O       0.928771       0.949273

     3   O  -   2   C       0.928771       0.949273
     3   O  -   4   H       0.859190       0.977649
     3   O  -   9   C       0.028229       0.014329
     3   O  -   8   C       0.028229       0.014329

     4   H  -   3   O       0.859190       0.977649

     5   H  -   1   C       0.964381       0.987542

     6   H  -   1   C       0.959884       0.981777

     7   H  -   1   C       0.959884       0.981777

     8   C  -   2   C       0.995131       0.975434
     8   C  -  14   H       0.963929       0.982456
     8   C  -  10   H       0.960261       0.981559
     8   C  -  12   H       0.959613       0.980596
     8   C  -   3   O       0.028229       0.014329

     9   C  -   2   C       0.995131       0.975434
     9   C  -  15   H       0.963929       0.982456
     9   C  -  11   H       0.960261       0.981559
     9   C  -  13   H       0.959613       0.980596
     9   C  -   3   O       0.028229       0.014329

    10   H  -   8   C       0.960261       0.981559

    11   H  -   9   C       0.960261       0.981559

    12   H  -   8   C       0.959613       0.980596

    13   H  -   9   C       0.959613       0.980596

    14   H  -   8   C       0.963929       0.982456

    15   H  -   9   C       0.963929       0.982456


 Valency analysis:

   CEN ATOM   TOT.VALENCE
     1   C       3.940367
     2   C       3.925518
     3   O       1.912005
     4   H       0.878380
     5   H       0.982183
     6   H       0.979785
     7   H       0.979785
     8   C       3.942464
     9   C       3.942464
    10   H       0.979817
    11   H       0.979817
    12   H       0.981590
    13   H       0.981590
    14   H       0.983704
    15   H       0.983704

 Total charge composition:

   CEN ATOM         s          p       ELECTRONS ->P.CHARGE
     1   C       3.05736    3.35752      6.41488   -0.41488
     2   C       2.94868    2.77351      5.72219    0.27781
     3   O       3.66934    4.91559      8.58493   -0.58493
     4   H       0.65126                 0.65126    0.34874
     5   H       0.86652                 0.86652    0.13348
     6   H       0.85782                 0.85782    0.14218
     7   H       0.85782                 0.85782    0.14218
     8   C       3.06366    3.36403      6.42769   -0.42769
     9   C       3.06366    3.36403      6.42769   -0.42769
    10   H       0.85793                 0.85793    0.14207
    11   H       0.85793                 0.85793    0.14207
    12   H       0.86432                 0.86432    0.13568
    13   H       0.86432                 0.86432    0.13568
    14   H       0.87235                 0.87235    0.12765
    15   H       0.87235                 0.87235    0.12765

 Total charge composition, AO contributions:

   CEN ATOM SHL      SPHERICAL COMPONENTS
     1   C  1s       1.99088
     1   C  2s       1.06648
     1   C  2p       1.03904    1.15378    1.16470

     2   C  1s       1.99256
     2   C  2s       0.95612
     2   C  2p       0.99722    0.77515    1.00114

     3   O  1s       1.99708
     3   O  2s       1.67227
     3   O  2p       1.47053    1.49044    1.95461

     4   H  1s       0.65126

     5   H  1s       0.86652

     6   H  1s       0.85782

     7   H  1s       0.85782

     8   C  1s       1.99099
     8   C  2s       1.07267
     8   C  2p       1.13694    1.13637    1.09071

     9   C  1s       1.99099
     9   C  2s       1.07267
     9   C  2p       1.13694    1.13637    1.09071

    10   H  1s       0.85793

    11   H  1s       0.85793

    12   H  1s       0.86432

    13   H  1s       0.86432

    14   H  1s       0.87235

    15   H  1s       0.87235

 Summary of localized orbital composition:   [THRPRINT= 0.020]

   ORB  GRP  ORB.ENERGY      CENTERS/CHARGES
     1   1   -18.790814      O  3   2.000
     2   1   -10.018683      C  2   2.000
     3   1    -9.925951      C  9   2.000
     4   1    -9.925951      C  8   2.000
     5   1    -9.920173      C  1   2.000
     6   1    -0.720225      O  3   1.350   H  4   0.640
     7   1    -0.674564      O  3   1.295   C  2   0.686
     8   1    -0.562759      O  3   1.982
     9   1    -0.539501      C  1   0.996   C  2   0.981   (other: 0.023)
    10   1    -0.539488      C  8   1.011   C  2   0.974
    11   1    -0.539488      C  9   1.011   C  2   0.974
    12   1    -0.472798      C  8   1.131   H 12   0.855
    13   1    -0.472798      C  9   1.131   H 13   0.855
    14   1    -0.470759      C  9   1.123   H 15   0.865
    15   1    -0.470759      C  8   1.123   H 14   0.865
    16   1    -0.469072      C  1   1.127   H  5   0.860
    17   1    -0.466558      C  8   1.139   H 10   0.850
    18   1    -0.466558      C  9   1.139   H 11   0.850
    19   1    -0.461924      C  1   1.139   H  6   0.850
    20   1    -0.461924      C  1   1.139   H  7   0.850
    21   1    -0.262003      O  3   1.955   (other: 0.045)

 Localized orbitals saved to record      2200.2  (orbital set 4)


 **********************************************************************************************************************************
 DATASETS  * FILE   NREC   LENGTH (MB)   RECORD NAMES
              1      20    37756.57       500      610      700      900      950      970     1000      129      960     1100   
                                          VAR    BASINP    GEOM    SYMINP    ZMAT    AOBASIS   BASIS     P2S    ABASIS      S 
                                         1400     1410     1200     1210     1080     1600     1650     1300     1700     1800   
                                           T        V       H0       H01     AOSYM     SMH    MOLCAS    ERIS     OPER     GRID   

              2       5       19.57       700     1000      520     1800     2200   
                                         GEOM     BASIS   MCVARS    GRID      UKS  

 PROGRAMS   *        TOTAL      IBBA       UKS       INT
 CPU TIMES  *      2819.50      0.44   1708.00   1110.92
 REAL TIME  *      6764.62 SEC
 DISK USED  *       168.05 GB      
 **********************************************************************************************************************************
 Molecular orbitals read from record     2200.2  Type=UKS/LOCAL(IBO)  
 Occupation numbers read from record     2200.2  Type=UKS/LOCAL(IBO)  
 Orbital energies read from record       2200.2  Type=UKS/LOCAL(IBO)  
 Redundancy group numbers read from rec  2200.2  Type=UKS/BETA (state 1.1)

 IBBA/QZVP energy=      0.000000000000

        UKS-SCF 
   -233.74941654
 **********************************************************************************************************************************
 Molpro calculation terminated
