
 Primary working directories    : /local
 Secondary working directories  : /local
 Wavefunction directory         : /local/
 Main file repository           : /local/

 SHA1      : b4a5b34a9e711420743f49e6833241d17c61fb3c
 NAME      : 2099.9.b4a5b34
 ARCHNAME  : linux/x86_64_openmp
 FC        : /cm/shared/languages/GCC-6.1/bin/gfortran
 BLASLIB   : -lblas
 id        : simonbennie

 Nodes     nprocs
 node45-011    1

 Using customized tuning parameters: mindgm=1; mindgv=20; mindgc=4; mindgr=1; noblas=0; minvec=7
 default implementation of scratch files=df  

 memory,500,m
 geomtyp=xyz
 nosym
 noorient
 geometry={
 C         -1.53233        0.02247        0.00000
 C         -0.00192        0.01421        0.00000
 O          0.37239        1.40356        0.00000
 H          1.34248        1.44036        0.00000
 H         -1.92991       -0.99819        0.00000
 H         -1.90797        0.54382       -0.88653
 H         -1.90797        0.54382        0.88653
 C          0.54303       -0.66466       -1.26580
 C          0.54303       -0.66466        1.26580
 H          0.17836       -0.14752       -2.15943
 H          0.17836       -0.14752        2.15943
 H          0.23752       -1.71600       -1.32280
 H          0.23752       -1.71600        1.32280
 H          1.64084       -0.63767       -1.28032
 H          1.64084       -0.63767        1.28032
 }
 basis={ default,avtz }
 {uks,MM06,direct;wf,42,1,0}
 {ibba,bonds=1}

 Variables initialized (895), CPU time= 0.01 sec
 Commands  initialized (725), CPU time= 0.01 sec, 591 directives.
 Default parameters read. Elapsed time= 0.15 sec

 Checking input...
 Passed
1


                                         ***  PROGRAM SYSTEM MOLPRO  ***
                                       Copyright, TTI GmbH Stuttgart, 2015
                                    Version 2099.9 linked May 26 2017 16:03:21


 **********************************************************************************************************************************
 LABEL *                                                                                 
  64 bit serial version                                                                  DATE: 12-Jun-17          TIME: 15:19:58  
 **********************************************************************************************************************************

 SHA1:             b4a5b34a9e711420743f49e6833241d17c61fb3c
 **********************************************************************************************************************************
 SETTING GEOMTYP        =    XYZ

 Variable memory set to  500000000 words,  buffer space 

 ZSYMEL=NOSYM

 SETTING BASIS          =    AVTZ


 Recomputing integrals since basis changed


 Using spherical harmonics

 Library entry C      S aug-cc-pVTZ          selected for orbital group  1
 Library entry C      P aug-cc-pVTZ          selected for orbital group  1
 Library entry C      D aug-cc-pVTZ          selected for orbital group  1
 Library entry C      F aug-cc-pVTZ          selected for orbital group  1
 Library entry O      S aug-cc-pVTZ          selected for orbital group  2
 Library entry O      P aug-cc-pVTZ          selected for orbital group  2
 Library entry O      D aug-cc-pVTZ          selected for orbital group  2
 Library entry O      F aug-cc-pVTZ          selected for orbital group  2
 Library entry H      S aug-cc-pVTZ          selected for orbital group  3
 Library entry H      P aug-cc-pVTZ          selected for orbital group  3
 Library entry H      D aug-cc-pVTZ          selected for orbital group  3


 PROGRAM * SEWARD (Integral evaluation for generally contracted gaussian basis sets)     Author: Roland Lindh, 1990

 Geometry written to block  1 of record 700


 Point group  C1  



 ATOMIC COORDINATES

 NR  ATOM    CHARGE       X              Y              Z

   1  C       6.00   -2.895684032    0.042462146    0.000000000
   2  C       6.00   -0.003628274    0.026853008    0.000000000
   3  O       8.00    0.703715112    2.652343999    0.000000000
   4  H       1.00    2.536919528    2.721885921    0.000000000
   5  H       1.00   -3.647001345   -1.886305720    0.000000000
   6  H       1.00   -3.605540754    1.027670861   -1.675298901
   7  H       1.00   -3.605540754    1.027670861    1.675298901
   8  C       6.00    1.026177977   -1.256025366   -2.392015328
   9  C       6.00    1.026177977   -1.256025366    2.392015328
  10  H       1.00    0.337051552   -0.278772398   -4.080731285
  11  H       1.00    0.337051552   -0.278772398    4.080731285
  12  H       1.00    0.448847749   -3.242770030   -2.499729718
  13  H       1.00    0.448847749   -3.242770030    2.499729718
  14  H       1.00    3.100738214   -1.205021658   -2.419454152
  15  H       1.00    3.100738214   -1.205021658    2.419454152

 Bond lengths in Bohr (Angstrom)

 1-2  2.892097881  1-5  2.069933136  1-6  2.069096224  1-7  2.069096224  2-3  2.719106031
     ( 1.530432290)     ( 1.095361444)     ( 1.094918569)     ( 1.094918569)     ( 1.438888946)

  2- 8  2.903104402   2- 9  2.903104402   3- 4  1.834522965   8-10  2.069222119   8-12  2.071730422
       ( 1.536256691)       ( 1.536256691)       ( 0.970787746)       ( 1.094985190)       ( 1.096312526)

  8-14  2.075368508   9-11  2.069222119   9-13  2.071730422   9-15  2.075368508
       ( 1.098237719)       ( 1.094985190)       ( 1.096312526)       ( 1.098237719)

 Bond angles

  1-2-3  104.76902697   1-2-8  110.92255387   1-2-9  110.92255387   2-1-5  110.97328220

  2- 1- 6  110.22090701   2- 1- 7  110.22090701   2- 3- 4  107.25071562   2- 8-10  110.21836376

  2- 8-12  111.57747468   2- 8-14  110.77023896   2- 9-11  110.21836376   2- 9-13  111.57747468

  2- 9-15  110.77023896   3- 2- 8  109.53648747   3- 2- 9  109.53648747   5- 1- 6  108.61190457

  5- 1- 7  108.61190457   6- 1- 7  108.12870271   8- 2- 9  110.96453384  10- 8-12  108.52192632

 10- 8-14  108.08997829  11- 9-13  108.52192632  11- 9-15  108.08997829  12- 8-14  107.54424578

 13- 9-15  107.54424578

 NUCLEAR CHARGE:                   42
 NUMBER OF PRIMITIVE AOS:         605
 NUMBER OF SYMMETRY AOS:          540
 NUMBER OF CONTRACTIONS:          460   ( 460A   )
 NUMBER OF CORE ORBITALS:           5   (   5A   )
 NUMBER OF VALENCE ORBITALS:       30   (  30A   )


 NUCLEAR REPULSION ENERGY  198.77359127


 Eigenvalues of metric

         1 0.351E-05 0.596E-05 0.770E-05 0.977E-05 0.161E-04 0.173E-04 0.207E-04 0.297E-04


 Contracted 2-electron integrals neglected if value below      1.0D-12
 AO integral compression algorithm  1   Integral accuracy      1.0D-12

     24892.932 MB (compressed) written to integral file ( 51.7%)


 NUMBER OF SORTED TWO-ELECTRON INTEGRALS: 5621233465.     BUFFER LENGTH:  32768
 NUMBER OF SEGMENTS: 176  SEGMENT LENGTH:   31999951      RECORD LENGTH: 131072

 Memory used in sort:      32.16 MW

 SORT1 READ  6020115514. AND WROTE  5366777799. INTEGRALS IN  61513 RECORDS. CPU TIME:    85.49 SEC, REAL TIME:  2292.38 SEC
 SORT2 READ  5366777799. AND WROTE  5621233465. INTEGRALS IN  94959 RECORDS. CPU TIME:   137.20 SEC, REAL TIME:  2445.96 SEC

 FILE SIZES:   FILE 1: 24930.9 MBYTE,  FILE 4: 64501.1 MBYTE,   TOTAL:  89432.0 MBYTE

 OPERATOR DM      FOR CENTER  0  COORDINATES:    0.000000    0.000000    0.000000


 **********************************************************************************************************************************
 DATASETS  * FILE   NREC   LENGTH (MB)   RECORD NAMES
              1      19    23757.53       500      610      700      900      950      970     1000      129      960     1100   
                                          VAR    BASINP    GEOM    SYMINP    ZMAT    AOBASIS   BASIS     P2S    ABASIS      S 
                                         1400     1410     1200     1210     1080     1600     1650     1300     1700   
                                           T        V       H0       H01     AOSYM     SMH    MOLCAS    ERIS     OPER   

 PROGRAMS   *        TOTAL       INT
 CPU TIMES  *       443.29    443.15
 REAL TIME  *      5260.16 SEC
 DISK USED  *        89.43 GB      
 **********************************************************************************************************************************

 Density functional group MM06=M06X+M06C
 Functional: M06X(Automatically generated (new) M06X)                          Gradient terms: 2
 Functional: M06C(Automatically generated (new) M06C)                          Gradient terms: 2
 Use grid at  1800.2


 Exact exchange will be calculated, factor:  0.2700

 Functional: M06X                      Factor:  0.7300
 Functional: M06C                      Factor:  1.0000

 Generated new metagrid on record  1800.2 with target accuracy 1.0D-06 and 55396 points in CPU time    1.7
 Computed new grid on record 1800.1 in CPU time    1.9
  720844 words reserved for DFT integration

 PROGRAM * UKS-SCF (Unrestricted Kohn-Sham)     Authors: W. Meyer, H.-J. Werner, P.J. Knowles, 1993

 NUMBER OF ELECTRONS:      21+   21-    SPACE SYMMETRY=1    SPIN SYMMETRY: Singlet 
 CONVERGENCE THRESHOLDS:    1.00E-05 (Density)    1.00E-06 (Energy)
 MAX. NUMBER OF ITERATIONS:       60
 INTERPOLATION TYPE:            DIIS
 INTERPOLATION STEPS:              2 (START)      1 (STEP)
 LEVEL SHIFTS:                 -0.20 (ALPHA)  -0.20 (BETA) 



 Use fine grid record 1800.2 for energy threshold  1.0D-06
 Orbital guess generated from atomic densities. Full valence occupancy:   35

 Molecular orbital dump at record        2200.2

 Initial alpha occupation  21
 Initial beta  occupation  21

 ITERATION    DDIFF          GRAD             ENERGY        2-EL.EN.            DIPOLE MOMENTS         DIIS
    1      0.000D+00      0.000D+00      -227.20904936    608.404820    0.66822   -0.64207    0.00000    0
    2      0.137D-01      0.100D-02      -227.31157872    595.819598    0.27688   -0.55840    0.00000    1
    3      0.366D-02      0.448D-03      -227.32748159    598.957951    0.34449   -0.53550    0.00000    2
    4      0.438D-02      0.657D-04      -227.32828836    598.602044    0.33060   -0.51547    0.00000    3
    5      0.178D-02      0.343D-04      -227.32850843    598.608323    0.32919   -0.52092    0.00000    4
    6      0.823D-03      0.161D-04      -227.32857091    598.523708    0.32493   -0.51402    0.00000    5
    7      0.315D-03      0.443D-05      -227.32857669    598.511421    0.32405   -0.51524   -0.00000    6
    8      0.640D-04      0.167D-05      -227.32857730    598.519311    0.32397   -0.51517   -0.00000    7
    9      0.324D-04      0.638D-06      -227.32857744    598.515066    0.32367   -0.51500   -0.00000    7
   10      0.731D-05      0.164D-06      -227.32857745    598.515919    0.32366   -0.51511   -0.00000    7
   11      0.372D-05      0.547D-07      -227.32857746    598.515583    0.32363   -0.51509    0.00000    8

 Final alpha occupancy:  21
 Final beta  occupancy:  21

 !UKS STATE 1.1 Energy               -227.328577456220
 Nuclear energy                       198.77359127
 One-electron energy                 -706.82629247
 Two-electron energy                  299.25779135
 Density functional                   -18.53366761     M06X=-23.04660055 M06C= -1.70964921
 Virial quotient                       -1.00174017
 !UKS STATE 1.1 Dipole moment           0.32363217    -0.51508504     0.00000000
 Dipole moment /Debye                   0.82253705    -1.30912984     0.00000000

 Orbital energies for positive spin:

         1.1          2.1          3.1          4.1          5.1          6.1          7.1          8.1          9.1         10.1
    -18.824090    -9.979210    -9.917671    -9.917661    -9.912502    -0.976521    -0.740925    -0.643628    -0.643038    -0.522544

        11.1         12.1         13.1         14.1         15.1         16.1         17.1         18.1         19.1         20.1
     -0.446868    -0.411197    -0.408547    -0.370284    -0.355293    -0.336715    -0.320837    -0.313357    -0.305657    -0.279365

        21.1         22.1         23.1
     -0.233749    -0.026690    -0.011497

 Orbital energies for negative spin:

         1.1          2.1          3.1          4.1          5.1          6.1          7.1          8.1          9.1         10.1
    -18.824090    -9.979210    -9.917671    -9.917661    -9.912502    -0.976521    -0.740925    -0.643628    -0.643038    -0.522544

        11.1         12.1         13.1         14.1         15.1         16.1         17.1         18.1         19.1         20.1
     -0.446868    -0.411197    -0.408547    -0.370284    -0.355293    -0.336715    -0.320837    -0.313357    -0.305657    -0.279365

        21.1         22.1         23.1
     -0.233749    -0.026690    -0.011497

 HOMO     21.1    -0.233749 =      -6.3606eV
 LUMO     22.1    -0.026690 =      -0.7263eV
 LUMO-HOMO         0.207059 =       5.6344eV

 EXPECTATION VALUE OF S**2:             0.00000000

 Natural orbitals saved to record    2200.2 (Orbital set 3)

 Orbital spaces for UNO-CAS (Min. occupation: 0.020  Max. occupation: 1.980):

 Closed:       21
 Active:        0


 **********************************************************************************************************************************
 DATASETS  * FILE   NREC   LENGTH (MB)   RECORD NAMES
              1      20    23759.30       500      610      700      900      950      970     1000      129      960     1100   
                                          VAR    BASINP    GEOM    SYMINP    ZMAT    AOBASIS   BASIS     P2S    ABASIS      S 
                                         1400     1410     1200     1210     1080     1600     1650     1300     1700     1800   
                                           T        V       H0       H01     AOSYM     SMH    MOLCAS    ERIS     OPER     GRID   

              2       5       11.56       700     1000      520     1800     2200   
                                         GEOM     BASIS   MCVARS    GRID      UKS  

 PROGRAMS   *        TOTAL       UKS       INT
 CPU TIMES  *      3382.56   2939.27    443.15
 REAL TIME  *      8717.88 SEC
 DISK USED  *        89.43 GB      
 **********************************************************************************************************************************


 PROGRAM * Intrinsic Basis Bonding Analysis (IBBA)          Author: G. Knizia

 Molecular orbitals read from record     2200.2  Type=UKS/ALPHA (state 1.1)
 Fock matrix read from record            2200.2  Type=UKS/TOTAL (state 1.1)
 Orbital energies read from record       2200.2  Type=UKS/ALPHA (state 1.1)
 Density matrix read from record         2200.2  Type=UKS/CHARGE (state 1.1)

 Number of core orbitals:           5 (   5 )
 Number of closed-shell orbitals:  16 (  16 )

 Basis set MINAO-AUTO-PP generated.      Number of basis functions:   35 

 Polarized AO type:                A = (O Ot + (1-O)(1-Ot)) P12
 Orthogonalization method:         Symmetric (Loewdin)
 Localization functional:          L = sum[A,i] <i|n_A|i>^4 -> max

 Localization group 1:  21 orbitals, occupancy  2.000
 Iterative localization: IB/PM,    7 iter; Final gradient 0.30E-08

 Bond order analysis:       [THRPRINT= 0.020]

   CEN ATOM   CEN ATOM     WIBERG.BO      RENORM.BO
     1   C  -   2   C       0.994631       0.994009
     1   C  -   5   H       0.965116       0.985574
     1   C  -   6   H       0.960581       0.979090
     1   C  -   7   H       0.960581       0.979090

     2   C  -   1   C       0.994631       0.994009
     2   C  -   9   C       0.994122       0.976047
     2   C  -   8   C       0.994122       0.976047
     2   C  -   3   O       0.935564       0.948942

     3   O  -   2   C       0.935564       0.948942
     3   O  -   4   H       0.872269       0.971804
     3   O  -   8   C       0.029772       0.015283
     3   O  -   9   C       0.029772       0.015283

     4   H  -   3   O       0.872269       0.971804

     5   H  -   1   C       0.965116       0.985574

     6   H  -   1   C       0.960581       0.979090

     7   H  -   1   C       0.960581       0.979090

     8   C  -   2   C       0.994122       0.976047
     8   C  -  14   H       0.963897       0.980238
     8   C  -  10   H       0.960958       0.978825
     8   C  -  12   H       0.960668       0.979029
     8   C  -   3   O       0.029772       0.015283

     9   C  -   2   C       0.994122       0.976047
     9   C  -  15   H       0.963897       0.980238
     9   C  -  11   H       0.960958       0.978825
     9   C  -  13   H       0.960668       0.979029
     9   C  -   3   O       0.029772       0.015283

    10   H  -   8   C       0.960958       0.978825

    11   H  -   9   C       0.960958       0.978825

    12   H  -   8   C       0.960668       0.979029

    13   H  -   9   C       0.960668       0.979029

    14   H  -   8   C       0.963897       0.980238

    15   H  -   9   C       0.963897       0.980238


 Valency analysis:

   CEN ATOM   TOT.VALENCE
     1   C       3.947400
     2   C       3.930303
     3   O       1.941285
     4   H       0.895153
     5   H       0.986030
     6   H       0.984076
     7   H       0.984076
     8   C       3.949345
     9   C       3.949345
    10   H       0.984004
    11   H       0.984004
    12   H       0.985485
    13   H       0.985485
    14   H       0.987434
    15   H       0.987434

 Total charge composition:

   CEN ATOM         s          p       ELECTRONS ->P.CHARGE
     1   C       3.01847    3.35149      6.36996   -0.36996
     2   C       2.91968    2.80579      5.72547    0.27453
     3   O       3.63905    4.90892      8.54797   -0.54797
     4   H       0.67620                 0.67620    0.32380
     5   H       0.88181                 0.88181    0.11819
     6   H       0.87381                 0.87381    0.12619
     7   H       0.87381                 0.87381    0.12619
     8   C       3.02618    3.35836      6.38454   -0.38454
     9   C       3.02618    3.35836      6.38454   -0.38454
    10   H       0.87353                 0.87353    0.12647
    11   H       0.87353                 0.87353    0.12647
    12   H       0.87952                 0.87952    0.12048
    13   H       0.87952                 0.87952    0.12048
    14   H       0.88790                 0.88790    0.11210
    15   H       0.88790                 0.88790    0.11210

 Total charge composition, AO contributions:

   CEN ATOM SHL      SPHERICAL COMPONENTS
     1   C  1s       1.99248
     1   C  2s       1.02599
     1   C  2p       1.04064    1.14994    1.16091

     2   C  1s       1.99394
     2   C  2s       0.92575
     2   C  2p       1.00687    0.78955    1.00937

     3   O  1s       1.99745
     3   O  2s       1.64160
     3   O  2p       1.46008    1.49655    1.95229

     4   H  1s       0.67620

     5   H  1s       0.88181

     6   H  1s       0.87381

     7   H  1s       0.87381

     8   C  1s       1.99256
     8   C  2s       1.03361
     8   C  2p       1.13313    1.13427    1.09096

     9   C  1s       1.99256
     9   C  2s       1.03361
     9   C  2p       1.13313    1.13427    1.09096

    10   H  1s       0.87353

    11   H  1s       0.87353

    12   H  1s       0.87952

    13   H  1s       0.87952

    14   H  1s       0.88790

    15   H  1s       0.88790

 Summary of localized orbital composition:   [THRPRINT= 0.020]

   ORB  GRP  ORB.ENERGY      CENTERS/CHARGES
     1   1   -18.673399      O  3   2.000
     2   1    -9.891098      C  2   2.000
     3   1    -9.808565      C  9   2.000
     4   1    -9.808565      C  8   2.000
     5   1    -9.802690      C  1   2.000
     6   1    -0.711760      O  3   1.327   H  4   0.662
     7   1    -0.683594      O  3   1.284   C  2   0.698
     8   1    -0.530712      C  9   1.013   C  2   0.970
     9   1    -0.530712      C  8   1.013   C  2   0.970
    10   1    -0.530616      C  1   0.995   C  2   0.979   (other: 0.026)
    11   1    -0.530552      O  3   1.980
    12   1    -0.458713      C  8   1.116   H 12   0.869
    13   1    -0.458713      C  9   1.116   H 13   0.869
    14   1    -0.457357      C  8   1.107   H 14   0.880
    15   1    -0.457357      C  9   1.107   H 15   0.880
    16   1    -0.455097      C  1   1.112   H  5   0.874
    17   1    -0.452677      C  9   1.124   H 11   0.865
    18   1    -0.452677      C  8   1.124   H 10   0.865
    19   1    -0.448088      C  1   1.123   H  6   0.865
    20   1    -0.448088      C  1   1.123   H  7   0.865
    21   1    -0.268681      O  3   1.952   (other: 0.048)

 Localized orbitals saved to record      2200.2  (orbital set 4)


 **********************************************************************************************************************************
 DATASETS  * FILE   NREC   LENGTH (MB)   RECORD NAMES
              1      20    23759.30       500      610      700      900      950      970     1000      129      960     1100   
                                          VAR    BASINP    GEOM    SYMINP    ZMAT    AOBASIS   BASIS     P2S    ABASIS      S 
                                         1400     1410     1200     1210     1080     1600     1650     1300     1700     1800   
                                           T        V       H0       H01     AOSYM     SMH    MOLCAS    ERIS     OPER     GRID   

              2       5       13.27       700     1000      520     1800     2200   
                                         GEOM     BASIS   MCVARS    GRID      UKS  

 PROGRAMS   *        TOTAL      IBBA       UKS       INT
 CPU TIMES  *      3382.82      0.26   2939.27    443.15
 REAL TIME  *      8718.44 SEC
 DISK USED  *        89.43 GB      
 **********************************************************************************************************************************
 Molecular orbitals read from record     2200.2  Type=UKS/LOCAL(IBO)  
 Occupation numbers read from record     2200.2  Type=UKS/LOCAL(IBO)  
 Orbital energies read from record       2200.2  Type=UKS/LOCAL(IBO)  
 Redundancy group numbers read from rec  2200.2  Type=UKS/BETA (state 1.1)

 IBBA/aug-cc-pVTZ energy=      0.000000000000

        UKS-SCF 
   -227.32857746
 **********************************************************************************************************************************
 Molpro calculation terminated
